
    -----------------------------------------------------------------------
          Psi4: An Open-Source Ab Initio Electronic Structure Package
                               Psi4 1.3.2 release

                         Git: Rev {HEAD} ecbda83 


    R. M. Parrish, L. A. Burns, D. G. A. Smith, A. C. Simmonett,
    A. E. DePrince III, E. G. Hohenstein, U. Bozkaya, A. Yu. Sokolov,
    R. Di Remigio, R. M. Richard, J. F. Gonthier, A. M. James,
    H. R. McAlexander, A. Kumar, M. Saitow, X. Wang, B. P. Pritchard,
    P. Verma, H. F. Schaefer III, K. Patkowski, R. A. King, E. F. Valeev,
    F. A. Evangelista, J. M. Turney, T. D. Crawford, and C. D. Sherrill,
    J. Chem. Theory Comput. 13(7) pp 3185--3197 (2017).
    (doi: 10.1021/acs.jctc.7b00174)


                         Additional Contributions by
    P. Kraus, H. Kruse, M. H. Lechner, M. C. Schieber, R. A. Shaw,
    A. Alenaizan, R. Galvelis, Z. L. Glick, S. Lehtola, and J. P. Misiewicz

    -----------------------------------------------------------------------


    Psi4 started on: Tuesday, 19 April 2022 12:24AM

    Process ID: 25433
    Host:       atlantis
    PSIDATADIR: /home/akrom/software/anaconda3/envs/ffpenv/share/psi4
    Memory:     500.0 MiB
    Threads:    1
    
  ==> Input File <==

--------------------------------------------------------------------------
set basis  aug-cc-pVTZ
molecule {
0 1
   O        0.00000        0.00000        0.49152
   C        0.00000        0.00000       -0.65516
}
energy('scf')
frequencies('scf')
--------------------------------------------------------------------------

*** tstart() called on atlantis
*** at Tue Apr 19 00:24:04 2022

   => Loading Basis Set <=

    Name: AUG-CC-PVTZ
    Role: ORBITAL
    Keyword: BASIS
    atoms 1 entry O          line   327 file /home/akrom/software/anaconda3/envs/ffpenv/share/psi4/basis/aug-cc-pvtz.gbs 
    atoms 2 entry C          line   235 file /home/akrom/software/anaconda3/envs/ffpenv/share/psi4/basis/aug-cc-pvtz.gbs 


         ---------------------------------------------------------
                                   SCF
               by Justin Turney, Rob Parrish, Andy Simmonett
                          and Daniel G. A. Smith
                              RHF Reference
                        1 Threads,    500 MiB Core
         ---------------------------------------------------------

  ==> Geometry <==

    Molecular point group: c2v
    Full point group: C_inf_v

    Geometry (in Angstrom), charge = 0, multiplicity = 1:

       Center              X                  Y                   Z               Mass       
    ------------   -----------------  -----------------  -----------------  -----------------
         O            0.000000000000     0.000000000000     0.491523556581    15.994914619570
         C            0.000000000000     0.000000000000    -0.655156443419    12.000000000000

  Running in c2v symmetry.

  Rotational constants: A = ************  B =      1.86994  C =      1.86994 [cm^-1]
  Rotational constants: A = ************  B =  56059.43274  C =  56059.43274 [MHz]
  Nuclear repulsion =   22.151346593783796

  Charge       = 0
  Multiplicity = 1
  Electrons    = 14
  Nalpha       = 7
  Nbeta        = 7

  ==> Algorithm <==

  SCF Algorithm Type is DF.
  DIIS enabled.
  MOM disabled.
  Fractional occupation disabled.
  Guess Type is SAD.
  Energy threshold   = 1.00e-06
  Density threshold  = 1.00e-06
  Integral threshold = 0.00e+00

  ==> Primary Basis <==

  Basis Set: AUG-CC-PVTZ
    Blend: AUG-CC-PVTZ
    Number of shells: 28
    Number of basis function: 92
    Number of Cartesian functions: 110
    Spherical Harmonics?: true
    Max angular momentum: 3

   => Loading Basis Set <=

    Name: (AUG-CC-PVTZ AUX)
    Role: JKFIT
    Keyword: DF_BASIS_SCF
    atoms 1 entry O          line   286 file /home/akrom/software/anaconda3/envs/ffpenv/share/psi4/basis/aug-cc-pvtz-jkfit.gbs 
    atoms 2 entry C          line   162 file /home/akrom/software/anaconda3/envs/ffpenv/share/psi4/basis/aug-cc-pvtz-jkfit.gbs 

  ==> Pre-Iterations <==

   -------------------------------------------------------
    Irrep   Nso     Nmo     Nalpha   Nbeta   Ndocc  Nsocc
   -------------------------------------------------------
     A1        38      38       0       0       0       0
     A2        10      10       0       0       0       0
     B1        22      22       0       0       0       0
     B2        22      22       0       0       0       0
   -------------------------------------------------------
    Total      92      92       7       7       7       0
   -------------------------------------------------------

  ==> Integral Setup <==

  DFHelper Memory: AOs need 0.015 GiB; user supplied 0.366 GiB. Using in-core AOs.

  ==> MemDFJK: Density-Fitted J/K Matrices <==

    J tasked:                   Yes
    K tasked:                   Yes
    wK tasked:                   No
    OpenMP threads:               1
    Memory [MiB]:               375
    Algorithm:                 Core
    Schwarz Cutoff:           1E-12
    Mask sparsity (%):       0.0000
    Fitting Condition:        1E-10

   => Auxiliary Basis Set <=

  Basis Set: (AUG-CC-PVTZ AUX)
    Blend: AUG-CC-PVTZ-JKFIT
    Number of shells: 60
    Number of basis function: 208
    Number of Cartesian functions: 262
    Spherical Harmonics?: true
    Max angular momentum: 4

  Minimum eigenvalue in the overlap matrix is 4.8582112806E-04.
  Using Symmetric Orthogonalization.

  SCF Guess: Superposition of Atomic Densities via on-the-fly atomic UHF.

  ==> Iterations <==

                           Total Energy        Delta E     RMS |[F,P]|

   @DF-RHF iter SAD:  -111.83392746677775   -1.11834e+02   0.00000e+00 
   @DF-RHF iter   1:  -112.74968569678501   -9.15758e-01   5.78930e-03 DIIS
   @DF-RHF iter   2:  -112.75804197265316   -8.35628e-03   4.93172e-03 DIIS
   @DF-RHF iter   3:  -112.77821801397900   -2.01760e-02   3.20263e-04 DIIS
   @DF-RHF iter   4:  -112.77834815356992   -1.30140e-04   3.87808e-05 DIIS
   @DF-RHF iter   5:  -112.77835080436374   -2.65079e-06   7.76981e-06 DIIS
   @DF-RHF iter   6:  -112.77835097356849   -1.69205e-07   1.97595e-06 DIIS
   @DF-RHF iter   7:  -112.77835098088421   -7.31572e-09   3.34671e-07 DIIS
  Energy and wave function converged.


  ==> Post-Iterations <==

    Orbital Energies [Eh]
    ---------------------

    Doubly Occupied:                                                      

       1A1   -20.668867     2A1   -11.370281     3A1    -1.510411  
       4A1    -0.803353     1B2    -0.632586     1B1    -0.632586  
       5A1    -0.556998  

    Virtual:                                                              

       2B2     0.069263     2B1     0.069263     6A1     0.069605  
       7A1     0.087399     3B2     0.148902     3B1     0.148902  
       8A1     0.185201     4B2     0.198088     4B1     0.198088  
       9A1     0.268987     1A2     0.295958    10A1     0.295958  
      11A1     0.391659     5B2     0.412129     5B1     0.412129  
      12A1     0.499554     6B2     0.508403     6B1     0.508403  
      13A1     0.669623    14A1     0.725169     2A2     0.725169  
      15A1     0.777898     7B2     0.840878     7B1     0.840878  
      16A1     1.002089    17A1     1.046063     3A2     1.046063  
       8B1     1.071893     8B2     1.071893     9B2     1.085371  
       9B1     1.085371    10B2     1.221274    10B1     1.221274  
      18A1     1.248347    19A1     1.273240     4A2     1.273240  
      20A1     1.381183    11B2     1.483061    11B1     1.483061  
      21A1     1.521777    12B2     2.141128    12B1     2.141128  
       5A2     2.179678    22A1     2.179678    13B2     2.320174  
      13B1     2.320174    23A1     2.350282    24A1     2.428395  
      14B2     2.555302    14B1     2.555302    25A1     2.574998  
       6A2     2.574998    26A1     2.674384    15B2     2.978837  
      15B1     2.978837    27A1     3.393142     7A2     3.393142  
      16B2     3.419545    16B1     3.419545    28A1     3.465711  
      17B1     3.616979    17B2     3.616979    29A1     3.729339  
       8A2     3.729339    18B1     3.974624    18B2     3.974624  
      30A1     4.002694    31A1     4.367584    19B2     5.186783  
      19B1     5.186783    32A1     5.286406    20B2     6.472501  
      20B1     6.472501     9A2     6.744748    33A1     6.744748  
      34A1     7.033610    10A2     7.033610    21B1     7.078152  
      21B2     7.078152    35A1     7.177307    22B2     7.439854  
      22B1     7.439854    36A1     7.593186    37A1    12.400175  
      38A1    14.847959  

    Final Occupation by Irrep:
             A1    A2    B1    B2 
    DOCC [     5,    0,    1,    1 ]

  @DF-RHF Final Energy:  -112.77835098088421

   => Energetics <=

    Nuclear Repulsion Energy =             22.1513465937837957
    One-Electron Energy =                -197.5092497764906057
    Two-Electron Energy =                  62.5795522018226080
    Total Energy =                       -112.7783509808842126

Computation Completed


Properties will be evaluated at   0.000000,   0.000000,   0.000000 [a0]

Properties computed using the SCF density matrix

  Nuclear Dipole Moment: [e a0]
     X:     0.0000      Y:     0.0000      Z:     0.0024

  Electronic Dipole Moment: [e a0]
     X:     0.0000      Y:     0.0000      Z:    -0.1436

  Dipole Moment: [e a0]
     X:     0.0000      Y:     0.0000      Z:    -0.1412     Total:     0.1412

  Dipole Moment: [D]
     X:     0.0000      Y:     0.0000      Z:    -0.3590     Total:     0.3590


*** tstop() called on atlantis at Tue Apr 19 00:24:04 2022
Module time:
	user time   =       0.41 seconds =       0.01 minutes
	system time =       0.01 seconds =       0.00 minutes
	total time  =          0 seconds =       0.00 minutes
Total time:
	user time   =       0.41 seconds =       0.01 minutes
	system time =       0.01 seconds =       0.00 minutes
	total time  =          0 seconds =       0.00 minutes
gradient() will perform analytic gradient computation.

*** tstart() called on atlantis
*** at Tue Apr 19 00:24:04 2022

   => Loading Basis Set <=

    Name: AUG-CC-PVTZ
    Role: ORBITAL
    Keyword: BASIS
    atoms 1 entry O          line   327 file /home/akrom/software/anaconda3/envs/ffpenv/share/psi4/basis/aug-cc-pvtz.gbs 
    atoms 2 entry C          line   235 file /home/akrom/software/anaconda3/envs/ffpenv/share/psi4/basis/aug-cc-pvtz.gbs 


         ---------------------------------------------------------
                                   SCF
               by Justin Turney, Rob Parrish, Andy Simmonett
                          and Daniel G. A. Smith
                              RHF Reference
                        1 Threads,    500 MiB Core
         ---------------------------------------------------------

  ==> Geometry <==

    Molecular point group: c2v
    Full point group: C_inf_v

    Geometry (in Angstrom), charge = 0, multiplicity = 1:

       Center              X                  Y                   Z               Mass       
    ------------   -----------------  -----------------  -----------------  -----------------
         O            0.000000000000     0.000000000000     0.491523556581    15.994914619570
         C            0.000000000000     0.000000000000    -0.655156443419    12.000000000000

  Running in c2v symmetry.

  Rotational constants: A = ************  B =      1.86994  C =      1.86994 [cm^-1]
  Rotational constants: A = ************  B =  56059.43274  C =  56059.43274 [MHz]
  Nuclear repulsion =   22.151346593783796

  Charge       = 0
  Multiplicity = 1
  Electrons    = 14
  Nalpha       = 7
  Nbeta        = 7

  ==> Algorithm <==

  SCF Algorithm Type is DF.
  DIIS enabled.
  MOM disabled.
  Fractional occupation disabled.
  Guess Type is SAD.
  Energy threshold   = 1.00e-08
  Density threshold  = 1.00e-08
  Integral threshold = 0.00e+00

  ==> Primary Basis <==

  Basis Set: AUG-CC-PVTZ
    Blend: AUG-CC-PVTZ
    Number of shells: 28
    Number of basis function: 92
    Number of Cartesian functions: 110
    Spherical Harmonics?: true
    Max angular momentum: 3

   => Loading Basis Set <=

    Name: (AUG-CC-PVTZ AUX)
    Role: JKFIT
    Keyword: DF_BASIS_SCF
    atoms 1 entry O          line   286 file /home/akrom/software/anaconda3/envs/ffpenv/share/psi4/basis/aug-cc-pvtz-jkfit.gbs 
    atoms 2 entry C          line   162 file /home/akrom/software/anaconda3/envs/ffpenv/share/psi4/basis/aug-cc-pvtz-jkfit.gbs 

  ==> Pre-Iterations <==

   -------------------------------------------------------
    Irrep   Nso     Nmo     Nalpha   Nbeta   Ndocc  Nsocc
   -------------------------------------------------------
     A1        38      38       0       0       0       0
     A2        10      10       0       0       0       0
     B1        22      22       0       0       0       0
     B2        22      22       0       0       0       0
   -------------------------------------------------------
    Total      92      92       7       7       7       0
   -------------------------------------------------------

  ==> Integral Setup <==

  DFHelper Memory: AOs need 0.015 GiB; user supplied 0.366 GiB. Using in-core AOs.

  ==> MemDFJK: Density-Fitted J/K Matrices <==

    J tasked:                   Yes
    K tasked:                   Yes
    wK tasked:                   No
    OpenMP threads:               1
    Memory [MiB]:               375
    Algorithm:                 Core
    Schwarz Cutoff:           1E-12
    Mask sparsity (%):       0.0000
    Fitting Condition:        1E-10

   => Auxiliary Basis Set <=

  Basis Set: (AUG-CC-PVTZ AUX)
    Blend: AUG-CC-PVTZ-JKFIT
    Number of shells: 60
    Number of basis function: 208
    Number of Cartesian functions: 262
    Spherical Harmonics?: true
    Max angular momentum: 4

  Minimum eigenvalue in the overlap matrix is 4.8582112806E-04.
  Using Symmetric Orthogonalization.

  SCF Guess: Superposition of Atomic Densities via on-the-fly atomic UHF.

  ==> Iterations <==

                           Total Energy        Delta E     RMS |[F,P]|

   @DF-RHF iter SAD:  -111.83392746677775   -1.11834e+02   0.00000e+00 
   @DF-RHF iter   1:  -112.74968569678501   -9.15758e-01   5.78930e-03 DIIS
   @DF-RHF iter   2:  -112.75804197265316   -8.35628e-03   4.93172e-03 DIIS
   @DF-RHF iter   3:  -112.77821801397900   -2.01760e-02   3.20263e-04 DIIS
   @DF-RHF iter   4:  -112.77834815356992   -1.30140e-04   3.87808e-05 DIIS
   @DF-RHF iter   5:  -112.77835080436374   -2.65079e-06   7.76981e-06 DIIS
   @DF-RHF iter   6:  -112.77835097356849   -1.69205e-07   1.97595e-06 DIIS
   @DF-RHF iter   7:  -112.77835098088421   -7.31572e-09   3.34671e-07 DIIS
   @DF-RHF iter   8:  -112.77835098113769   -2.53479e-10   9.80065e-08 DIIS
   @DF-RHF iter   9:  -112.77835098115575   -1.80620e-11   1.70580e-08 DIIS
   @DF-RHF iter  10:  -112.77835098115627   -5.11591e-13   1.49973e-09 DIIS
  Energy and wave function converged.


  ==> Post-Iterations <==

    Orbital Energies [Eh]
    ---------------------

    Doubly Occupied:                                                      

       1A1   -20.668865     2A1   -11.370283     3A1    -1.510410  
       4A1    -0.803351     1B2    -0.632586     1B1    -0.632586  
       5A1    -0.556999  

    Virtual:                                                              

       2B2     0.069262     2B1     0.069262     6A1     0.069605  
       7A1     0.087399     3B2     0.148902     3B1     0.148902  
       8A1     0.185201     4B2     0.198088     4B1     0.198088  
       9A1     0.268988     1A2     0.295958    10A1     0.295958  
      11A1     0.391659     5B2     0.412129     5B1     0.412129  
      12A1     0.499554     6B2     0.508403     6B1     0.508403  
      13A1     0.669623    14A1     0.725169     2A2     0.725169  
      15A1     0.777898     7B2     0.840879     7B1     0.840879  
      16A1     1.002090    17A1     1.046062     3A2     1.046062  
       8B1     1.071892     8B2     1.071892     9B2     1.085371  
       9B1     1.085371    10B2     1.221274    10B1     1.221274  
      18A1     1.248346    19A1     1.273240     4A2     1.273240  
      20A1     1.381184    11B2     1.483061    11B1     1.483061  
      21A1     1.521776    12B2     2.141129    12B1     2.141129  
       5A2     2.179680    22A1     2.179680    13B2     2.320174  
      13B1     2.320174    23A1     2.350283    24A1     2.428396  
      14B2     2.555302    14B1     2.555302    25A1     2.574999  
       6A2     2.574999    26A1     2.674384    15B2     2.978837  
      15B1     2.978837    27A1     3.393140     7A2     3.393140  
      16B2     3.419543    16B1     3.419543    28A1     3.465710  
      17B1     3.616978    17B2     3.616978    29A1     3.729339  
       8A2     3.729339    18B1     3.974624    18B2     3.974624  
      30A1     4.002693    31A1     4.367585    19B2     5.186784  
      19B1     5.186784    32A1     5.286407    20B2     6.472503  
      20B1     6.472503     9A2     6.744750    33A1     6.744750  
      34A1     7.033613    10A2     7.033613    21B1     7.078153  
      21B2     7.078153    35A1     7.177308    22B2     7.439855  
      22B1     7.439855    36A1     7.593187    37A1    12.400174  
      38A1    14.847960  

    Final Occupation by Irrep:
             A1    A2    B1    B2 
    DOCC [     5,    0,    1,    1 ]

  @DF-RHF Final Energy:  -112.77835098115627

   => Energetics <=

    Nuclear Repulsion Energy =             22.1513465937837957
    One-Electron Energy =                -197.5092355743494750
    Two-Electron Energy =                  62.5795379994094247
    Total Energy =                       -112.7783509811562652

Computation Completed


Properties will be evaluated at   0.000000,   0.000000,   0.000000 [a0]

Properties computed using the SCF density matrix

  Nuclear Dipole Moment: [e a0]
     X:     0.0000      Y:     0.0000      Z:     0.0024

  Electronic Dipole Moment: [e a0]
     X:     0.0000      Y:     0.0000      Z:    -0.1436

  Dipole Moment: [e a0]
     X:     0.0000      Y:     0.0000      Z:    -0.1412     Total:     0.1412

  Dipole Moment: [D]
     X:     0.0000      Y:     0.0000      Z:    -0.3590     Total:     0.3590


*** tstop() called on atlantis at Tue Apr 19 00:24:05 2022
Module time:
	user time   =       0.41 seconds =       0.01 minutes
	system time =       0.01 seconds =       0.00 minutes
	total time  =          1 seconds =       0.02 minutes
Total time:
	user time   =       0.83 seconds =       0.01 minutes
	system time =       0.02 seconds =       0.00 minutes
	total time  =          1 seconds =       0.02 minutes

*** tstart() called on atlantis
*** at Tue Apr 19 00:24:05 2022


         ------------------------------------------------------------
                                   SCF GRAD                          
                          Rob Parrish, Justin Turney,                
                       Andy Simmonett, and Alex Sokolov              
         ------------------------------------------------------------

  ==> Geometry <==

    Molecular point group: c2v
    Full point group: C_inf_v

    Geometry (in Angstrom), charge = 0, multiplicity = 1:

       Center              X                  Y                   Z               Mass       
    ------------   -----------------  -----------------  -----------------  -----------------
         O            0.000000000000     0.000000000000     0.491523556581    15.994914619570
         C            0.000000000000     0.000000000000    -0.655156443419    12.000000000000

  Nuclear repulsion =   22.151346593783796

  ==> Basis Set <==

  Basis Set: AUG-CC-PVTZ
    Blend: AUG-CC-PVTZ
    Number of shells: 28
    Number of basis function: 92
    Number of Cartesian functions: 110
    Spherical Harmonics?: true
    Max angular momentum: 3

  ==> DFJKGrad: Density-Fitted SCF Gradients <==

    Gradient:                    1
    J tasked:                  Yes
    K tasked:                  Yes
    wK tasked:                  No
    OpenMP threads:              1
    Integrals threads:           1
    Memory [MiB]:              375
    Schwarz Cutoff:          0E+00
    Fitting Condition:       1E-10

   => Auxiliary Basis Set <=

  Basis Set: (AUG-CC-PVTZ AUX)
    Blend: AUG-CC-PVTZ-JKFIT
    Number of shells: 60
    Number of basis function: 208
    Number of Cartesian functions: 262
    Spherical Harmonics?: true
    Max angular momentum: 4


  -Total Gradient:
     Atom            X                  Y                   Z
    ------   -----------------  -----------------  -----------------
       1       -0.000000000000     0.000000000000     0.105963539364
       2        0.000000000000    -0.000000000000    -0.105963539364


*** tstop() called on atlantis at Tue Apr 19 00:24:05 2022
Module time:
	user time   =       0.35 seconds =       0.01 minutes
	system time =       0.00 seconds =       0.00 minutes
	total time  =          0 seconds =       0.00 minutes
Total time:
	user time   =       1.18 seconds =       0.02 minutes
	system time =       0.02 seconds =       0.00 minutes
	total time  =          1 seconds =       0.02 minutes

  Based on options and gradient (rms=6.12E-02), recommend projecting translations and not projecting rotations.
hessian() will perform analytic frequency computation.

*** tstart() called on atlantis
*** at Tue Apr 19 00:24:05 2022

   => Loading Basis Set <=

    Name: AUG-CC-PVTZ
    Role: ORBITAL
    Keyword: BASIS
    atoms 1 entry O          line   327 file /home/akrom/software/anaconda3/envs/ffpenv/share/psi4/basis/aug-cc-pvtz.gbs 
    atoms 2 entry C          line   235 file /home/akrom/software/anaconda3/envs/ffpenv/share/psi4/basis/aug-cc-pvtz.gbs 


         ---------------------------------------------------------
                                   SCF
               by Justin Turney, Rob Parrish, Andy Simmonett
                          and Daniel G. A. Smith
                              RHF Reference
                        1 Threads,    500 MiB Core
         ---------------------------------------------------------

  ==> Geometry <==

    Molecular point group: c2v
    Full point group: C_inf_v

    Geometry (in Angstrom), charge = 0, multiplicity = 1:

       Center              X                  Y                   Z               Mass       
    ------------   -----------------  -----------------  -----------------  -----------------
         O            0.000000000000     0.000000000000     0.491523556581    15.994914619570
         C            0.000000000000     0.000000000000    -0.655156443419    12.000000000000

  Running in c2v symmetry.

  Rotational constants: A = ************  B =      1.86994  C =      1.86994 [cm^-1]
  Rotational constants: A = ************  B =  56059.43274  C =  56059.43274 [MHz]
  Nuclear repulsion =   22.151346593783796

  Charge       = 0
  Multiplicity = 1
  Electrons    = 14
  Nalpha       = 7
  Nbeta        = 7

  ==> Algorithm <==

  SCF Algorithm Type is DF.
  DIIS enabled.
  MOM disabled.
  Fractional occupation disabled.
  Guess Type is SAD.
  Energy threshold   = 1.00e-08
  Density threshold  = 1.00e-08
  Integral threshold = 0.00e+00

  ==> Primary Basis <==

  Basis Set: AUG-CC-PVTZ
    Blend: AUG-CC-PVTZ
    Number of shells: 28
    Number of basis function: 92
    Number of Cartesian functions: 110
    Spherical Harmonics?: true
    Max angular momentum: 3

   => Loading Basis Set <=

    Name: (AUG-CC-PVTZ AUX)
    Role: JKFIT
    Keyword: DF_BASIS_SCF
    atoms 1 entry O          line   286 file /home/akrom/software/anaconda3/envs/ffpenv/share/psi4/basis/aug-cc-pvtz-jkfit.gbs 
    atoms 2 entry C          line   162 file /home/akrom/software/anaconda3/envs/ffpenv/share/psi4/basis/aug-cc-pvtz-jkfit.gbs 

  ==> Pre-Iterations <==

   -------------------------------------------------------
    Irrep   Nso     Nmo     Nalpha   Nbeta   Ndocc  Nsocc
   -------------------------------------------------------
     A1        38      38       0       0       0       0
     A2        10      10       0       0       0       0
     B1        22      22       0       0       0       0
     B2        22      22       0       0       0       0
   -------------------------------------------------------
    Total      92      92       7       7       7       0
   -------------------------------------------------------

  ==> Integral Setup <==

  DFHelper Memory: AOs need 0.015 GiB; user supplied 0.366 GiB. Using in-core AOs.

  ==> MemDFJK: Density-Fitted J/K Matrices <==

    J tasked:                   Yes
    K tasked:                   Yes
    wK tasked:                   No
    OpenMP threads:               1
    Memory [MiB]:               375
    Algorithm:                 Core
    Schwarz Cutoff:           1E-12
    Mask sparsity (%):       0.0000
    Fitting Condition:        1E-10

   => Auxiliary Basis Set <=

  Basis Set: (AUG-CC-PVTZ AUX)
    Blend: AUG-CC-PVTZ-JKFIT
    Number of shells: 60
    Number of basis function: 208
    Number of Cartesian functions: 262
    Spherical Harmonics?: true
    Max angular momentum: 4

  Minimum eigenvalue in the overlap matrix is 4.8582112806E-04.
  Using Symmetric Orthogonalization.

  SCF Guess: Superposition of Atomic Densities via on-the-fly atomic UHF.

  ==> Iterations <==

                           Total Energy        Delta E     RMS |[F,P]|

   @DF-RHF iter SAD:  -111.83392746677775   -1.11834e+02   0.00000e+00 
   @DF-RHF iter   1:  -112.74968569678501   -9.15758e-01   5.78930e-03 DIIS
   @DF-RHF iter   2:  -112.75804197265316   -8.35628e-03   4.93172e-03 DIIS
   @DF-RHF iter   3:  -112.77821801397900   -2.01760e-02   3.20263e-04 DIIS
   @DF-RHF iter   4:  -112.77834815356992   -1.30140e-04   3.87808e-05 DIIS
   @DF-RHF iter   5:  -112.77835080436374   -2.65079e-06   7.76981e-06 DIIS
   @DF-RHF iter   6:  -112.77835097356849   -1.69205e-07   1.97595e-06 DIIS
   @DF-RHF iter   7:  -112.77835098088421   -7.31572e-09   3.34671e-07 DIIS
   @DF-RHF iter   8:  -112.77835098113769   -2.53479e-10   9.80065e-08 DIIS
   @DF-RHF iter   9:  -112.77835098115575   -1.80620e-11   1.70580e-08 DIIS
   @DF-RHF iter  10:  -112.77835098115627   -5.11591e-13   1.49973e-09 DIIS
  Energy and wave function converged.


  ==> Post-Iterations <==

    Orbital Energies [Eh]
    ---------------------

    Doubly Occupied:                                                      

       1A1   -20.668865     2A1   -11.370283     3A1    -1.510410  
       4A1    -0.803351     1B2    -0.632586     1B1    -0.632586  
       5A1    -0.556999  

    Virtual:                                                              

       2B2     0.069262     2B1     0.069262     6A1     0.069605  
       7A1     0.087399     3B2     0.148902     3B1     0.148902  
       8A1     0.185201     4B2     0.198088     4B1     0.198088  
       9A1     0.268988     1A2     0.295958    10A1     0.295958  
      11A1     0.391659     5B2     0.412129     5B1     0.412129  
      12A1     0.499554     6B2     0.508403     6B1     0.508403  
      13A1     0.669623    14A1     0.725169     2A2     0.725169  
      15A1     0.777898     7B2     0.840879     7B1     0.840879  
      16A1     1.002090    17A1     1.046062     3A2     1.046062  
       8B1     1.071892     8B2     1.071892     9B2     1.085371  
       9B1     1.085371    10B2     1.221274    10B1     1.221274  
      18A1     1.248346    19A1     1.273240     4A2     1.273240  
      20A1     1.381184    11B2     1.483061    11B1     1.483061  
      21A1     1.521776    12B2     2.141129    12B1     2.141129  
       5A2     2.179680    22A1     2.179680    13B2     2.320174  
      13B1     2.320174    23A1     2.350283    24A1     2.428396  
      14B2     2.555302    14B1     2.555302    25A1     2.574999  
       6A2     2.574999    26A1     2.674384    15B2     2.978837  
      15B1     2.978837    27A1     3.393140     7A2     3.393140  
      16B2     3.419543    16B1     3.419543    28A1     3.465710  
      17B1     3.616978    17B2     3.616978    29A1     3.729339  
       8A2     3.729339    18B1     3.974624    18B2     3.974624  
      30A1     4.002693    31A1     4.367585    19B2     5.186784  
      19B1     5.186784    32A1     5.286407    20B2     6.472503  
      20B1     6.472503     9A2     6.744750    33A1     6.744750  
      34A1     7.033613    10A2     7.033613    21B1     7.078153  
      21B2     7.078153    35A1     7.177308    22B2     7.439855  
      22B1     7.439855    36A1     7.593187    37A1    12.400174  
      38A1    14.847960  

    Final Occupation by Irrep:
             A1    A2    B1    B2 
    DOCC [     5,    0,    1,    1 ]

  @DF-RHF Final Energy:  -112.77835098115627

   => Energetics <=

    Nuclear Repulsion Energy =             22.1513465937837957
    One-Electron Energy =                -197.5092355743494750
    Two-Electron Energy =                  62.5795379994094247
    Total Energy =                       -112.7783509811562652

Computation Completed


Properties will be evaluated at   0.000000,   0.000000,   0.000000 [a0]

Properties computed using the SCF density matrix

  Nuclear Dipole Moment: [e a0]
     X:     0.0000      Y:     0.0000      Z:     0.0024

  Electronic Dipole Moment: [e a0]
     X:     0.0000      Y:     0.0000      Z:    -0.1436

  Dipole Moment: [e a0]
     X:     0.0000      Y:     0.0000      Z:    -0.1412     Total:     0.1412

  Dipole Moment: [D]
     X:     0.0000      Y:     0.0000      Z:    -0.3590     Total:     0.3590


*** tstop() called on atlantis at Tue Apr 19 00:24:06 2022
Module time:
	user time   =       0.41 seconds =       0.01 minutes
	system time =       0.01 seconds =       0.00 minutes
	total time  =          1 seconds =       0.02 minutes
Total time:
	user time   =       1.59 seconds =       0.03 minutes
	system time =       0.04 seconds =       0.00 minutes
	total time  =          2 seconds =       0.03 minutes

*** tstart() called on atlantis
*** at Tue Apr 19 00:24:06 2022


         ------------------------------------------------------------
                                   SCF HESS                          
                          Rob Parrish, Justin Turney,                
                       Andy Simmonett, and Alex Sokolov              
         ------------------------------------------------------------

  ==> Geometry <==

    Molecular point group: c2v
    Full point group: C_inf_v

    Geometry (in Angstrom), charge = 0, multiplicity = 1:

       Center              X                  Y                   Z               Mass       
    ------------   -----------------  -----------------  -----------------  -----------------
         O            0.000000000000     0.000000000000     0.491523556581    15.994914619570
         C            0.000000000000     0.000000000000    -0.655156443419    12.000000000000

  Nuclear repulsion =   22.151346593783796

  ==> Basis Set <==

  Basis Set: AUG-CC-PVTZ
    Blend: AUG-CC-PVTZ
    Number of shells: 28
    Number of basis function: 92
    Number of Cartesian functions: 110
    Spherical Harmonics?: true
    Max angular momentum: 3

  ==> DFJKGrad: Density-Fitted SCF Gradients <==

    Gradient:                    2
    J tasked:                  Yes
    K tasked:                  Yes
    wK tasked:                  No
    OpenMP threads:              1
    Integrals threads:           1
    Memory [MiB]:              375
    Schwarz Cutoff:          0E+00
    Fitting Condition:       1E-10

   => Auxiliary Basis Set <=

  Basis Set: (AUG-CC-PVTZ AUX)
    Blend: AUG-CC-PVTZ-JKFIT
    Number of shells: 60
    Number of basis function: 208
    Number of Cartesian functions: 262
    Spherical Harmonics?: true
    Max angular momentum: 4

  DFHelper Memory: AOs need 0.015 GiB; user supplied 0.439 GiB. Using in-core AOs.

  ==> MemDFJK: Density-Fitted J/K Matrices <==

    J tasked:                   Yes
    K tasked:                   Yes
    wK tasked:                   No
    OpenMP threads:               1
    Memory [MiB]:               450
    Algorithm:                 Core
    Schwarz Cutoff:           1E-12
    Mask sparsity (%):       0.0000
    Fitting Condition:        1E-10

   => Auxiliary Basis Set <=

  Basis Set: (AUG-CC-PVTZ AUX)
    Blend: AUG-CC-PVTZ-JKFIT
    Number of shells: 60
    Number of basis function: 208
    Number of Cartesian functions: 262
    Spherical Harmonics?: true
    Max angular momentum: 4


         ------------------------------------------------------------
                                     CPHF                           
                                  Rob Parrish                       
         ------------------------------------------------------------

  ==> Geometry <==

    Molecular point group: c2v
    Full point group: C_inf_v

    Geometry (in Angstrom), charge = 0, multiplicity = 1:

       Center              X                  Y                   Z               Mass       
    ------------   -----------------  -----------------  -----------------  -----------------
         O            0.000000000000     0.000000000000     0.491523556581    15.994914619570
         C            0.000000000000     0.000000000000    -0.655156443419    12.000000000000

  Nuclear repulsion =   22.151346593783796
  Reference energy  = -112.778350981156265

  ==> Basis Set <==

  Basis Set: AUG-CC-PVTZ
    Blend: AUG-CC-PVTZ
    Number of shells: 28
    Number of basis function: 92
    Number of Cartesian functions: 110
    Spherical Harmonics?: true
    Max angular momentum: 3

  ==> CGRSolver (by Rob Parrish) <==

   Number of roots    =         6
   Preconditioning    =    JACOBI
   Convergence cutoff =     1E-06
   Maximum iterations =       100

  ==> CPHFRHamiltonian (by Rob Parrish) <== 

  ==> MemDFJK: Density-Fitted J/K Matrices <==

    J tasked:                   Yes
    K tasked:                   Yes
    wK tasked:                   No
    OpenMP threads:               1
    Memory [MiB]:               450
    Algorithm:                 Core
    Schwarz Cutoff:           1E-12
    Mask sparsity (%):       0.0000
    Fitting Condition:        1E-10

   => Auxiliary Basis Set <=

  Basis Set: (AUG-CC-PVTZ AUX)
    Blend: AUG-CC-PVTZ-JKFIT
    Number of shells: 60
    Number of basis function: 208
    Number of Cartesian functions: 262
    Spherical Harmonics?: true
    Max angular momentum: 4

  ==> CPHF Iterations <==

  => Iterations <=

             Iter  Converged  Remaining    Residual
  CGR           1          0          6   9.593E-02
  CGR           2          0          6   2.914E-02
  CGR           3          0          6   4.926E-03
  CGR           4          0          6   9.339E-04
  CGR           5          0          6   1.305E-04
  CGR           6          0          6   2.463E-05
  CGR           7          0          6   2.356E-06
  CGR           8          6          0   2.682E-07

    CGRSolver converged.


*** tstop() called on atlantis at Tue Apr 19 00:29:12 2022
Module time:
	user time   =     306.15 seconds =       5.10 minutes
	system time =       0.14 seconds =       0.00 minutes
	total time  =        306 seconds =       5.10 minutes
Total time:
	user time   =     307.74 seconds =       5.13 minutes
	system time =       0.18 seconds =       0.00 minutes
	total time  =        308 seconds =       5.13 minutes


  ==> Harmonic Vibrational Analysis <==

  non-mass-weighted Hessian:       Symmetric? True   Hermitian? True   Lin Dep Dim?  0 (0)
  projection of translations (True) and rotations (False) removed 3 degrees of freedom (5)
  total projector:                 Symmetric? True   Hermitian? True   Lin Dep Dim?  3 (3)
  mass-weighted Hessian:           Symmetric? True   Hermitian? True   Lin Dep Dim?  0 (0)
  pre-proj  low-frequency mode:    0.0000i [cm^-1]
  pre-proj  low-frequency mode:    0.0058  [cm^-1]
  pre-proj  low-frequency mode:    0.0153  [cm^-1]
  pre-proj  low-frequency mode:  434.1301  [cm^-1]
  pre-proj  low-frequency mode:  434.1301  [cm^-1]
  pre-proj  all modes:['0.0074i' '0.0058' '0.0153' '434.1301' '434.1301' '2089.9939']
  projected mass-weighted Hessian: Symmetric? True   Hermitian? True   Lin Dep Dim?  3 (3)
  post-proj low-frequency mode:    0.0000i [cm^-1] (TR)
  post-proj low-frequency mode:    0.0000i [cm^-1] (TR)
  post-proj low-frequency mode:    0.0000  [cm^-1] (TR)
  post-proj low-frequency mode:  434.1301  [cm^-1] (V)
  post-proj low-frequency mode:  434.1301  [cm^-1] (V)
  post-proj  all modes:['0.0000i' '0.0000i' '0.0000' '434.1301' '434.1301' '2089.9939']

  Note that "Vibration"s include 2 un-projected rotation-like modes.
  Vibration                       4                   5                   6           
  Freq [cm^-1]                 434.1301            434.1301           2089.9939       
  Irrep                                                                   A1          
  Reduced mass [u]             13.4388             13.4388             13.4388        
  Force const [mDyne/A]         1.4923              1.4923             34.5859        
  Turning point v=0 [a0]        0.1437              0.1437              0.0655        
  RMS dev v=0 [a0 u^1/2]        0.3724              0.3724              0.1697        
  IR activ [km/mol]             0.6040              0.6040             154.4129       
  Char temp [K]                624.6166            624.6166           3007.0359       
  ----------------------------------------------------------------------------------
      1   O               -0.60 -0.00 -0.00    0.00 -0.60 -0.00    0.00  0.00 -0.60   
      2   C                0.80  0.00  0.00   -0.00  0.80 -0.00   -0.00 -0.00  0.80   

  ==> Thermochemistry Components <==

  Entropy, S
    Electronic S            0.000 [cal/(mol K)]        0.000 [J/(mol K)]       0.00000000 [mEh/K] (multiplicity = 1)
    Translational S        35.923 [cal/(mol K)]      150.302 [J/(mol K)]       0.05724692 [mEh/K] (mol. weight = 27.9949 [u], P = 101325.00 [Pa])
    Rotational S           11.343 [cal/(mol K)]       47.458 [J/(mol K)]       0.01807582 [mEh/K] (symmetry no. = 1)
    Vibrational S           1.691 [cal/(mol K)]        7.077 [J/(mol K)]       0.00269549 [mEh/K]
  Total S                  48.957 [cal/(mol K)]      204.837 [J/(mol K)]       0.07801824 [mEh/K]
  Correction S              0.000 [cal/(mol K)]        0.000 [J/(mol K)]       0.00000000 [mEh/K]

  Constant volume heat capacity, Cv
    Electronic Cv           0.000 [cal/(mol K)]        0.000 [J/(mol K)]       0.00000000 [mEh/K]
    Translational Cv        2.981 [cal/(mol K)]       12.472 [J/(mol K)]       0.00475022 [mEh/K]
    Rotational Cv           1.987 [cal/(mol K)]        8.314 [J/(mol K)]       0.00316681 [mEh/K]
    Vibrational Cv          2.800 [cal/(mol K)]       11.716 [J/(mol K)]       0.00446227 [mEh/K]
  Total Cv                  7.768 [cal/(mol K)]       32.502 [J/(mol K)]       0.01237930 [mEh/K]
  Correction Cv             0.000 [cal/(mol K)]        0.000 [J/(mol K)]       0.00000000 [mEh/K]

  Constant pressure heat capacity, Cp
    Electronic Cp           0.000 [cal/(mol K)]        0.000 [J/(mol K)]       0.00000000 [mEh/K]
    Translational Cp        4.968 [cal/(mol K)]       20.786 [J/(mol K)]       0.00791703 [mEh/K]
    Rotational Cp           1.987 [cal/(mol K)]        8.314 [J/(mol K)]       0.00316681 [mEh/K]
    Vibrational Cp          2.800 [cal/(mol K)]       11.716 [J/(mol K)]       0.00446227 [mEh/K]
  Total Cp                  9.755 [cal/(mol K)]       40.816 [J/(mol K)]       0.01554611 [mEh/K]
  Correction Cp             0.000 [cal/(mol K)]        0.000 [J/(mol K)]       0.00000000 [mEh/K]

  ==> Thermochemistry Energy Analysis <==

  Raw electronic energy, E0
  Total E0, Electronic energy at well bottom at 0 [K]                 -112.77835098 [Eh]

  Zero-point energy, ZPE_vib = Sum_i nu_i / 2
    Electronic ZPE          0.000 [kcal/mol]        0.000 [kJ/mol]       0.00000000 [Eh]
    Translational ZPE       0.000 [kcal/mol]        0.000 [kJ/mol]       0.00000000 [Eh]
    Rotational ZPE          0.000 [kcal/mol]        0.000 [kJ/mol]       0.00000000 [Eh]
    Vibrational ZPE         4.229 [kcal/mol]       17.694 [kJ/mol]       0.00673940 [Eh]        1479.127 [cm^-1]
  Correction ZPE            4.229 [kcal/mol]       17.694 [kJ/mol]       0.00673940 [Eh]        1479.127 [cm^-1]
  Total ZPE, Electronic energy at 0 [K]                               -112.77161158 [Eh]

  Thermal Energy, E (includes ZPE)
    Electronic E            0.000 [kcal/mol]        0.000 [kJ/mol]       0.00000000 [Eh]
    Translational E         0.889 [kcal/mol]        3.718 [kJ/mol]       0.00141628 [Eh]
    Rotational E            0.592 [kcal/mol]        2.479 [kJ/mol]       0.00094418 [Eh]
    Vibrational E           4.578 [kcal/mol]       19.153 [kJ/mol]       0.00729502 [Eh]
  Correction E              6.059 [kcal/mol]       25.350 [kJ/mol]       0.00965548 [Eh]
  Total E, Electronic energy at  298.15 [K]                           -112.76869550 [Eh]

  Enthalpy, H_trans = E_trans + k_B * T
    Electronic H            0.000 [kcal/mol]        0.000 [kJ/mol]       0.00000000 [Eh]
    Translational H         1.481 [kcal/mol]        6.197 [kJ/mol]       0.00236046 [Eh]
    Rotational H            0.592 [kcal/mol]        2.479 [kJ/mol]       0.00094418 [Eh]
    Vibrational H           4.578 [kcal/mol]       19.153 [kJ/mol]       0.00729502 [Eh]
  Correction H              6.651 [kcal/mol]       27.829 [kJ/mol]       0.01059966 [Eh]
  Total H, Enthalpy at  298.15 [K]                                    -112.76775132 [Eh]

  Gibbs free energy, G = H - T * S
    Electronic G            0.000 [kcal/mol]        0.000 [kJ/mol]       0.00000000 [Eh]
    Translational G        -9.229 [kcal/mol]      -38.615 [kJ/mol]      -0.01470771 [Eh]
    Rotational G           -2.789 [kcal/mol]      -11.671 [kJ/mol]      -0.00444512 [Eh]
    Vibrational G           4.073 [kcal/mol]       17.043 [kJ/mol]       0.00649136 [Eh]
  Correction G             -7.945 [kcal/mol]      -33.243 [kJ/mol]      -0.01266148 [Eh]
  Total G, Free enthalpy at  298.15 [K]                               -112.79101246 [Eh]

    Psi4 stopped on: Tuesday, 19 April 2022 12:29AM
    Psi4 wall time for execution: 0:05:08.09

*** Psi4 exiting successfully. Buy a developer a beer!
