
    -----------------------------------------------------------------------
          Psi4: An Open-Source Ab Initio Electronic Structure Package
                               Psi4 1.3.2 release

                         Git: Rev {HEAD} ecbda83 


    R. M. Parrish, L. A. Burns, D. G. A. Smith, A. C. Simmonett,
    A. E. DePrince III, E. G. Hohenstein, U. Bozkaya, A. Yu. Sokolov,
    R. Di Remigio, R. M. Richard, J. F. Gonthier, A. M. James,
    H. R. McAlexander, A. Kumar, M. Saitow, X. Wang, B. P. Pritchard,
    P. Verma, H. F. Schaefer III, K. Patkowski, R. A. King, E. F. Valeev,
    F. A. Evangelista, J. M. Turney, T. D. Crawford, and C. D. Sherrill,
    J. Chem. Theory Comput. 13(7) pp 3185--3197 (2017).
    (doi: 10.1021/acs.jctc.7b00174)


                         Additional Contributions by
    P. Kraus, H. Kruse, M. H. Lechner, M. C. Schieber, R. A. Shaw,
    A. Alenaizan, R. Galvelis, Z. L. Glick, S. Lehtola, and J. P. Misiewicz

    -----------------------------------------------------------------------


    Psi4 started on: Tuesday, 19 April 2022 10:36PM

    Process ID: 10312
    Host:       atlantis
    PSIDATADIR: /home/akrom/software/anaconda3/envs/ffpenv/share/psi4
    Memory:     500.0 MiB
    Threads:    1
    
  ==> Input File <==

--------------------------------------------------------------------------
set basis  cc-pVDZ
molecule {
0 1
   C       -1.22151       -0.69325        0.00000
   C       -1.21114        0.71122        0.00000
   C       -0.01037       -1.40452        0.00000
   C        0.01037        1.40452        0.00000
   C        1.21114       -0.71122        0.00000
   C        1.22151        0.69325        0.00000
   H       -2.17311       -1.23332        0.00000
   H       -2.15464        1.26533        0.00000
   H       -0.01848       -2.49865        0.00000
   H        0.01848        2.49865        0.00000
   H        2.15464       -1.26533        0.00000
   H        2.17311        1.23332        0.00000
}
energy('MP2')
frequencies('MP2')
--------------------------------------------------------------------------
    SCF Algorithm Type (re)set to DF.

*** tstart() called on atlantis
*** at Tue Apr 19 22:36:53 2022

   => Loading Basis Set <=

    Name: CC-PVDZ
    Role: ORBITAL
    Keyword: BASIS
    atoms 1-6  entry C          line   138 file /home/akrom/software/anaconda3/envs/ffpenv/share/psi4/basis/cc-pvdz.gbs 
    atoms 7-12 entry H          line    22 file /home/akrom/software/anaconda3/envs/ffpenv/share/psi4/basis/cc-pvdz.gbs 


         ---------------------------------------------------------
                                   SCF
               by Justin Turney, Rob Parrish, Andy Simmonett
                          and Daniel G. A. Smith
                              RHF Reference
                        1 Threads,    500 MiB Core
         ---------------------------------------------------------

  ==> Geometry <==

    Molecular point group: c2h
    Full point group: C2h

    Geometry (in Angstrom), charge = 0, multiplicity = 1:

       Center              X                  Y                   Z               Mass       
    ------------   -----------------  -----------------  -----------------  -----------------
         C           -1.221510000000    -0.693250000000     0.000000000000    12.000000000000
         C           -1.211140000000     0.711220000000     0.000000000000    12.000000000000
         C           -0.010370000000    -1.404520000000     0.000000000000    12.000000000000
         C            0.010370000000     1.404520000000     0.000000000000    12.000000000000
         C            1.211140000000    -0.711220000000     0.000000000000    12.000000000000
         C            1.221510000000     0.693250000000     0.000000000000    12.000000000000
         H           -2.173110000000    -1.233320000000     0.000000000000     1.007825032230
         H           -2.154640000000     1.265330000000     0.000000000000     1.007825032230
         H           -0.018480000000    -2.498650000000     0.000000000000     1.007825032230
         H            0.018480000000     2.498650000000     0.000000000000     1.007825032230
         H            2.154640000000    -1.265330000000     0.000000000000     1.007825032230
         H            2.173110000000     1.233320000000     0.000000000000     1.007825032230

  Running in c2h symmetry.

  Rotational constants: A =      0.18753  B =      0.18752  C =      0.09376 [cm^-1]
  Rotational constants: A =   5621.92707  B =   5621.82252  C =   2810.93740 [MHz]
  Nuclear repulsion =  202.013308935380167

  Charge       = 0
  Multiplicity = 1
  Electrons    = 42
  Nalpha       = 21
  Nbeta        = 21

  ==> Algorithm <==

  SCF Algorithm Type is DF.
  DIIS enabled.
  MOM disabled.
  Fractional occupation disabled.
  Guess Type is SAD.
  Energy threshold   = 1.00e-08
  Density threshold  = 1.00e-08
  Integral threshold = 0.00e+00

  ==> Primary Basis <==

  Basis Set: CC-PVDZ
    Blend: CC-PVDZ
    Number of shells: 54
    Number of basis function: 114
    Number of Cartesian functions: 120
    Spherical Harmonics?: true
    Max angular momentum: 2

   => Loading Basis Set <=

    Name: (CC-PVDZ AUX)
    Role: JKFIT
    Keyword: DF_BASIS_SCF
    atoms 1-6  entry C          line   121 file /home/akrom/software/anaconda3/envs/ffpenv/share/psi4/basis/cc-pvdz-jkfit.gbs 
    atoms 7-12 entry H          line    51 file /home/akrom/software/anaconda3/envs/ffpenv/share/psi4/basis/cc-pvdz-jkfit.gbs 

  ==> Pre-Iterations <==

   -------------------------------------------------------
    Irrep   Nso     Nmo     Nalpha   Nbeta   Ndocc  Nsocc
   -------------------------------------------------------
     Ag        42      42       0       0       0       0
     Bg        15      15       0       0       0       0
     Au        15      15       0       0       0       0
     Bu        42      42       0       0       0       0
   -------------------------------------------------------
    Total     114     114      21      21      21       0
   -------------------------------------------------------

  ==> Integral Setup <==

  DFHelper Memory: AOs need 0.058 GiB; user supplied 0.366 GiB. Using in-core AOs.

  ==> MemDFJK: Density-Fitted J/K Matrices <==

    J tasked:                   Yes
    K tasked:                   Yes
    wK tasked:                   No
    OpenMP threads:               1
    Memory [MiB]:               375
    Algorithm:                 Core
    Schwarz Cutoff:           1E-12
    Mask sparsity (%):       0.4155
    Fitting Condition:        1E-10

   => Auxiliary Basis Set <=

  Basis Set: (CC-PVDZ AUX)
    Blend: CC-PVDZ-JKFIT
    Number of shells: 198
    Number of basis function: 558
    Number of Cartesian functions: 636
    Spherical Harmonics?: true
    Max angular momentum: 3

  Minimum eigenvalue in the overlap matrix is 3.8592942748E-04.
  Using Symmetric Orthogonalization.

  SCF Guess: Superposition of Atomic Densities via on-the-fly atomic UHF.

  ==> Iterations <==

                           Total Energy        Delta E     RMS |[F,P]|

   @DF-RHF iter SAD:  -229.98594078835319   -2.29986e+02   0.00000e+00 
   @DF-RHF iter   1:  -230.61217427106658   -6.26233e-01   6.13073e-03 DIIS
   @DF-RHF iter   2:  -230.70355241962449   -9.13781e-02   2.66341e-03 DIIS
   @DF-RHF iter   3:  -230.71865105596328   -1.50986e-02   5.60194e-04 DIIS
   @DF-RHF iter   4:  -230.71975217400723   -1.10112e-03   4.92967e-05 DIIS
   @DF-RHF iter   5:  -230.71976274617811   -1.05722e-05   9.26680e-06 DIIS
   @DF-RHF iter   6:  -230.71976311822363   -3.72046e-07   1.03347e-06 DIIS
   @DF-RHF iter   7:  -230.71976312257186   -4.34824e-09   1.08790e-07 DIIS
   @DF-RHF iter   8:  -230.71976312262063   -4.87717e-11   1.71926e-08 DIIS
   @DF-RHF iter   9:  -230.71976312262154   -9.09495e-13   7.30939e-09 DIIS
  Energy and wave function converged.


  ==> Post-Iterations <==

    Orbital Energies [Eh]
    ---------------------

    Doubly Occupied:                                                      

       1Ag   -11.243665     1Bu   -11.243139     2Bu   -11.243137  
       2Ag   -11.241999     3Ag   -11.241997     3Bu   -11.241443  
       4Ag    -1.142311     4Bu    -1.009105     5Bu    -1.009098  
       5Ag    -0.818429     6Ag    -0.818416     7Ag    -0.700123  
       6Bu    -0.639747     7Bu    -0.611624     8Bu    -0.581657  
       9Bu    -0.581654     1Au    -0.495306     8Ag    -0.489802  
       9Ag    -0.489772     1Bg    -0.332165     2Bg    -0.332155  

    Virtual:                                                              

       2Au     0.134564     3Au     0.134579    10Ag     0.181057  
      10Bu     0.219271    11Bu     0.219271    11Ag     0.254143  
      12Ag     0.254144    12Bu     0.270138     3Bg     0.345599  
      13Ag     0.433422    14Ag     0.433431    13Bu     0.464119  
      14Bu     0.464140    15Ag     0.585444    15Bu     0.586717  
      16Bu     0.662180     4Au     0.681919    16Ag     0.712635  
       4Bg     0.733687     5Bg     0.733693    17Ag     0.735208  
      18Ag     0.735223    17Bu     0.736042    18Bu     0.736050  
      19Ag     0.736401     5Au     0.822354     6Au     0.822361  
      19Bu     0.851274    20Bu     0.851287    20Ag     0.882447  
      21Ag     0.882455     6Bg     0.907337    21Bu     0.979666  
      22Ag     0.996416     7Au     1.050851    22Bu     1.102117  
      23Bu     1.102137    23Ag     1.116060     7Bg     1.148539  
      24Ag     1.202876    25Ag     1.202880    24Bu     1.238373  
      25Bu     1.238383     8Bg     1.241008     9Bg     1.241019  
      26Bu     1.300041     8Au     1.313262     9Au     1.313272  
      26Ag     1.468369    27Ag     1.508446    28Ag     1.508458  
      27Bu     1.716145    10Au     1.736654    11Au     1.736662  
      10Bg     1.760240    29Ag     1.801157    30Ag     1.862668  
      31Ag     1.862671    28Bu     1.879231    29Bu     1.879249  
      12Au     1.895049    11Bg     1.948017    12Bg     1.948047  
      30Bu     1.954557    31Bu     1.954582    32Bu     1.956343  
      13Bg     2.079878    14Bg     2.079890    33Bu     2.107080  
      34Bu     2.138244    35Bu     2.138253    32Ag     2.150208  
      33Ag     2.150255    34Ag     2.163573    13Au     2.254439  
      14Au     2.254455    35Ag     2.265973    36Ag     2.265978  
      36Bu     2.313249    15Au     2.486099    15Bg     2.543135  
      37Ag     2.684740    38Ag     2.737813    39Ag     2.737849  
      37Bu     2.761040    38Bu     2.761048    39Bu     2.933585  
      40Bu     2.933634    41Bu     2.992871    40Ag     3.105396  
      41Ag     3.237399    42Ag     3.237412    42Bu     3.976508  

    Final Occupation by Irrep:
             Ag    Bg    Au    Bu 
    DOCC [     9,    2,    1,    9 ]

  @DF-RHF Final Energy:  -230.71976312262154

   => Energetics <=

    Nuclear Repulsion Energy =            202.0133089353801665
    One-Electron Energy =                -710.4526580585933289
    Two-Electron Energy =                 277.7195860005916188
    Total Energy =                       -230.7197631226215435

Computation Completed


Properties will be evaluated at   0.000000,   0.000000,   0.000000 [a0]

Properties computed using the SCF density matrix

  Nuclear Dipole Moment: [e a0]
     X:    -0.0000      Y:    -0.0000      Z:     0.0000

  Electronic Dipole Moment: [e a0]
     X:     0.0000      Y:     0.0000      Z:     0.0000

  Dipole Moment: [e a0]
     X:    -0.0000      Y:    -0.0000      Z:     0.0000     Total:     0.0000

  Dipole Moment: [D]
     X:    -0.0000      Y:    -0.0000      Z:     0.0000     Total:     0.0000


*** tstop() called on atlantis at Tue Apr 19 22:36:55 2022
Module time:
	user time   =       1.45 seconds =       0.02 minutes
	system time =       0.03 seconds =       0.00 minutes
	total time  =          2 seconds =       0.03 minutes
Total time:
	user time   =       1.45 seconds =       0.02 minutes
	system time =       0.03 seconds =       0.00 minutes
	total time  =          2 seconds =       0.03 minutes

*** tstart() called on atlantis
*** at Tue Apr 19 22:36:55 2022


  //>>>>>>>>>>>>>>>>>>>>>>>>>>>>>>>>>>>//
  //               DFMP2               //
  //<<<<<<<<<<<<<<<<<<<<<<<<<<<<<<<<<<<//

   => Loading Basis Set <=

    Name: (CC-PVDZ AUX)
    Role: RIFIT
    Keyword: DF_BASIS_MP2
    atoms 1-6  entry C          line   159 file /home/akrom/software/anaconda3/envs/ffpenv/share/psi4/basis/cc-pvdz-ri.gbs 
    atoms 7-12 entry H          line    19 file /home/akrom/software/anaconda3/envs/ffpenv/share/psi4/basis/cc-pvdz-ri.gbs 

	 --------------------------------------------------------
	                          DF-MP2                         
	      2nd-Order Density-Fitted Moller-Plesset Theory     
	              RMP2 Wavefunction,   1 Threads             
	                                                         
	        Rob Parrish, Justin Turney, Andy Simmonett,      
	           Ed Hohenstein, and C. David Sherrill          
	 --------------------------------------------------------

   => Auxiliary Basis Set <=

  Basis Set: (CC-PVDZ AUX)
    Blend: CC-PVDZ-RI
    Number of shells: 144
    Number of basis function: 420
    Number of Cartesian functions: 486
    Spherical Harmonics?: true
    Max angular momentum: 3

	 --------------------------------------------------------
	                 NBF =   114, NAUX =   420
	 --------------------------------------------------------
	   CLASS    FOCC     OCC    AOCC    AVIR     VIR    FVIR
	   PAIRS       0      21      21      93      93       0
	 --------------------------------------------------------

	-----------------------------------------------------------
	 ==================> DF-MP2 Energies <==================== 
	-----------------------------------------------------------
	 Reference Energy          =    -230.7197631226215435 [Eh]
	 Singles Energy            =      -0.0000000000000000 [Eh]
	 Same-Spin Energy          =      -0.2107922831018831 [Eh]
	 Opposite-Spin Energy      =      -0.5902903571708102 [Eh]
	 Correlation Energy        =      -0.8010826402726933 [Eh]
	 Total Energy              =    -231.5208457628942256 [Eh]
	-----------------------------------------------------------
	 ================> DF-SCS-MP2 Energies <================== 
	-----------------------------------------------------------
	 SCS Same-Spin Scale       =       0.3333333333333333 [-]
	 SCS Opposite-Spin Scale   =       1.2000000000000000 [-]
	 SCS Same-Spin Energy      =      -0.0702640943672943 [Eh]
	 SCS Opposite-Spin Energy  =      -0.7083484286049723 [Eh]
	 SCS Correlation Energy    =      -0.7786125229722666 [Eh]
	 SCS Total Energy          =    -231.4983756455937964 [Eh]
	-----------------------------------------------------------


*** tstop() called on atlantis at Tue Apr 19 22:36:55 2022
Module time:
	user time   =       0.44 seconds =       0.01 minutes
	system time =       0.02 seconds =       0.00 minutes
	total time  =          0 seconds =       0.00 minutes
Total time:
	user time   =       1.89 seconds =       0.03 minutes
	system time =       0.05 seconds =       0.00 minutes
	total time  =          2 seconds =       0.03 minutes
gradient() will perform analytic gradient computation.
    SCF Algorithm Type (re)set to DF.

*** tstart() called on atlantis
*** at Tue Apr 19 22:36:55 2022

   => Loading Basis Set <=

    Name: CC-PVDZ
    Role: ORBITAL
    Keyword: BASIS
    atoms 1-6  entry C          line   138 file /home/akrom/software/anaconda3/envs/ffpenv/share/psi4/basis/cc-pvdz.gbs 
    atoms 7-12 entry H          line    22 file /home/akrom/software/anaconda3/envs/ffpenv/share/psi4/basis/cc-pvdz.gbs 


         ---------------------------------------------------------
                                   SCF
               by Justin Turney, Rob Parrish, Andy Simmonett
                          and Daniel G. A. Smith
                              RHF Reference
                        1 Threads,    500 MiB Core
         ---------------------------------------------------------

  ==> Geometry <==

    Molecular point group: c2h
    Full point group: C2h

    Geometry (in Angstrom), charge = 0, multiplicity = 1:

       Center              X                  Y                   Z               Mass       
    ------------   -----------------  -----------------  -----------------  -----------------
         C           -1.221510000000    -0.693250000000     0.000000000000    12.000000000000
         C           -1.211140000000     0.711220000000     0.000000000000    12.000000000000
         C           -0.010370000000    -1.404520000000     0.000000000000    12.000000000000
         C            0.010370000000     1.404520000000     0.000000000000    12.000000000000
         C            1.211140000000    -0.711220000000     0.000000000000    12.000000000000
         C            1.221510000000     0.693250000000     0.000000000000    12.000000000000
         H           -2.173110000000    -1.233320000000     0.000000000000     1.007825032230
         H           -2.154640000000     1.265330000000     0.000000000000     1.007825032230
         H           -0.018480000000    -2.498650000000     0.000000000000     1.007825032230
         H            0.018480000000     2.498650000000     0.000000000000     1.007825032230
         H            2.154640000000    -1.265330000000     0.000000000000     1.007825032230
         H            2.173110000000     1.233320000000     0.000000000000     1.007825032230

  Running in c2h symmetry.

  Rotational constants: A =      0.18753  B =      0.18752  C =      0.09376 [cm^-1]
  Rotational constants: A =   5621.92707  B =   5621.82252  C =   2810.93740 [MHz]
  Nuclear repulsion =  202.013308935380167

  Charge       = 0
  Multiplicity = 1
  Electrons    = 42
  Nalpha       = 21
  Nbeta        = 21

  ==> Algorithm <==

  SCF Algorithm Type is DF.
  DIIS enabled.
  MOM disabled.
  Fractional occupation disabled.
  Guess Type is SAD.
  Energy threshold   = 1.00e-10
  Density threshold  = 1.00e-10
  Integral threshold = 0.00e+00

  ==> Primary Basis <==

  Basis Set: CC-PVDZ
    Blend: CC-PVDZ
    Number of shells: 54
    Number of basis function: 114
    Number of Cartesian functions: 120
    Spherical Harmonics?: true
    Max angular momentum: 2

   => Loading Basis Set <=

    Name: (CC-PVDZ AUX)
    Role: JKFIT
    Keyword: DF_BASIS_SCF
    atoms 1-6  entry C          line   121 file /home/akrom/software/anaconda3/envs/ffpenv/share/psi4/basis/cc-pvdz-jkfit.gbs 
    atoms 7-12 entry H          line    51 file /home/akrom/software/anaconda3/envs/ffpenv/share/psi4/basis/cc-pvdz-jkfit.gbs 

  ==> Pre-Iterations <==

   -------------------------------------------------------
    Irrep   Nso     Nmo     Nalpha   Nbeta   Ndocc  Nsocc
   -------------------------------------------------------
     Ag        42      42       0       0       0       0
     Bg        15      15       0       0       0       0
     Au        15      15       0       0       0       0
     Bu        42      42       0       0       0       0
   -------------------------------------------------------
    Total     114     114      21      21      21       0
   -------------------------------------------------------

  ==> Integral Setup <==

  DFHelper Memory: AOs need 0.058 GiB; user supplied 0.366 GiB. Using in-core AOs.

  ==> MemDFJK: Density-Fitted J/K Matrices <==

    J tasked:                   Yes
    K tasked:                   Yes
    wK tasked:                   No
    OpenMP threads:               1
    Memory [MiB]:               375
    Algorithm:                 Core
    Schwarz Cutoff:           1E-12
    Mask sparsity (%):       0.4155
    Fitting Condition:        1E-10

   => Auxiliary Basis Set <=

  Basis Set: (CC-PVDZ AUX)
    Blend: CC-PVDZ-JKFIT
    Number of shells: 198
    Number of basis function: 558
    Number of Cartesian functions: 636
    Spherical Harmonics?: true
    Max angular momentum: 3

  Minimum eigenvalue in the overlap matrix is 3.8592942748E-04.
  Using Symmetric Orthogonalization.

  SCF Guess: Superposition of Atomic Densities via on-the-fly atomic UHF.

  ==> Iterations <==

                           Total Energy        Delta E     RMS |[F,P]|

   @DF-RHF iter SAD:  -229.98594078827585   -2.29986e+02   0.00000e+00 
   @DF-RHF iter   1:  -230.61217427099143   -6.26233e-01   6.13073e-03 DIIS
   @DF-RHF iter   2:  -230.70355241954954   -9.13781e-02   2.66341e-03 DIIS
   @DF-RHF iter   3:  -230.71865105588839   -1.50986e-02   5.60194e-04 DIIS
   @DF-RHF iter   4:  -230.71975217393299   -1.10112e-03   4.92967e-05 DIIS
   @DF-RHF iter   5:  -230.71976274610316   -1.05722e-05   9.26680e-06 DIIS
   @DF-RHF iter   6:  -230.71976311814851   -3.72045e-07   1.03347e-06 DIIS
   @DF-RHF iter   7:  -230.71976312249652   -4.34801e-09   1.08790e-07 DIIS
   @DF-RHF iter   8:  -230.71976312254606   -4.95390e-11   1.71926e-08 DIIS
   @DF-RHF iter   9:  -230.71976312254642   -3.69482e-13   7.30939e-09 DIIS
   @DF-RHF iter  10:  -230.71976312254660   -1.70530e-13   9.21985e-10 DIIS
   @DF-RHF iter  11:  -230.71976312254682   -2.27374e-13   9.74550e-11 DIIS
  Energy and wave function converged.


  ==> Post-Iterations <==

    Orbital Energies [Eh]
    ---------------------

    Doubly Occupied:                                                      

       1Ag   -11.243665     1Bu   -11.243139     2Bu   -11.243137  
       2Ag   -11.241999     3Ag   -11.241997     3Bu   -11.241443  
       4Ag    -1.142311     4Bu    -1.009105     5Bu    -1.009098  
       5Ag    -0.818429     6Ag    -0.818416     7Ag    -0.700123  
       6Bu    -0.639747     7Bu    -0.611624     8Bu    -0.581657  
       9Bu    -0.581654     1Au    -0.495306     8Ag    -0.489802  
       9Ag    -0.489772     1Bg    -0.332165     2Bg    -0.332155  

    Virtual:                                                              

       2Au     0.134564     3Au     0.134579    10Ag     0.181057  
      10Bu     0.219271    11Bu     0.219271    11Ag     0.254143  
      12Ag     0.254144    12Bu     0.270138     3Bg     0.345599  
      13Ag     0.433422    14Ag     0.433431    13Bu     0.464119  
      14Bu     0.464140    15Ag     0.585444    15Bu     0.586717  
      16Bu     0.662180     4Au     0.681919    16Ag     0.712635  
       4Bg     0.733687     5Bg     0.733693    17Ag     0.735208  
      18Ag     0.735223    17Bu     0.736042    18Bu     0.736050  
      19Ag     0.736401     5Au     0.822354     6Au     0.822361  
      19Bu     0.851274    20Bu     0.851287    20Ag     0.882447  
      21Ag     0.882455     6Bg     0.907337    21Bu     0.979666  
      22Ag     0.996416     7Au     1.050851    22Bu     1.102117  
      23Bu     1.102137    23Ag     1.116060     7Bg     1.148539  
      24Ag     1.202876    25Ag     1.202880    24Bu     1.238373  
      25Bu     1.238383     8Bg     1.241008     9Bg     1.241019  
      26Bu     1.300041     8Au     1.313262     9Au     1.313272  
      26Ag     1.468369    27Ag     1.508446    28Ag     1.508458  
      27Bu     1.716145    10Au     1.736654    11Au     1.736662  
      10Bg     1.760240    29Ag     1.801157    30Ag     1.862668  
      31Ag     1.862671    28Bu     1.879231    29Bu     1.879249  
      12Au     1.895049    11Bg     1.948017    12Bg     1.948047  
      30Bu     1.954557    31Bu     1.954582    32Bu     1.956343  
      13Bg     2.079878    14Bg     2.079890    33Bu     2.107080  
      34Bu     2.138244    35Bu     2.138253    32Ag     2.150208  
      33Ag     2.150255    34Ag     2.163573    13Au     2.254439  
      14Au     2.254455    35Ag     2.265973    36Ag     2.265978  
      36Bu     2.313249    15Au     2.486099    15Bg     2.543135  
      37Ag     2.684740    38Ag     2.737813    39Ag     2.737849  
      37Bu     2.761040    38Bu     2.761048    39Bu     2.933585  
      40Bu     2.933634    41Bu     2.992871    40Ag     3.105396  
      41Ag     3.237399    42Ag     3.237412    42Bu     3.976508  

    Final Occupation by Irrep:
             Ag    Bg    Au    Bu 
    DOCC [     9,    2,    1,    9 ]

  @DF-RHF Final Energy:  -230.71976312254682

   => Energetics <=

    Nuclear Repulsion Energy =            202.0133089353801665
    One-Electron Energy =                -710.4526577768006064
    Two-Electron Energy =                 277.7195857188736454
    Total Energy =                       -230.7197631225467944

Computation Completed


Properties will be evaluated at   0.000000,   0.000000,   0.000000 [a0]

Properties computed using the SCF density matrix

  Nuclear Dipole Moment: [e a0]
     X:    -0.0000      Y:    -0.0000      Z:     0.0000

  Electronic Dipole Moment: [e a0]
     X:     0.0000      Y:     0.0000      Z:     0.0000

  Dipole Moment: [e a0]
     X:    -0.0000      Y:    -0.0000      Z:     0.0000     Total:     0.0000

  Dipole Moment: [D]
     X:    -0.0000      Y:    -0.0000      Z:     0.0000     Total:     0.0000


*** tstop() called on atlantis at Tue Apr 19 22:36:57 2022
Module time:
	user time   =       1.52 seconds =       0.03 minutes
	system time =       0.01 seconds =       0.00 minutes
	total time  =          2 seconds =       0.03 minutes
Total time:
	user time   =       3.42 seconds =       0.06 minutes
	system time =       0.06 seconds =       0.00 minutes
	total time  =          4 seconds =       0.07 minutes

*** tstart() called on atlantis
*** at Tue Apr 19 22:36:57 2022


  //>>>>>>>>>>>>>>>>>>>>>>>>>>>>>>>>>>>//
  //               DFMP2               //
  //<<<<<<<<<<<<<<<<<<<<<<<<<<<<<<<<<<<//

   => Loading Basis Set <=

    Name: (CC-PVDZ AUX)
    Role: RIFIT
    Keyword: DF_BASIS_MP2
    atoms 1-6  entry C          line   159 file /home/akrom/software/anaconda3/envs/ffpenv/share/psi4/basis/cc-pvdz-ri.gbs 
    atoms 7-12 entry H          line    19 file /home/akrom/software/anaconda3/envs/ffpenv/share/psi4/basis/cc-pvdz-ri.gbs 

	 --------------------------------------------------------
	                          DF-MP2                         
	      2nd-Order Density-Fitted Moller-Plesset Theory     
	              RMP2 Wavefunction,   1 Threads             
	                                                         
	        Rob Parrish, Justin Turney, Andy Simmonett,      
	           Ed Hohenstein, and C. David Sherrill          
	 --------------------------------------------------------

   => Auxiliary Basis Set <=

  Basis Set: (CC-PVDZ AUX)
    Blend: CC-PVDZ-RI
    Number of shells: 144
    Number of basis function: 420
    Number of Cartesian functions: 486
    Spherical Harmonics?: true
    Max angular momentum: 3

	 --------------------------------------------------------
	                 NBF =   114, NAUX =   420
	 --------------------------------------------------------
	   CLASS    FOCC     OCC    AOCC    AVIR     VIR    FVIR
	   PAIRS       0      21      21      93      93       0
	 --------------------------------------------------------

  DFHelper Memory: AOs need 0.058 GiB; user supplied 0.366 GiB. Using in-core AOs.


         ------------------------------------------------------------
                                     CPHF                           
                                  Rob Parrish                       
         ------------------------------------------------------------

  ==> Geometry <==

    Molecular point group: c2h
    Full point group: C2h

    Geometry (in Angstrom), charge = 0, multiplicity = 1:

       Center              X                  Y                   Z               Mass       
    ------------   -----------------  -----------------  -----------------  -----------------
         C           -1.221510000000    -0.693250000000     0.000000000000    12.000000000000
         C           -1.211140000000     0.711220000000     0.000000000000    12.000000000000
         C           -0.010370000000    -1.404520000000     0.000000000000    12.000000000000
         C            0.010370000000     1.404520000000     0.000000000000    12.000000000000
         C            1.211140000000    -0.711220000000     0.000000000000    12.000000000000
         C            1.221510000000     0.693250000000     0.000000000000    12.000000000000
         H           -2.173110000000    -1.233320000000     0.000000000000     1.007825032230
         H           -2.154640000000     1.265330000000     0.000000000000     1.007825032230
         H           -0.018480000000    -2.498650000000     0.000000000000     1.007825032230
         H            0.018480000000     2.498650000000     0.000000000000     1.007825032230
         H            2.154640000000    -1.265330000000     0.000000000000     1.007825032230
         H            2.173110000000     1.233320000000     0.000000000000     1.007825032230

  Nuclear repulsion =  202.013308935380167
  Reference energy  = -230.719763122546823

  ==> Basis Set <==

  Basis Set: CC-PVDZ
    Blend: CC-PVDZ
    Number of shells: 54
    Number of basis function: 114
    Number of Cartesian functions: 120
    Spherical Harmonics?: true
    Max angular momentum: 2

  ==> CGRSolver (by Rob Parrish) <==

   Number of roots    =         1
   Preconditioning    =    JACOBI
   Convergence cutoff =     1E-06
   Maximum iterations =       100

  ==> CPHFRHamiltonian (by Rob Parrish) <== 

  ==> MemDFJK: Density-Fitted J/K Matrices <==

    J tasked:                   Yes
    K tasked:                   Yes
    wK tasked:                   No
    OpenMP threads:               1
    Memory [MiB]:               375
    Algorithm:                 Core
    Schwarz Cutoff:           1E-12
    Mask sparsity (%):       0.4155
    Fitting Condition:        1E-10

   => Auxiliary Basis Set <=

  Basis Set: (CC-PVDZ AUX)
    Blend: CC-PVDZ-JKFIT
    Number of shells: 198
    Number of basis function: 558
    Number of Cartesian functions: 636
    Spherical Harmonics?: true
    Max angular momentum: 3

  ==> CPHF Iterations <==

  => Iterations <=

             Iter  Converged  Remaining    Residual
  CGR           1          0          1   7.886E-02
  CGR           2          0          1   1.017E-02
  CGR           3          0          1   1.762E-03
  CGR           4          0          1   2.430E-04
  CGR           5          0          1   2.251E-05
  CGR           6          0          1   3.097E-06
  CGR           7          1          0   3.950E-07

    CGRSolver converged.

  ==> DFCorrGrad: Density-Fitted Correlated Gradients <==

    OpenMP threads:              1
    Integrals threads:           1
    Memory [GiB]:            0.366
    Schwarz Cutoff:          0E+00
    Fitting Condition:       1E-10

   => Auxiliary Basis Set <=

  Basis Set: (CC-PVDZ AUX)
    Blend: CC-PVDZ-JKFIT
    Number of shells: 198
    Number of basis function: 558
    Number of Cartesian functions: 636
    Spherical Harmonics?: true
    Max angular momentum: 3

	-----------------------------------------------------------
	 ==================> DF-MP2 Energies <==================== 
	-----------------------------------------------------------
	 Reference Energy          =    -230.7197631225468228 [Eh]
	 Singles Energy            =      -0.0000000000000000 [Eh]
	 Same-Spin Energy          =      -0.2107922858364283 [Eh]
	 Opposite-Spin Energy      =      -0.5902903658762283 [Eh]
	 Correlation Energy        =      -0.8010826517126566 [Eh]
	 Total Energy              =    -231.5208457742594703 [Eh]
	-----------------------------------------------------------
	 ================> DF-SCS-MP2 Energies <================== 
	-----------------------------------------------------------
	 SCS Same-Spin Scale       =       0.3333333333333333 [-]
	 SCS Opposite-Spin Scale   =       1.2000000000000000 [-]
	 SCS Same-Spin Energy      =      -0.0702640952788094 [Eh]
	 SCS Opposite-Spin Energy  =      -0.7083484390514739 [Eh]
	 SCS Correlation Energy    =      -0.7786125343302833 [Eh]
	 SCS Total Energy          =    -231.4983756568771014 [Eh]
	-----------------------------------------------------------


  -Total Gradient:
     Atom            X                  Y                   Z
    ------   -----------------  -----------------  -----------------
       1       -0.000002514458     0.000032409182     0.000000000000
       2       -0.000002564847    -0.000039895830     0.000000000000
       3        0.000008026003    -0.000030132880     0.000000000000
       4       -0.000008026003     0.000030132880     0.000000000000
       5        0.000002564847     0.000039895830     0.000000000000
       6        0.000002514458    -0.000032409182     0.000000000000
       7       -0.000024013762    -0.000014190178     0.000000000000
       8       -0.000024409624     0.000021120541     0.000000000000
       9       -0.000002947121    -0.000019865983     0.000000000000
      10        0.000002947121     0.000019865983     0.000000000000
      11        0.000024409624    -0.000021120541     0.000000000000
      12        0.000024013762     0.000014190178     0.000000000000


*** tstop() called on atlantis at Tue Apr 19 22:37:02 2022
Module time:
	user time   =       5.37 seconds =       0.09 minutes
	system time =       0.17 seconds =       0.00 minutes
	total time  =          5 seconds =       0.08 minutes
Total time:
	user time   =       8.79 seconds =       0.15 minutes
	system time =       0.23 seconds =       0.00 minutes
	total time  =          9 seconds =       0.15 minutes

  Based on options and gradient (rms=1.80E-05), recommend projecting translations and projecting rotations.
hessian() will perform frequency computation by finite difference of analytic gradients.

         ----------------------------------------------------------
                                   FINDIF
                     R. A. King and Jonathon Misiewicz
         ---------------------------------------------------------

  Using finite-differences of gradients to determine vibrational frequencies and 
  normal modes.  Resulting frequencies are only valid at stationary points.
    Generating geometries for use with 3-point formula.
    Displacement size will be 5.00e-03.
    Number of atoms is 12.
    Number of irreps is 4.
    Number of SALCs is 30.
    Translations projected? 1. Rotations projected? 1.
    Index of SALCs per irrep:
     1 :  0  1  2  3  4  5  6  7  8  9  10 
     2 :  11  12  13  14 
     3 :  15  16  17  18  19 
     4 :  20  21  22  23  24  25  26  27  28  29 
    Number of SALCs per irrep:
     Irrep 1: 11
     Irrep 2: 4
     Irrep 3: 5
     Irrep 4: 10
    Number of geometries (including reference) is 42.
    Number of displacements per irrep:
      Irrep 1: 22
      Irrep 2: 4
      Irrep 3: 5
      Irrep 4: 10

  //>>>>>>>>>>>>>>>>>>>>>>>>>>>>>>>>>>>//
  //    Loading displacement 1 of 42   //
  //<<<<<<<<<<<<<<<<<<<<<<<<<<<<<<<<<<<//
gradient() will perform analytic gradient computation.
    SCF Algorithm Type (re)set to DF.

*** tstart() called on atlantis
*** at Tue Apr 19 22:37:03 2022

   => Loading Basis Set <=

    Name: CC-PVDZ
    Role: ORBITAL
    Keyword: BASIS
    atoms 1-6  entry C          line   138 file /home/akrom/software/anaconda3/envs/ffpenv/share/psi4/basis/cc-pvdz.gbs 
    atoms 7-12 entry H          line    22 file /home/akrom/software/anaconda3/envs/ffpenv/share/psi4/basis/cc-pvdz.gbs 


         ---------------------------------------------------------
                                   SCF
               by Justin Turney, Rob Parrish, Andy Simmonett
                          and Daniel G. A. Smith
                              RHF Reference
                        1 Threads,    500 MiB Core
         ---------------------------------------------------------

  ==> Geometry <==

    Molecular point group: c2h
    Full point group: C2h

    Geometry (in Angstrom), charge = 0, multiplicity = 1:

       Center              X                  Y                   Z               Mass       
    ------------   -----------------  -----------------  -----------------  -----------------
         C           -1.221510000000    -0.693250000000     0.000000000000    12.000000000000
         C           -1.211140000000     0.711220000000     0.000000000000    12.000000000000
         C           -0.010370000000    -1.404520000000     0.000000000000    12.000000000000
         C            0.010370000000     1.404520000000     0.000000000000    12.000000000000
         C            1.211140000000    -0.711220000000     0.000000000000    12.000000000000
         C            1.221510000000     0.693250000000     0.000000000000    12.000000000000
         H           -2.173110000000    -1.233320000000     0.000000000000     1.007825032230
         H           -2.154640000000     1.265330000000     0.000000000000     1.007825032230
         H           -0.018480000000    -2.498650000000     0.000000000000     1.007825032230
         H            0.018480000000     2.498650000000     0.000000000000     1.007825032230
         H            2.154640000000    -1.265330000000     0.000000000000     1.007825032230
         H            2.173110000000     1.233320000000     0.000000000000     1.007825032230

  Running in c2h symmetry.

  Rotational constants: A =      0.18753  B =      0.18752  C =      0.09376 [cm^-1]
  Rotational constants: A =   5621.92707  B =   5621.82252  C =   2810.93740 [MHz]
  Nuclear repulsion =  202.013308935380167

  Charge       = 0
  Multiplicity = 1
  Electrons    = 42
  Nalpha       = 21
  Nbeta        = 21

  ==> Algorithm <==

  SCF Algorithm Type is DF.
  DIIS enabled.
  MOM disabled.
  Fractional occupation disabled.
  Guess Type is SAD.
  Energy threshold   = 1.00e-10
  Density threshold  = 1.00e-10
  Integral threshold = 0.00e+00

  ==> Primary Basis <==

  Basis Set: CC-PVDZ
    Blend: CC-PVDZ
    Number of shells: 54
    Number of basis function: 114
    Number of Cartesian functions: 120
    Spherical Harmonics?: true
    Max angular momentum: 2

   => Loading Basis Set <=

    Name: (CC-PVDZ AUX)
    Role: JKFIT
    Keyword: DF_BASIS_SCF
    atoms 1-6  entry C          line   121 file /home/akrom/software/anaconda3/envs/ffpenv/share/psi4/basis/cc-pvdz-jkfit.gbs 
    atoms 7-12 entry H          line    51 file /home/akrom/software/anaconda3/envs/ffpenv/share/psi4/basis/cc-pvdz-jkfit.gbs 

  ==> Pre-Iterations <==

   -------------------------------------------------------
    Irrep   Nso     Nmo     Nalpha   Nbeta   Ndocc  Nsocc
   -------------------------------------------------------
     Ag        42      42       0       0       0       0
     Bg        15      15       0       0       0       0
     Au        15      15       0       0       0       0
     Bu        42      42       0       0       0       0
   -------------------------------------------------------
    Total     114     114      21      21      21       0
   -------------------------------------------------------

  ==> Integral Setup <==

  DFHelper Memory: AOs need 0.058 GiB; user supplied 0.366 GiB. Using in-core AOs.

  ==> MemDFJK: Density-Fitted J/K Matrices <==

    J tasked:                   Yes
    K tasked:                   Yes
    wK tasked:                   No
    OpenMP threads:               1
    Memory [MiB]:               375
    Algorithm:                 Core
    Schwarz Cutoff:           1E-12
    Mask sparsity (%):       0.4155
    Fitting Condition:        1E-10

   => Auxiliary Basis Set <=

  Basis Set: (CC-PVDZ AUX)
    Blend: CC-PVDZ-JKFIT
    Number of shells: 198
    Number of basis function: 558
    Number of Cartesian functions: 636
    Spherical Harmonics?: true
    Max angular momentum: 3

  Minimum eigenvalue in the overlap matrix is 3.8592942748E-04.
  Using Symmetric Orthogonalization.

  SCF Guess: Superposition of Atomic Densities via on-the-fly atomic UHF.

  ==> Iterations <==

                           Total Energy        Delta E     RMS |[F,P]|

   @DF-RHF iter SAD:  -229.98594078827909   -2.29986e+02   0.00000e+00 
   @DF-RHF iter   1:  -230.61217427099371   -6.26233e-01   6.13073e-03 DIIS
   @DF-RHF iter   2:  -230.70355241955144   -9.13781e-02   2.66341e-03 DIIS
   @DF-RHF iter   3:  -230.71865105588995   -1.50986e-02   5.60194e-04 DIIS
   @DF-RHF iter   4:  -230.71975217393395   -1.10112e-03   4.92967e-05 DIIS
   @DF-RHF iter   5:  -230.71976274610444   -1.05722e-05   9.26680e-06 DIIS
   @DF-RHF iter   6:  -230.71976311814984   -3.72045e-07   1.03347e-06 DIIS
   @DF-RHF iter   7:  -230.71976312249799   -4.34815e-09   1.08790e-07 DIIS
   @DF-RHF iter   8:  -230.71976312254685   -4.88569e-11   1.71926e-08 DIIS
   @DF-RHF iter   9:  -230.71976312254822   -1.36424e-12   7.30939e-09 DIIS
   @DF-RHF iter  10:  -230.71976312254779    4.26326e-13   9.21985e-10 DIIS
   @DF-RHF iter  11:  -230.71976312254782   -2.84217e-14   9.74545e-11 DIIS
  Energy and wave function converged.


  ==> Post-Iterations <==

    Orbital Energies [Eh]
    ---------------------

    Doubly Occupied:                                                      

       1Ag   -11.243665     1Bu   -11.243139     2Bu   -11.243137  
       2Ag   -11.241999     3Ag   -11.241997     3Bu   -11.241443  
       4Ag    -1.142311     4Bu    -1.009105     5Bu    -1.009098  
       5Ag    -0.818429     6Ag    -0.818416     7Ag    -0.700123  
       6Bu    -0.639747     7Bu    -0.611624     8Bu    -0.581657  
       9Bu    -0.581654     1Au    -0.495306     8Ag    -0.489802  
       9Ag    -0.489772     1Bg    -0.332165     2Bg    -0.332155  

    Virtual:                                                              

       2Au     0.134564     3Au     0.134579    10Ag     0.181057  
      10Bu     0.219271    11Bu     0.219271    11Ag     0.254143  
      12Ag     0.254144    12Bu     0.270138     3Bg     0.345599  
      13Ag     0.433422    14Ag     0.433431    13Bu     0.464119  
      14Bu     0.464140    15Ag     0.585444    15Bu     0.586717  
      16Bu     0.662180     4Au     0.681919    16Ag     0.712635  
       4Bg     0.733687     5Bg     0.733693    17Ag     0.735208  
      18Ag     0.735223    17Bu     0.736042    18Bu     0.736050  
      19Ag     0.736401     5Au     0.822354     6Au     0.822361  
      19Bu     0.851274    20Bu     0.851287    20Ag     0.882447  
      21Ag     0.882455     6Bg     0.907337    21Bu     0.979666  
      22Ag     0.996416     7Au     1.050851    22Bu     1.102117  
      23Bu     1.102137    23Ag     1.116060     7Bg     1.148539  
      24Ag     1.202876    25Ag     1.202880    24Bu     1.238373  
      25Bu     1.238383     8Bg     1.241008     9Bg     1.241019  
      26Bu     1.300041     8Au     1.313262     9Au     1.313272  
      26Ag     1.468369    27Ag     1.508446    28Ag     1.508458  
      27Bu     1.716145    10Au     1.736654    11Au     1.736662  
      10Bg     1.760240    29Ag     1.801157    30Ag     1.862668  
      31Ag     1.862671    28Bu     1.879231    29Bu     1.879249  
      12Au     1.895049    11Bg     1.948017    12Bg     1.948047  
      30Bu     1.954557    31Bu     1.954582    32Bu     1.956343  
      13Bg     2.079878    14Bg     2.079890    33Bu     2.107080  
      34Bu     2.138244    35Bu     2.138253    32Ag     2.150208  
      33Ag     2.150255    34Ag     2.163573    13Au     2.254439  
      14Au     2.254455    35Ag     2.265973    36Ag     2.265978  
      36Bu     2.313249    15Au     2.486099    15Bg     2.543135  
      37Ag     2.684740    38Ag     2.737813    39Ag     2.737849  
      37Bu     2.761040    38Bu     2.761048    39Bu     2.933585  
      40Bu     2.933634    41Bu     2.992871    40Ag     3.105396  
      41Ag     3.237399    42Ag     3.237412    42Bu     3.976508  

    Final Occupation by Irrep:
             Ag    Bg    Au    Bu 
    DOCC [     9,    2,    1,    9 ]

  @DF-RHF Final Energy:  -230.71976312254782

   => Energetics <=

    Nuclear Repulsion Energy =            202.0133089353801665
    One-Electron Energy =                -710.4526577767549043
    Two-Electron Energy =                 277.7195857188269201
    Total Energy =                       -230.7197631225478176

Computation Completed


Properties will be evaluated at   0.000000,   0.000000,   0.000000 [a0]

Properties computed using the SCF density matrix

  Nuclear Dipole Moment: [e a0]
     X:    -0.0000      Y:    -0.0000      Z:     0.0000

  Electronic Dipole Moment: [e a0]
     X:     0.0000      Y:     0.0000      Z:     0.0000

  Dipole Moment: [e a0]
     X:    -0.0000      Y:    -0.0000      Z:     0.0000     Total:     0.0000

  Dipole Moment: [D]
     X:    -0.0000      Y:    -0.0000      Z:     0.0000     Total:     0.0000


*** tstop() called on atlantis at Tue Apr 19 22:37:04 2022
Module time:
	user time   =       1.52 seconds =       0.03 minutes
	system time =       0.01 seconds =       0.00 minutes
	total time  =          1 seconds =       0.02 minutes
Total time:
	user time   =      10.58 seconds =       0.18 minutes
	system time =       0.26 seconds =       0.00 minutes
	total time  =         11 seconds =       0.18 minutes

*** tstart() called on atlantis
*** at Tue Apr 19 22:37:04 2022


  //>>>>>>>>>>>>>>>>>>>>>>>>>>>>>>>>>>>//
  //               DFMP2               //
  //<<<<<<<<<<<<<<<<<<<<<<<<<<<<<<<<<<<//

   => Loading Basis Set <=

    Name: (CC-PVDZ AUX)
    Role: RIFIT
    Keyword: DF_BASIS_MP2
    atoms 1-6  entry C          line   159 file /home/akrom/software/anaconda3/envs/ffpenv/share/psi4/basis/cc-pvdz-ri.gbs 
    atoms 7-12 entry H          line    19 file /home/akrom/software/anaconda3/envs/ffpenv/share/psi4/basis/cc-pvdz-ri.gbs 

	 --------------------------------------------------------
	                          DF-MP2                         
	      2nd-Order Density-Fitted Moller-Plesset Theory     
	              RMP2 Wavefunction,   1 Threads             
	                                                         
	        Rob Parrish, Justin Turney, Andy Simmonett,      
	           Ed Hohenstein, and C. David Sherrill          
	 --------------------------------------------------------

   => Auxiliary Basis Set <=

  Basis Set: (CC-PVDZ AUX)
    Blend: CC-PVDZ-RI
    Number of shells: 144
    Number of basis function: 420
    Number of Cartesian functions: 486
    Spherical Harmonics?: true
    Max angular momentum: 3

	 --------------------------------------------------------
	                 NBF =   114, NAUX =   420
	 --------------------------------------------------------
	   CLASS    FOCC     OCC    AOCC    AVIR     VIR    FVIR
	   PAIRS       0      21      21      93      93       0
	 --------------------------------------------------------

  DFHelper Memory: AOs need 0.058 GiB; user supplied 0.366 GiB. Using in-core AOs.


         ------------------------------------------------------------
                                     CPHF                           
                                  Rob Parrish                       
         ------------------------------------------------------------

  ==> Geometry <==

    Molecular point group: c2h
    Full point group: C2h

    Geometry (in Angstrom), charge = 0, multiplicity = 1:

       Center              X                  Y                   Z               Mass       
    ------------   -----------------  -----------------  -----------------  -----------------
         C           -1.221510000000    -0.693250000000     0.000000000000    12.000000000000
         C           -1.211140000000     0.711220000000     0.000000000000    12.000000000000
         C           -0.010370000000    -1.404520000000     0.000000000000    12.000000000000
         C            0.010370000000     1.404520000000     0.000000000000    12.000000000000
         C            1.211140000000    -0.711220000000     0.000000000000    12.000000000000
         C            1.221510000000     0.693250000000     0.000000000000    12.000000000000
         H           -2.173110000000    -1.233320000000     0.000000000000     1.007825032230
         H           -2.154640000000     1.265330000000     0.000000000000     1.007825032230
         H           -0.018480000000    -2.498650000000     0.000000000000     1.007825032230
         H            0.018480000000     2.498650000000     0.000000000000     1.007825032230
         H            2.154640000000    -1.265330000000     0.000000000000     1.007825032230
         H            2.173110000000     1.233320000000     0.000000000000     1.007825032230

  Nuclear repulsion =  202.013308935380167
  Reference energy  = -230.719763122547818

  ==> Basis Set <==

  Basis Set: CC-PVDZ
    Blend: CC-PVDZ
    Number of shells: 54
    Number of basis function: 114
    Number of Cartesian functions: 120
    Spherical Harmonics?: true
    Max angular momentum: 2

  ==> CGRSolver (by Rob Parrish) <==

   Number of roots    =         1
   Preconditioning    =    JACOBI
   Convergence cutoff =     1E-06
   Maximum iterations =       100

  ==> CPHFRHamiltonian (by Rob Parrish) <== 

  ==> MemDFJK: Density-Fitted J/K Matrices <==

    J tasked:                   Yes
    K tasked:                   Yes
    wK tasked:                   No
    OpenMP threads:               1
    Memory [MiB]:               375
    Algorithm:                 Core
    Schwarz Cutoff:           1E-12
    Mask sparsity (%):       0.4155
    Fitting Condition:        1E-10

   => Auxiliary Basis Set <=

  Basis Set: (CC-PVDZ AUX)
    Blend: CC-PVDZ-JKFIT
    Number of shells: 198
    Number of basis function: 558
    Number of Cartesian functions: 636
    Spherical Harmonics?: true
    Max angular momentum: 3

  ==> CPHF Iterations <==

  => Iterations <=

             Iter  Converged  Remaining    Residual
  CGR           1          0          1   7.886E-02
  CGR           2          0          1   1.017E-02
  CGR           3          0          1   1.762E-03
  CGR           4          0          1   2.430E-04
  CGR           5          0          1   2.251E-05
  CGR           6          0          1   3.097E-06
  CGR           7          1          0   3.950E-07

    CGRSolver converged.

  ==> DFCorrGrad: Density-Fitted Correlated Gradients <==

    OpenMP threads:              1
    Integrals threads:           1
    Memory [GiB]:            0.366
    Schwarz Cutoff:          0E+00
    Fitting Condition:       1E-10

   => Auxiliary Basis Set <=

  Basis Set: (CC-PVDZ AUX)
    Blend: CC-PVDZ-JKFIT
    Number of shells: 198
    Number of basis function: 558
    Number of Cartesian functions: 636
    Spherical Harmonics?: true
    Max angular momentum: 3

	-----------------------------------------------------------
	 ==================> DF-MP2 Energies <==================== 
	-----------------------------------------------------------
	 Reference Energy          =    -230.7197631225478176 [Eh]
	 Singles Energy            =      -0.0000000000000000 [Eh]
	 Same-Spin Energy          =      -0.2107922858364579 [Eh]
	 Opposite-Spin Energy      =      -0.5902903658764532 [Eh]
	 Correlation Energy        =      -0.8010826517129110 [Eh]
	 Total Energy              =    -231.5208457742607209 [Eh]
	-----------------------------------------------------------
	 ================> DF-SCS-MP2 Energies <================== 
	-----------------------------------------------------------
	 SCS Same-Spin Scale       =       0.3333333333333333 [-]
	 SCS Opposite-Spin Scale   =       1.2000000000000000 [-]
	 SCS Same-Spin Energy      =      -0.0702640952788193 [Eh]
	 SCS Opposite-Spin Energy  =      -0.7083484390517438 [Eh]
	 SCS Correlation Energy    =      -0.7786125343305631 [Eh]
	 SCS Total Energy          =    -231.4983756568783804 [Eh]
	-----------------------------------------------------------


  -Total Gradient:
     Atom            X                  Y                   Z
    ------   -----------------  -----------------  -----------------
       1       -0.000002514707     0.000032409195     0.000000000000
       2       -0.000002564607    -0.000039896892     0.000000000000
       3        0.000008025326    -0.000030133446     0.000000000000
       4       -0.000008025326     0.000030133446     0.000000000000
       5        0.000002564607     0.000039896892     0.000000000000
       6        0.000002514707    -0.000032409195     0.000000000000
       7       -0.000024015249    -0.000014190983     0.000000000000
       8       -0.000024412016     0.000021121971     0.000000000000
       9       -0.000002947070    -0.000019867781     0.000000000000
      10        0.000002947070     0.000019867781     0.000000000000
      11        0.000024412016    -0.000021121971     0.000000000000
      12        0.000024015249     0.000014190983     0.000000000000


*** tstop() called on atlantis at Tue Apr 19 22:37:10 2022
Module time:
	user time   =       5.37 seconds =       0.09 minutes
	system time =       0.19 seconds =       0.00 minutes
	total time  =          6 seconds =       0.10 minutes
Total time:
	user time   =      15.95 seconds =       0.27 minutes
	system time =       0.45 seconds =       0.01 minutes
	total time  =         17 seconds =       0.28 minutes

  //>>>>>>>>>>>>>>>>>>>>>>>>>>>>>>>>>>>//
  //    Loading displacement 2 of 42   //
  //<<<<<<<<<<<<<<<<<<<<<<<<<<<<<<<<<<<//
gradient() will perform analytic gradient computation.
    SCF Algorithm Type (re)set to DF.

*** tstart() called on atlantis
*** at Tue Apr 19 22:37:10 2022

   => Loading Basis Set <=

    Name: CC-PVDZ
    Role: ORBITAL
    Keyword: BASIS
    atoms 1-6  entry C          line   138 file /home/akrom/software/anaconda3/envs/ffpenv/share/psi4/basis/cc-pvdz.gbs 
    atoms 7-12 entry H          line    22 file /home/akrom/software/anaconda3/envs/ffpenv/share/psi4/basis/cc-pvdz.gbs 


         ---------------------------------------------------------
                                   SCF
               by Justin Turney, Rob Parrish, Andy Simmonett
                          and Daniel G. A. Smith
                              RHF Reference
                        1 Threads,    500 MiB Core
         ---------------------------------------------------------

  ==> Geometry <==

    Molecular point group: c2h
    Full point group: C2h

    Geometry (in Angstrom), charge = 0, multiplicity = 1:

       Center              X                  Y                   Z               Mass       
    ------------   -----------------  -----------------  -----------------  -----------------
         C           -1.222032477591    -0.693313109608     0.000000000000    12.000000000000
         C           -1.211176745353     0.711157426160     0.000000000000    12.000000000000
         C           -0.010297435136    -1.404520535769     0.000000000000    12.000000000000
         C            0.010297435136     1.404520535769     0.000000000000    12.000000000000
         C            1.211176745353    -0.711157426160     0.000000000000    12.000000000000
         C            1.222032477591     0.693313109608     0.000000000000    12.000000000000
         H           -2.173046280225    -1.233432274252     0.000000000000     1.007825032230
         H           -2.154705373579     1.265218680005     0.000000000000     1.007825032230
         H           -0.018350906646    -2.498650954774     0.000000000000     1.007825032230
         H            0.018350906646     2.498650954774     0.000000000000     1.007825032230
         H            2.154705373579    -1.265218680005     0.000000000000     1.007825032230
         H            2.173046280225     1.233432274252     0.000000000000     1.007825032230

  Running in c2h symmetry.

  Rotational constants: A =      0.18753  B =      0.18745  C =      0.09375 [cm^-1]
  Rotational constants: A =   5621.97670  B =   5619.72613  C =   2810.42560 [MHz]
  Nuclear repulsion =  201.998047561272216

  Charge       = 0
  Multiplicity = 1
  Electrons    = 42
  Nalpha       = 21
  Nbeta        = 21

  ==> Algorithm <==

  SCF Algorithm Type is DF.
  DIIS enabled.
  MOM disabled.
  Fractional occupation disabled.
  Guess Type is SAD.
  Energy threshold   = 1.00e-10
  Density threshold  = 1.00e-10
  Integral threshold = 0.00e+00

  ==> Primary Basis <==

  Basis Set: CC-PVDZ
    Blend: CC-PVDZ
    Number of shells: 54
    Number of basis function: 114
    Number of Cartesian functions: 120
    Spherical Harmonics?: true
    Max angular momentum: 2

   => Loading Basis Set <=

    Name: (CC-PVDZ AUX)
    Role: JKFIT
    Keyword: DF_BASIS_SCF
    atoms 1-6  entry C          line   121 file /home/akrom/software/anaconda3/envs/ffpenv/share/psi4/basis/cc-pvdz-jkfit.gbs 
    atoms 7-12 entry H          line    51 file /home/akrom/software/anaconda3/envs/ffpenv/share/psi4/basis/cc-pvdz-jkfit.gbs 

  ==> Pre-Iterations <==

   -------------------------------------------------------
    Irrep   Nso     Nmo     Nalpha   Nbeta   Ndocc  Nsocc
   -------------------------------------------------------
     Ag        42      42       0       0       0       0
     Bg        15      15       0       0       0       0
     Au        15      15       0       0       0       0
     Bu        42      42       0       0       0       0
   -------------------------------------------------------
    Total     114     114      21      21      21       0
   -------------------------------------------------------

  ==> Integral Setup <==

  DFHelper Memory: AOs need 0.058 GiB; user supplied 0.366 GiB. Using in-core AOs.

  ==> MemDFJK: Density-Fitted J/K Matrices <==

    J tasked:                   Yes
    K tasked:                   Yes
    wK tasked:                   No
    OpenMP threads:               1
    Memory [MiB]:               375
    Algorithm:                 Core
    Schwarz Cutoff:           1E-12
    Mask sparsity (%):       0.4155
    Fitting Condition:        1E-10

   => Auxiliary Basis Set <=

  Basis Set: (CC-PVDZ AUX)
    Blend: CC-PVDZ-JKFIT
    Number of shells: 198
    Number of basis function: 558
    Number of Cartesian functions: 636
    Spherical Harmonics?: true
    Max angular momentum: 3

  Minimum eigenvalue in the overlap matrix is 3.8629145329E-04.
  Using Symmetric Orthogonalization.

  SCF Guess: Superposition of Atomic Densities via on-the-fly atomic UHF.

  ==> Iterations <==

                           Total Energy        Delta E     RMS |[F,P]|

   @DF-RHF iter SAD:  -229.98470471153516   -2.29985e+02   0.00000e+00 
   @DF-RHF iter   1:  -230.61222411119161   -6.27519e-01   6.12835e-03 DIIS
   @DF-RHF iter   2:  -230.70355877559729   -9.13347e-02   2.66133e-03 DIIS
   @DF-RHF iter   3:  -230.71863584477512   -1.50771e-02   5.60125e-04 DIIS
   @DF-RHF iter   4:  -230.71973662606104   -1.10078e-03   4.92828e-05 DIIS
   @DF-RHF iter   5:  -230.71974719273931   -1.05667e-05   9.26551e-06 DIIS
   @DF-RHF iter   6:  -230.71974756448444   -3.71745e-07   1.04591e-06 DIIS
   @DF-RHF iter   7:  -230.71974756884583   -4.36140e-09   1.75750e-07 DIIS
   @DF-RHF iter   8:  -230.71974756892320   -7.73639e-11   6.70710e-08 DIIS
   @DF-RHF iter   9:  -230.71974756893403   -1.08287e-11   6.77172e-09 DIIS
   @DF-RHF iter  10:  -230.71974756893439   -3.69482e-13   8.68713e-10 DIIS
   @DF-RHF iter  11:  -230.71974756893459   -1.98952e-13   9.99909e-11 DIIS
  Energy and wave function converged.


  ==> Post-Iterations <==

    Orbital Energies [Eh]
    ---------------------

    Doubly Occupied:                                                      

       1Ag   -11.243689     1Bu   -11.243175     2Bu   -11.243149  
       2Ag   -11.242038     3Ag   -11.242008     3Bu   -11.241468  
       4Ag    -1.142212     4Bu    -1.009134     5Bu    -1.008990  
       5Ag    -0.818519     6Ag    -0.818337     7Ag    -0.700122  
       6Bu    -0.639858     7Bu    -0.611553     8Bu    -0.581760  
       9Bu    -0.581586     1Au    -0.495231     8Ag    -0.489983  
       9Ag    -0.489646     1Bg    -0.332197     2Bg    -0.332051  

    Virtual:                                                              

       2Au     0.134446     3Au     0.134623    10Ag     0.181093  
      10Bu     0.219277    11Bu     0.219292    11Ag     0.254133  
      12Ag     0.254137    12Bu     0.270141     3Bg     0.345517  
      13Ag     0.433329    14Ag     0.433439    13Bu     0.463965  
      14Bu     0.464179    15Ag     0.585463    15Bu     0.586766  
      16Bu     0.662127     4Au     0.681954    16Ag     0.712657  
       4Bg     0.733696     5Bg     0.733772    17Ag     0.735084  
      18Ag     0.735288    17Bu     0.735994    18Bu     0.736136  
      19Ag     0.736296     5Au     0.822324     6Au     0.822402  
      19Bu     0.851244    20Bu     0.851425    20Ag     0.882403  
      21Ag     0.882559     6Bg     0.907312    21Bu     0.979539  
      22Ag     0.996430     7Au     1.050900    22Bu     1.101949  
      23Bu     1.102169    23Ag     1.115905     7Bg     1.148489  
      24Ag     1.202810    25Ag     1.202826    24Bu     1.238253  
      25Bu     1.238346     8Bg     1.240886     9Bg     1.241037  
      26Bu     1.299986     8Au     1.313122     9Au     1.313233  
      26Ag     1.468516    27Ag     1.508440    28Ag     1.508529  
      27Bu     1.716041    10Au     1.736529    11Au     1.736687  
      10Bg     1.760199    29Ag     1.801092    30Ag     1.862526  
      31Ag     1.862566    28Bu     1.879108    29Bu     1.879272  
      12Au     1.895170    11Bg     1.947929    12Bg     1.948286  
      30Bu     1.954445    31Bu     1.954590    32Bu     1.956228  
      13Bg     2.079654    14Bg     2.079865    33Bu     2.107148  
      34Bu     2.138003    35Bu     2.138198    32Ag     2.149832  
      33Ag     2.150342    34Ag     2.163517    13Au     2.254370  
      14Au     2.254612    35Ag     2.265958    36Ag     2.266199  
      36Bu     2.313444    15Au     2.485849    15Bg     2.543146  
      37Ag     2.685126    38Ag     2.737516    39Ag     2.737866  
      37Bu     2.761084    38Bu     2.761466    39Bu     2.933343  
      40Bu     2.933715    41Bu     2.992782    40Ag     3.105378  
      41Ag     3.237187    42Ag     3.237602    42Bu     3.976276  

    Final Occupation by Irrep:
             Ag    Bg    Au    Bu 
    DOCC [     9,    2,    1,    9 ]

  @DF-RHF Final Energy:  -230.71974756893459

   => Energetics <=

    Nuclear Repulsion Energy =            201.9980475612722159
    One-Electron Energy =                -710.4221786717795339
    Two-Electron Energy =                 277.7043835415727244
    Total Energy =                       -230.7197475689346220

Computation Completed


Properties will be evaluated at   0.000000,   0.000000,   0.000000 [a0]

Properties computed using the SCF density matrix

  Nuclear Dipole Moment: [e a0]
     X:     0.0000      Y:     0.0000      Z:     0.0000

  Electronic Dipole Moment: [e a0]
     X:     0.0000      Y:     0.0000      Z:     0.0000

  Dipole Moment: [e a0]
     X:     0.0000      Y:     0.0000      Z:     0.0000     Total:     0.0000

  Dipole Moment: [D]
     X:     0.0000      Y:     0.0000      Z:     0.0000     Total:     0.0000


*** tstop() called on atlantis at Tue Apr 19 22:37:11 2022
Module time:
	user time   =       1.52 seconds =       0.03 minutes
	system time =       0.02 seconds =       0.00 minutes
	total time  =          1 seconds =       0.02 minutes
Total time:
	user time   =      17.48 seconds =       0.29 minutes
	system time =       0.47 seconds =       0.01 minutes
	total time  =         18 seconds =       0.30 minutes

*** tstart() called on atlantis
*** at Tue Apr 19 22:37:11 2022


  //>>>>>>>>>>>>>>>>>>>>>>>>>>>>>>>>>>>//
  //               DFMP2               //
  //<<<<<<<<<<<<<<<<<<<<<<<<<<<<<<<<<<<//

   => Loading Basis Set <=

    Name: (CC-PVDZ AUX)
    Role: RIFIT
    Keyword: DF_BASIS_MP2
    atoms 1-6  entry C          line   159 file /home/akrom/software/anaconda3/envs/ffpenv/share/psi4/basis/cc-pvdz-ri.gbs 
    atoms 7-12 entry H          line    19 file /home/akrom/software/anaconda3/envs/ffpenv/share/psi4/basis/cc-pvdz-ri.gbs 

	 --------------------------------------------------------
	                          DF-MP2                         
	      2nd-Order Density-Fitted Moller-Plesset Theory     
	              RMP2 Wavefunction,   1 Threads             
	                                                         
	        Rob Parrish, Justin Turney, Andy Simmonett,      
	           Ed Hohenstein, and C. David Sherrill          
	 --------------------------------------------------------

   => Auxiliary Basis Set <=

  Basis Set: (CC-PVDZ AUX)
    Blend: CC-PVDZ-RI
    Number of shells: 144
    Number of basis function: 420
    Number of Cartesian functions: 486
    Spherical Harmonics?: true
    Max angular momentum: 3

	 --------------------------------------------------------
	                 NBF =   114, NAUX =   420
	 --------------------------------------------------------
	   CLASS    FOCC     OCC    AOCC    AVIR     VIR    FVIR
	   PAIRS       0      21      21      93      93       0
	 --------------------------------------------------------

  DFHelper Memory: AOs need 0.058 GiB; user supplied 0.366 GiB. Using in-core AOs.


         ------------------------------------------------------------
                                     CPHF                           
                                  Rob Parrish                       
         ------------------------------------------------------------

  ==> Geometry <==

    Molecular point group: c2h
    Full point group: C2h

    Geometry (in Angstrom), charge = 0, multiplicity = 1:

       Center              X                  Y                   Z               Mass       
    ------------   -----------------  -----------------  -----------------  -----------------
         C           -1.222032477591    -0.693313109608     0.000000000000    12.000000000000
         C           -1.211176745353     0.711157426160     0.000000000000    12.000000000000
         C           -0.010297435136    -1.404520535769     0.000000000000    12.000000000000
         C            0.010297435136     1.404520535769     0.000000000000    12.000000000000
         C            1.211176745353    -0.711157426160     0.000000000000    12.000000000000
         C            1.222032477591     0.693313109608     0.000000000000    12.000000000000
         H           -2.173046280225    -1.233432274252     0.000000000000     1.007825032230
         H           -2.154705373579     1.265218680005     0.000000000000     1.007825032230
         H           -0.018350906646    -2.498650954774     0.000000000000     1.007825032230
         H            0.018350906646     2.498650954774     0.000000000000     1.007825032230
         H            2.154705373579    -1.265218680005     0.000000000000     1.007825032230
         H            2.173046280225     1.233432274252     0.000000000000     1.007825032230

  Nuclear repulsion =  201.998047561272216
  Reference energy  = -230.719747568934594

  ==> Basis Set <==

  Basis Set: CC-PVDZ
    Blend: CC-PVDZ
    Number of shells: 54
    Number of basis function: 114
    Number of Cartesian functions: 120
    Spherical Harmonics?: true
    Max angular momentum: 2

  ==> CGRSolver (by Rob Parrish) <==

   Number of roots    =         1
   Preconditioning    =    JACOBI
   Convergence cutoff =     1E-06
   Maximum iterations =       100

  ==> CPHFRHamiltonian (by Rob Parrish) <== 

  ==> MemDFJK: Density-Fitted J/K Matrices <==

    J tasked:                   Yes
    K tasked:                   Yes
    wK tasked:                   No
    OpenMP threads:               1
    Memory [MiB]:               375
    Algorithm:                 Core
    Schwarz Cutoff:           1E-12
    Mask sparsity (%):       0.4155
    Fitting Condition:        1E-10

   => Auxiliary Basis Set <=

  Basis Set: (CC-PVDZ AUX)
    Blend: CC-PVDZ-JKFIT
    Number of shells: 198
    Number of basis function: 558
    Number of Cartesian functions: 636
    Spherical Harmonics?: true
    Max angular momentum: 3

  ==> CPHF Iterations <==

  => Iterations <=

             Iter  Converged  Remaining    Residual
  CGR           1          0          1   7.885E-02
  CGR           2          0          1   1.017E-02
  CGR           3          0          1   1.763E-03
  CGR           4          0          1   2.431E-04
  CGR           5          0          1   2.308E-05
  CGR           6          0          1   5.249E-06
  CGR           7          0          1   1.485E-06
  CGR           8          1          0   1.310E-07

    CGRSolver converged.

  ==> DFCorrGrad: Density-Fitted Correlated Gradients <==

    OpenMP threads:              1
    Integrals threads:           1
    Memory [GiB]:            0.366
    Schwarz Cutoff:          0E+00
    Fitting Condition:       1E-10

   => Auxiliary Basis Set <=

  Basis Set: (CC-PVDZ AUX)
    Blend: CC-PVDZ-JKFIT
    Number of shells: 198
    Number of basis function: 558
    Number of Cartesian functions: 636
    Spherical Harmonics?: true
    Max angular momentum: 3

	-----------------------------------------------------------
	 ==================> DF-MP2 Energies <==================== 
	-----------------------------------------------------------
	 Reference Energy          =    -230.7197475689345936 [Eh]
	 Singles Energy            =      -0.0000000000000000 [Eh]
	 Same-Spin Energy          =      -0.2107945499627002 [Eh]
	 Opposite-Spin Energy      =      -0.5903028146936030 [Eh]
	 Correlation Energy        =      -0.8010973646563032 [Eh]
	 Total Energy              =    -231.5208449335908938 [Eh]
	-----------------------------------------------------------
	 ================> DF-SCS-MP2 Energies <================== 
	-----------------------------------------------------------
	 SCS Same-Spin Scale       =       0.3333333333333333 [-]
	 SCS Opposite-Spin Scale   =       1.2000000000000000 [-]
	 SCS Same-Spin Energy      =      -0.0702648499875667 [Eh]
	 SCS Opposite-Spin Energy  =      -0.7083633776323236 [Eh]
	 SCS Correlation Energy    =      -0.7786282276198904 [Eh]
	 SCS Total Energy          =    -231.4983757965544839 [Eh]
	-----------------------------------------------------------


  -Total Gradient:
     Atom            X                  Y                   Z
    ------   -----------------  -----------------  -----------------
       1       -0.000794533150     0.000029098327     0.000000000000
       2        0.000068381952    -0.000026111373     0.000000000000
       3        0.000351069709    -0.000200877665     0.000000000000
       4       -0.000351069709     0.000200877665     0.000000000000
       5       -0.000068381952     0.000026111373     0.000000000000
       6        0.000794533150    -0.000029098327     0.000000000000
       7        0.000270581617     0.000119717471     0.000000000000
       8       -0.000031059738    -0.000012633589     0.000000000000
       9       -0.000012871743    -0.000017519014    -0.000000000000
      10        0.000012871743     0.000017519014    -0.000000000000
      11        0.000031059738     0.000012633589     0.000000000000
      12       -0.000270581617    -0.000119717471     0.000000000000


*** tstop() called on atlantis at Tue Apr 19 22:37:17 2022
Module time:
	user time   =       5.46 seconds =       0.09 minutes
	system time =       0.17 seconds =       0.00 minutes
	total time  =          6 seconds =       0.10 minutes
Total time:
	user time   =      22.94 seconds =       0.38 minutes
	system time =       0.64 seconds =       0.01 minutes
	total time  =         24 seconds =       0.40 minutes

  //>>>>>>>>>>>>>>>>>>>>>>>>>>>>>>>>>>>//
  //    Loading displacement 3 of 42   //
  //<<<<<<<<<<<<<<<<<<<<<<<<<<<<<<<<<<<//
gradient() will perform analytic gradient computation.
    SCF Algorithm Type (re)set to DF.

*** tstart() called on atlantis
*** at Tue Apr 19 22:37:17 2022

   => Loading Basis Set <=

    Name: CC-PVDZ
    Role: ORBITAL
    Keyword: BASIS
    atoms 1-6  entry C          line   138 file /home/akrom/software/anaconda3/envs/ffpenv/share/psi4/basis/cc-pvdz.gbs 
    atoms 7-12 entry H          line    22 file /home/akrom/software/anaconda3/envs/ffpenv/share/psi4/basis/cc-pvdz.gbs 


         ---------------------------------------------------------
                                   SCF
               by Justin Turney, Rob Parrish, Andy Simmonett
                          and Daniel G. A. Smith
                              RHF Reference
                        1 Threads,    500 MiB Core
         ---------------------------------------------------------

  ==> Geometry <==

    Molecular point group: c2h
    Full point group: C2h

    Geometry (in Angstrom), charge = 0, multiplicity = 1:

       Center              X                  Y                   Z               Mass       
    ------------   -----------------  -----------------  -----------------  -----------------
         C           -1.220987522409    -0.693186890392     0.000000000000    12.000000000000
         C           -1.211103254647     0.711282573840     0.000000000000    12.000000000000
         C           -0.010442564864    -1.404519464231     0.000000000000    12.000000000000
         C            0.010442564864     1.404519464231     0.000000000000    12.000000000000
         C            1.211103254647    -0.711282573840     0.000000000000    12.000000000000
         C            1.220987522409     0.693186890392     0.000000000000    12.000000000000
         H           -2.173173719775    -1.233207725748     0.000000000000     1.007825032230
         H           -2.154574626421     1.265441319995     0.000000000000     1.007825032230
         H           -0.018609093354    -2.498649045226     0.000000000000     1.007825032230
         H            0.018609093354     2.498649045226     0.000000000000     1.007825032230
         H            2.154574626421    -1.265441319995     0.000000000000     1.007825032230
         H            2.173173719775     1.233207725748     0.000000000000     1.007825032230

  Running in c2h symmetry.

  Rotational constants: A =      0.18760  B =      0.18752  C =      0.09378 [cm^-1]
  Rotational constants: A =   5624.12726  B =   5621.66993  C =   2811.44916 [MHz]
  Nuclear repulsion =  202.028576396706484

  Charge       = 0
  Multiplicity = 1
  Electrons    = 42
  Nalpha       = 21
  Nbeta        = 21

  ==> Algorithm <==

  SCF Algorithm Type is DF.
  DIIS enabled.
  MOM disabled.
  Fractional occupation disabled.
  Guess Type is SAD.
  Energy threshold   = 1.00e-10
  Density threshold  = 1.00e-10
  Integral threshold = 0.00e+00

  ==> Primary Basis <==

  Basis Set: CC-PVDZ
    Blend: CC-PVDZ
    Number of shells: 54
    Number of basis function: 114
    Number of Cartesian functions: 120
    Spherical Harmonics?: true
    Max angular momentum: 2

   => Loading Basis Set <=

    Name: (CC-PVDZ AUX)
    Role: JKFIT
    Keyword: DF_BASIS_SCF
    atoms 1-6  entry C          line   121 file /home/akrom/software/anaconda3/envs/ffpenv/share/psi4/basis/cc-pvdz-jkfit.gbs 
    atoms 7-12 entry H          line    51 file /home/akrom/software/anaconda3/envs/ffpenv/share/psi4/basis/cc-pvdz-jkfit.gbs 

  ==> Pre-Iterations <==

   -------------------------------------------------------
    Irrep   Nso     Nmo     Nalpha   Nbeta   Ndocc  Nsocc
   -------------------------------------------------------
     Ag        42      42       0       0       0       0
     Bg        15      15       0       0       0       0
     Au        15      15       0       0       0       0
     Bu        42      42       0       0       0       0
   -------------------------------------------------------
    Total     114     114      21      21      21       0
   -------------------------------------------------------

  ==> Integral Setup <==

  DFHelper Memory: AOs need 0.058 GiB; user supplied 0.366 GiB. Using in-core AOs.

  ==> MemDFJK: Density-Fitted J/K Matrices <==

    J tasked:                   Yes
    K tasked:                   Yes
    wK tasked:                   No
    OpenMP threads:               1
    Memory [MiB]:               375
    Algorithm:                 Core
    Schwarz Cutoff:           1E-12
    Mask sparsity (%):       0.4155
    Fitting Condition:        1E-10

   => Auxiliary Basis Set <=

  Basis Set: (CC-PVDZ AUX)
    Blend: CC-PVDZ-JKFIT
    Number of shells: 198
    Number of basis function: 558
    Number of Cartesian functions: 636
    Spherical Harmonics?: true
    Max angular momentum: 3

  Minimum eigenvalue in the overlap matrix is 3.8556844988E-04.
  Using Symmetric Orthogonalization.

  SCF Guess: Superposition of Atomic Densities via on-the-fly atomic UHF.

  ==> Iterations <==

                           Total Energy        Delta E     RMS |[F,P]|

   @DF-RHF iter SAD:  -229.98717679697347   -2.29987e+02   0.00000e+00 
   @DF-RHF iter   1:  -230.61212250867291   -6.24946e-01   6.13311e-03 DIIS
   @DF-RHF iter   2:  -230.70354421852954   -9.14217e-02   2.66550e-03 DIIS
   @DF-RHF iter   3:  -230.71866449169153   -1.51203e-02   5.60263e-04 DIIS
   @DF-RHF iter   4:  -230.71976594893729   -1.10146e-03   4.93135e-05 DIIS
   @DF-RHF iter   5:  -230.71977652700167   -1.05781e-05   9.27390e-06 DIIS
   @DF-RHF iter   6:  -230.71977689946323   -3.72462e-07   1.04745e-06 DIIS
   @DF-RHF iter   7:  -230.71977690383255   -4.36933e-09   1.78677e-07 DIIS
   @DF-RHF iter   8:  -230.71977690391097   -7.84155e-11   6.72950e-08 DIIS
   @DF-RHF iter   9:  -230.71977690392231   -1.13403e-11   6.77654e-09 DIIS
   @DF-RHF iter  10:  -230.71977690392237   -5.68434e-14   8.69944e-10 DIIS
   @DF-RHF iter  11:  -230.71977690392274   -3.69482e-13   1.00023e-10 DIIS
   @DF-RHF iter  12:  -230.71977690392271    2.84217e-14   1.21727e-11 DIIS
  Energy and wave function converged.


  ==> Post-Iterations <==

    Orbital Energies [Eh]
    ---------------------

    Doubly Occupied:                                                      

       1Ag   -11.243641     1Bu   -11.243125     2Bu   -11.243102  
       2Ag   -11.241986     3Ag   -11.241960     3Bu   -11.241417  
       4Ag    -1.142410     4Bu    -1.009207     5Bu    -1.009076  
       5Ag    -0.818506     6Ag    -0.818328     7Ag    -0.700124  
       6Bu    -0.639637     7Bu    -0.611696     8Bu    -0.581728  
       9Bu    -0.581547     1Au    -0.495381     8Ag    -0.489928  
       9Ag    -0.489592     1Bg    -0.332260     2Bg    -0.332131  

    Virtual:                                                              

       2Au     0.134526     3Au     0.134693    10Ag     0.181020  
      10Bu     0.219250    11Bu     0.219264    11Ag     0.254150  
      12Ag     0.254155    12Bu     0.270135     3Bg     0.345681  
      13Ag     0.433421    14Ag     0.433517    13Bu     0.464086  
      14Bu     0.464287    15Ag     0.585425    15Bu     0.586668  
      16Bu     0.662232     4Au     0.681885    16Ag     0.712611  
       4Bg     0.733611     5Bg     0.733680    17Ag     0.735154  
      18Ag     0.735331    17Bu     0.735960    18Bu     0.736094  
      19Ag     0.736511     5Au     0.822314     6Au     0.822388  
      19Bu     0.851138    20Bu     0.851315    20Ag     0.882351  
      21Ag     0.882492     6Bg     0.907363    21Bu     0.979792  
      22Ag     0.996401     7Au     1.050802    22Bu     1.102086  
      23Bu     1.102302    23Ag     1.116213     7Bg     1.148589  
      24Ag     1.202929    25Ag     1.202949    24Bu     1.238403  
      25Bu     1.238510     8Bg     1.240982     9Bg     1.241148  
      26Bu     1.300097     8Au     1.313296     9Au     1.313418  
      26Ag     1.468219    27Ag     1.508370    28Ag     1.508470  
      27Bu     1.716248    10Au     1.736623    11Au     1.736794  
      10Bg     1.760282    29Ag     1.801221    30Ag     1.862774  
      31Ag     1.862811    28Bu     1.879192    29Bu     1.879386  
      12Au     1.894929    11Bg     1.947782    12Bg     1.948131  
[...]
      5   C                0.20  0.04  0.00   -0.00  0.00  0.30   -0.00  0.00 -0.03   
      6   C                0.24 -0.01 -0.00    0.00  0.00 -0.30    0.00  0.00 -0.03   
      7   H               -0.08 -0.27 -0.00   -0.00 -0.00  0.28   -0.00  0.00  0.41   
      8   H               -0.02  0.26  0.00    0.00 -0.00 -0.28    0.00  0.00  0.41   
      9   H                0.02  0.35 -0.00    0.00 -0.00 -0.28    0.00  0.00  0.41   
     10   H               -0.02 -0.35  0.00   -0.00  0.00  0.28   -0.00 -0.00  0.41   
     11   H                0.02 -0.26  0.00   -0.00  0.00  0.28   -0.00 -0.00  0.41   
     12   H                0.08  0.27 -0.00    0.00 -0.00 -0.28    0.00  0.00  0.41   

  Vibration                       13                  14                  15          
  Freq [cm^-1]                 861.5959            861.6577            957.4148       
  Irrep                           Bg                  Bg                  Au          
  Reduced mass [u]              1.2479              1.2479              1.3405        
  Force const [mDyne/A]         0.5458              0.5459              0.7239        
  Turning point v=0 [a0]        0.3346              0.3346              0.3063        
  RMS dev v=0 [a0 u^1/2]        0.2643              0.2643              0.2508        
  Char temp [K]               1239.6447           1239.7335           1377.5067       
  ----------------------------------------------------------------------------------
      1   C               -0.00  0.00 -0.05   -0.00 -0.00 -0.07    0.00 -0.00  0.06   
      2   C               -0.00  0.00  0.03    0.00 -0.00 -0.08   -0.00  0.00  0.04   
      3   C               -0.00  0.00 -0.08   -0.00 -0.00  0.01    0.00 -0.00 -0.10   
      4   C                0.00  0.00  0.08    0.00  0.00 -0.01    0.00  0.00 -0.10   
      5   C                0.00 -0.00 -0.03   -0.00  0.00  0.08   -0.00 -0.00  0.04   
      6   C                0.00 -0.00  0.05    0.00  0.00  0.07    0.00  0.00  0.06   
      7   H               -0.00  0.00  0.35   -0.00  0.00  0.45   -0.00  0.00 -0.33   
      8   H               -0.00  0.00 -0.22    0.00  0.00  0.53   -0.00 -0.00 -0.24   
      9   H               -0.00  0.00  0.57    0.00 -0.00 -0.07    0.00 -0.00  0.57   
     10   H               -0.00  0.00 -0.57   -0.00  0.00  0.07    0.00  0.00  0.57   
     11   H               -0.00 -0.00  0.22   -0.00 -0.00 -0.53   -0.00 -0.00 -0.24   
     12   H                0.00 -0.00 -0.35    0.00  0.00 -0.45   -0.00  0.00 -0.33   

  Vibration                       16                  17                  18          
  Freq [cm^-1]                 957.4771            966.2408           1006.4738       
  Irrep                           Au                  Bg                  Bu          
  Reduced mass [u]              1.3404              1.0743              6.5973        
  Force const [mDyne/A]         0.7240              0.5909              3.9375        
  Turning point v=0 [a0]        0.3063              0.3406              0.1347        
  RMS dev v=0 [a0 u^1/2]        0.2507              0.2496              0.2446        
  Char temp [K]               1377.5963           1390.2054           1448.0917       
  ----------------------------------------------------------------------------------
      1   C                0.00 -0.00  0.08    0.00  0.00 -0.03   -0.25 -0.14  0.00   
      2   C                0.00 -0.00 -0.09    0.00 -0.00  0.03    0.25 -0.15  0.00   
      3   C               -0.00  0.00  0.01   -0.00  0.00  0.03    0.00  0.29 -0.00   
      4   C                0.00 -0.00  0.01   -0.00 -0.00 -0.03    0.00  0.29 -0.00   
      5   C                0.00  0.00 -0.09    0.00  0.00 -0.03    0.25 -0.15  0.00   
      6   C               -0.00  0.00  0.08   -0.00 -0.00  0.03   -0.25 -0.14  0.00   
      7   H               -0.00  0.00 -0.46    0.00 -0.00  0.41   -0.25 -0.14 -0.00   
      8   H                0.00 -0.00  0.52    0.00  0.00 -0.41    0.25 -0.14 -0.00   
      9   H               -0.00  0.00 -0.05   -0.00  0.00 -0.41    0.00  0.29  0.00   
     10   H                0.00 -0.00 -0.05   -0.00 -0.00  0.41    0.00  0.29  0.00   
     11   H                0.00  0.00  0.52    0.00  0.00  0.41    0.25 -0.14 -0.00   
     12   H               -0.00  0.00 -0.46   -0.00 -0.00 -0.41   -0.25 -0.14 -0.00   

  Vibration                       19                  20                  21          
  Freq [cm^-1]                1019.1906           1062.9182           1062.9350       
  Irrep                           Ag                  Bu                  Bu          
  Reduced mass [u]              5.9419              1.6421              1.6419        
  Force const [mDyne/A]         3.6365              1.0931              1.0929        
  Turning point v=0 [a0]        0.1410              0.2626              0.2627        
  RMS dev v=0 [a0 u^1/2]        0.2430              0.2380              0.2380        
  Char temp [K]               1466.3883           1529.3026           1529.3267       
  ----------------------------------------------------------------------------------
      1   C                0.24  0.13  0.00   -0.09  0.02  0.00   -0.06 -0.09  0.00   
      2   C                0.24 -0.14  0.00    0.08  0.04  0.00   -0.07  0.08 -0.00   
      3   C                0.00  0.27 -0.00    0.01 -0.11 -0.00    0.08  0.01 -0.00   
      4   C               -0.00 -0.27 -0.00    0.01 -0.11  0.00    0.08  0.01  0.00   
      5   C               -0.24  0.14  0.00    0.08  0.04  0.00   -0.07  0.08 -0.00   
      6   C               -0.24 -0.13  0.00   -0.09  0.02 -0.00   -0.06 -0.09  0.00   
      7   H                0.26  0.15 -0.00   -0.28  0.34 -0.00    0.07 -0.33 -0.00   
      8   H                0.26 -0.15 -0.00    0.30  0.41 -0.00    0.01  0.25 -0.00   
      9   H                0.00  0.30  0.00    0.06 -0.12  0.00    0.54  0.01  0.00   
     10   H               -0.00 -0.30  0.00    0.06 -0.12  0.00    0.54  0.01  0.00   
     11   H               -0.26  0.15 -0.00    0.30  0.41 -0.00    0.01  0.25  0.00   
     12   H               -0.26 -0.15 -0.00   -0.28  0.34 -0.00    0.07 -0.33 -0.00   

  Vibration                       22                  23                  24          
  Freq [cm^-1]                1164.8062           1192.2788           1192.3299       
  Irrep                           Bu                  Ag                  Ag          
  Reduced mass [u]              1.0283              1.1192              1.1191        
  Force const [mDyne/A]         0.8220              0.9374              0.9374        
  Turning point v=0 [a0]        0.3170              0.3004              0.3004        
  RMS dev v=0 [a0 u^1/2]        0.2273              0.2247              0.2247        
  Char temp [K]               1675.8968           1715.4237           1715.4973       
  ----------------------------------------------------------------------------------
      1   C               -0.01  0.02 -0.00   -0.01  0.03  0.00    0.03 -0.04  0.00   
      2   C               -0.01 -0.02 -0.00    0.01  0.03 -0.00    0.03  0.04 -0.00   
      3   C                0.02 -0.00  0.00    0.06  0.00 -0.00    0.00 -0.01  0.00   
      4   C                0.02 -0.00  0.00   -0.06 -0.00 -0.00   -0.00  0.01  0.00   
      5   C               -0.01 -0.02 -0.00   -0.01 -0.03  0.00   -0.03 -0.04 -0.00   
      6   C               -0.01  0.02 -0.00    0.01 -0.03  0.00   -0.03  0.04 -0.00   
      7   H               -0.20  0.35  0.00   -0.15  0.28 -0.00    0.24 -0.41  0.00   
      8   H               -0.21 -0.35  0.00    0.12  0.22  0.00    0.26  0.44  0.00   
      9   H                0.41 -0.00 -0.00    0.57 -0.00  0.00    0.04 -0.01 -0.00   
     10   H                0.41 -0.00 -0.00   -0.57  0.00  0.00   -0.04  0.01 -0.00   
     11   H               -0.21 -0.35  0.00   -0.12 -0.22 -0.00   -0.26 -0.44  0.00   
     12   H               -0.20  0.35  0.00    0.15 -0.28 -0.00   -0.24  0.41  0.00   

  Vibration                       25                  26                  27          
  Freq [cm^-1]                1358.9909           1477.5221           1506.7729       
  Irrep                           Ag                  Bu                  Bu          
  Reduced mass [u]              1.2479              9.6965              2.0974        
  Force const [mDyne/A]         1.3578             12.4719              2.8055        
  Turning point v=0 [a0]        0.2665              0.0917              0.1952        
  RMS dev v=0 [a0 u^1/2]        0.2105              0.2019              0.1999        
  Char temp [K]               1955.2853           2125.8253           2167.9107       
  ----------------------------------------------------------------------------------
      1   C               -0.03  0.05 -0.00   -0.18  0.32  0.00    0.11 -0.09 -0.00   
      2   C                0.03  0.05  0.00   -0.18 -0.31  0.00   -0.11 -0.09 -0.00   
      3   C               -0.06  0.00  0.00    0.36 -0.00  0.00   -0.00  0.10  0.00   
      4   C                0.06 -0.00  0.00    0.36 -0.00  0.00   -0.00  0.10  0.00   
      5   C               -0.03 -0.05 -0.00   -0.18 -0.31 -0.00   -0.11 -0.09 -0.00   
      6   C                0.03 -0.05 -0.00   -0.18  0.32 -0.00    0.11 -0.09 -0.00   
      7   H                0.20 -0.35  0.00    0.09 -0.16 -0.00   -0.17  0.43  0.00   
      8   H               -0.20 -0.35 -0.00    0.09  0.16 -0.00    0.19  0.44  0.00   
      9   H                0.40 -0.00 -0.00   -0.19  0.00 -0.00    0.02  0.12 -0.00   
     10   H               -0.40  0.00 -0.00   -0.19  0.00  0.00    0.02  0.12 -0.00   
     11   H                0.20  0.35 -0.00    0.09  0.16  0.00    0.19  0.44  0.00   
     12   H               -0.20  0.35  0.00    0.09 -0.16 -0.00   -0.17  0.43 -0.00   

  Vibration                       28                  29                  30          
  Freq [cm^-1]                1506.7859           1652.7896           1652.9106       
  Irrep                           Bu                  Ag                  Ag          
  Reduced mass [u]              2.0978              5.8342              5.8351        
  Force const [mDyne/A]         2.8062              9.3901              9.3929        
  Turning point v=0 [a0]        0.1952              0.1117              0.1117        
  RMS dev v=0 [a0 u^1/2]        0.1999              0.1908              0.1908        
  Char temp [K]               2167.9295           2377.9963           2378.1704       
  ----------------------------------------------------------------------------------
      1   C               -0.03 -0.11  0.00   -0.21  0.10  0.00   -0.07  0.30  0.00   
      2   C               -0.04  0.11  0.00    0.20  0.07 -0.00   -0.10 -0.30 -0.00   
      3   C                0.15  0.00 -0.00    0.35 -0.01 -0.00   -0.02 -0.15  0.00   
      4   C                0.15  0.00  0.00   -0.35  0.01 -0.00    0.02  0.15  0.00   
      5   C               -0.04  0.11  0.00   -0.20 -0.07 -0.00    0.10  0.30  0.00   
      6   C               -0.03 -0.11 -0.00    0.21 -0.10  0.00    0.07 -0.30 -0.00   
      7   H               -0.23  0.20 -0.00   -0.02 -0.26 -0.00    0.25 -0.24  0.00   
      8   H               -0.22 -0.16 -0.00    0.04 -0.24  0.00    0.25  0.26  0.00   
      9   H               -0.53  0.01 -0.00   -0.39 -0.01  0.00    0.02 -0.18 -0.00   
     10   H               -0.53  0.01 -0.00    0.39  0.01  0.00   -0.02  0.18 -0.00   
     11   H               -0.22 -0.16  0.00   -0.04  0.24 -0.00   -0.25 -0.26  0.00   
     12   H               -0.23  0.20  0.00    0.02  0.26 -0.00   -0.25  0.24  0.00   

  Vibration                       31                  32                  33          
  Freq [cm^-1]                3215.0997           3226.3779           3226.5036       
  Irrep                           Bu                  Ag                  Ag          
  Reduced mass [u]              1.0823              1.0878              1.0878        
  Force const [mDyne/A]         6.5913              6.6715              6.6720        
  Turning point v=0 [a0]        0.1860              0.1852              0.1852        
  RMS dev v=0 [a0 u^1/2]        0.1368              0.1366              0.1366        
  Char temp [K]               4625.8126           4642.0395           4642.2203       
  ----------------------------------------------------------------------------------
      1   C                0.03  0.02 -0.00    0.04  0.02  0.00    0.02  0.02  0.00   
      2   C               -0.03  0.02  0.00   -0.04  0.02 -0.00    0.02 -0.01  0.00   
      3   C               -0.00 -0.03  0.00   -0.00  0.01  0.00   -0.00 -0.05 -0.00   
      4   C               -0.00 -0.03  0.00    0.00 -0.01  0.00    0.00  0.05  0.00   
      5   C               -0.03  0.02 -0.00    0.04 -0.02 -0.00   -0.02  0.01  0.00   
      6   C                0.03  0.02 -0.00   -0.04 -0.02 -0.00   -0.02 -0.02 -0.00   
      7   H               -0.35 -0.20  0.00   -0.40 -0.23 -0.00   -0.30 -0.17  0.00   
      8   H                0.35 -0.21  0.00    0.46 -0.27  0.00   -0.20  0.12  0.00   
      9   H                0.00  0.41 -0.00    0.00 -0.06  0.00    0.00  0.57  0.00   
     10   H                0.00  0.41 -0.00   -0.00  0.06  0.00   -0.00 -0.57 -0.00   
     11   H                0.35 -0.21 -0.00   -0.46  0.27 -0.00    0.20 -0.12 -0.00   
     12   H               -0.35 -0.20 -0.00    0.40  0.23 -0.00    0.30  0.17  0.00   

  Vibration                       34                  35                  36          
  Freq [cm^-1]                3243.0037           3243.1197           3253.1051       
  Irrep                           Bu                  Bu                  Ag          
  Reduced mass [u]              1.0969              1.0969              1.1022        
  Force const [mDyne/A]         6.7972              6.7977              6.8724        
  Turning point v=0 [a0]        0.1840              0.1840              0.1832        
  RMS dev v=0 [a0 u^1/2]        0.1362              0.1362              0.1360        
  Char temp [K]               4665.9603           4666.1271           4680.4940       
  ----------------------------------------------------------------------------------
      1   C               -0.03 -0.02 -0.00   -0.03 -0.01  0.00   -0.03 -0.02  0.00   
      2   C               -0.04  0.03  0.00    0.02 -0.01  0.00   -0.03  0.02 -0.00   
      3   C                0.00  0.01 -0.00    0.00 -0.05 -0.00   -0.00 -0.04  0.00   
      4   C                0.00  0.01  0.00    0.00 -0.05 -0.00    0.00  0.04  0.00   
      5   C               -0.04  0.03  0.00    0.02 -0.01 -0.00    0.03 -0.02 -0.00   
      6   C               -0.03 -0.02 -0.00   -0.03 -0.01  0.00    0.03  0.02 -0.00   
      7   H                0.40  0.23  0.00    0.31  0.17 -0.00    0.35  0.20 -0.00   
      8   H                0.46 -0.27 -0.00   -0.19  0.11 -0.00    0.35 -0.21  0.00   
      9   H               -0.00 -0.08 -0.00    0.00  0.57  0.00    0.00  0.41 -0.00   
     10   H               -0.00 -0.08 -0.00    0.00  0.57  0.00   -0.00 -0.41  0.00   
     11   H                0.46 -0.27 -0.00   -0.19  0.11  0.00   -0.35  0.21 -0.00   
     12   H                0.40  0.23 -0.00    0.31  0.17  0.00   -0.35 -0.20 -0.00   

  ==> Thermochemistry Components <==

  Entropy, S
    Electronic S            0.000 [cal/(mol K)]        0.000 [J/(mol K)]       0.00000000 [mEh/K] (multiplicity = 1)
    Translational S        38.979 [cal/(mol K)]      163.089 [J/(mol K)]       0.06211726 [mEh/K] (mol. weight = 78.0470 [u], P = 101325.00 [Pa])
    Rotational S           24.318 [cal/(mol K)]      101.746 [J/(mol K)]       0.03875307 [mEh/K] (symmetry no. = 2)
    Vibrational S           4.679 [cal/(mol K)]       19.577 [J/(mol K)]       0.00745648 [mEh/K]
  Total S                  67.976 [cal/(mol K)]      284.412 [J/(mol K)]       0.10832682 [mEh/K]
  Correction S              0.000 [cal/(mol K)]        0.000 [J/(mol K)]       0.00000000 [mEh/K]

  Constant volume heat capacity, Cv
    Electronic Cv           0.000 [cal/(mol K)]        0.000 [J/(mol K)]       0.00000000 [mEh/K]
    Translational Cv        2.981 [cal/(mol K)]       12.472 [J/(mol K)]       0.00475022 [mEh/K]
    Rotational Cv           2.981 [cal/(mol K)]       12.472 [J/(mol K)]       0.00475022 [mEh/K]
    Vibrational Cv         11.591 [cal/(mol K)]       48.498 [J/(mol K)]       0.01847180 [mEh/K]
  Total Cv                 17.553 [cal/(mol K)]       73.441 [J/(mol K)]       0.02797223 [mEh/K]
  Correction Cv             0.000 [cal/(mol K)]        0.000 [J/(mol K)]       0.00000000 [mEh/K]

  Constant pressure heat capacity, Cp
    Electronic Cp           0.000 [cal/(mol K)]        0.000 [J/(mol K)]       0.00000000 [mEh/K]
    Translational Cp        4.968 [cal/(mol K)]       20.786 [J/(mol K)]       0.00791703 [mEh/K]
    Rotational Cp           2.981 [cal/(mol K)]       12.472 [J/(mol K)]       0.00475022 [mEh/K]
    Vibrational Cp         11.591 [cal/(mol K)]       48.498 [J/(mol K)]       0.01847180 [mEh/K]
  Total Cp                 19.540 [cal/(mol K)]       81.756 [J/(mol K)]       0.03113904 [mEh/K]
  Correction Cp             0.000 [cal/(mol K)]        0.000 [J/(mol K)]       0.00000000 [mEh/K]

  ==> Thermochemistry Energy Analysis <==

  Raw electronic energy, E0
  Total E0, Electronic energy at well bottom at 0 [K]                 -231.52084577 [Eh]

  Zero-point energy, ZPE_vib = Sum_i nu_i / 2
    Electronic ZPE          0.000 [kcal/mol]        0.000 [kJ/mol]       0.00000000 [Eh]
    Translational ZPE       0.000 [kcal/mol]        0.000 [kJ/mol]       0.00000000 [Eh]
    Rotational ZPE          0.000 [kcal/mol]        0.000 [kJ/mol]       0.00000000 [Eh]
    Vibrational ZPE        63.201 [kcal/mol]      264.433 [kJ/mol]       0.10071726 [Eh]       22104.883 [cm^-1]
  Correction ZPE           63.201 [kcal/mol]      264.433 [kJ/mol]       0.10071726 [Eh]       22104.883 [cm^-1]
  Total ZPE, Electronic energy at 0 [K]                               -231.42012852 [Eh]

  Thermal Energy, E (includes ZPE)
    Electronic E            0.000 [kcal/mol]        0.000 [kJ/mol]       0.00000000 [Eh]
    Translational E         0.889 [kcal/mol]        3.718 [kJ/mol]       0.00141628 [Eh]
    Rotational E            0.889 [kcal/mol]        3.718 [kJ/mol]       0.00141628 [Eh]
    Vibrational E          64.237 [kcal/mol]      268.766 [kJ/mol]       0.10236752 [Eh]
  Correction E             66.014 [kcal/mol]      276.203 [kJ/mol]       0.10520007 [Eh]
  Total E, Electronic energy at  298.15 [K]                           -231.41564570 [Eh]

  Enthalpy, H_trans = E_trans + k_B * T
    Electronic H            0.000 [kcal/mol]        0.000 [kJ/mol]       0.00000000 [Eh]
    Translational H         1.481 [kcal/mol]        6.197 [kJ/mol]       0.00236046 [Eh]
    Rotational H            0.889 [kcal/mol]        3.718 [kJ/mol]       0.00141628 [Eh]
    Vibrational H          64.237 [kcal/mol]      268.766 [kJ/mol]       0.10236752 [Eh]
  Correction H             66.607 [kcal/mol]      278.682 [kJ/mol]       0.10614426 [Eh]
  Total H, Enthalpy at  298.15 [K]                                    -231.41470152 [Eh]

  Gibbs free energy, G = H - T * S
    Electronic G            0.000 [kcal/mol]        0.000 [kJ/mol]       0.00000000 [Eh]
    Translational G       -10.140 [kcal/mol]      -42.428 [kJ/mol]      -0.01615980 [Eh]
    Rotational G           -6.362 [kcal/mol]      -26.617 [kJ/mol]      -0.01013795 [Eh]
    Vibrational G          62.842 [kcal/mol]      262.929 [kJ/mol]       0.10014437 [Eh]
  Correction G             46.339 [kcal/mol]      193.884 [kJ/mol]       0.07384662 [Eh]
  Total G, Free enthalpy at  298.15 [K]                               -231.44699916 [Eh]

    Psi4 stopped on: Tuesday, 19 April 2022 10:42PM
    Psi4 wall time for execution: 0:05:12.64

*** Psi4 exiting successfully. Buy a developer a beer!
