
    -----------------------------------------------------------------------
          Psi4: An Open-Source Ab Initio Electronic Structure Package
                               Psi4 1.3.2 release

                         Git: Rev {HEAD} ecbda83 


    R. M. Parrish, L. A. Burns, D. G. A. Smith, A. C. Simmonett,
    A. E. DePrince III, E. G. Hohenstein, U. Bozkaya, A. Yu. Sokolov,
    R. Di Remigio, R. M. Richard, J. F. Gonthier, A. M. James,
    H. R. McAlexander, A. Kumar, M. Saitow, X. Wang, B. P. Pritchard,
    P. Verma, H. F. Schaefer III, K. Patkowski, R. A. King, E. F. Valeev,
    F. A. Evangelista, J. M. Turney, T. D. Crawford, and C. D. Sherrill,
    J. Chem. Theory Comput. 13(7) pp 3185--3197 (2017).
    (doi: 10.1021/acs.jctc.7b00174)


                         Additional Contributions by
    P. Kraus, H. Kruse, M. H. Lechner, M. C. Schieber, R. A. Shaw,
    A. Alenaizan, R. Galvelis, Z. L. Glick, S. Lehtola, and J. P. Misiewicz

    -----------------------------------------------------------------------


    Psi4 started on: Tuesday, 19 April 2022 12:21AM

    Process ID: 25398
    Host:       atlantis
    PSIDATADIR: /home/akrom/software/anaconda3/envs/ffpenv/share/psi4
    Memory:     500.0 MiB
    Threads:    1
    
  ==> Input File <==

--------------------------------------------------------------------------
set basis  cc-pVTZ
molecule {
0 1
   O        0.00000        0.00000       -0.06797
   H        0.74903        0.00000        0.53936
   H       -0.74903        0.00000        0.53936
}
energy('CCSD')
frequencies('CCSD')


--------------------------------------------------------------------------

*** tstart() called on atlantis
*** at Tue Apr 19 00:21:08 2022

   => Loading Basis Set <=

    Name: CC-PVTZ
    Role: ORBITAL
    Keyword: BASIS
    atoms 1   entry O          line   262 file /home/akrom/software/anaconda3/envs/ffpenv/share/psi4/basis/cc-pvtz.gbs 
    atoms 2-3 entry H          line    23 file /home/akrom/software/anaconda3/envs/ffpenv/share/psi4/basis/cc-pvtz.gbs 


         ---------------------------------------------------------
                                   SCF
               by Justin Turney, Rob Parrish, Andy Simmonett
                          and Daniel G. A. Smith
                              RHF Reference
                        1 Threads,    500 MiB Core
         ---------------------------------------------------------

  ==> Geometry <==

    Molecular point group: c2v
    Full point group: C2v

    Geometry (in Angstrom), charge = 0, multiplicity = 1:

       Center              X                  Y                   Z               Mass       
    ------------   -----------------  -----------------  -----------------  -----------------
         O            0.000000000000     0.000000000000    -0.067969259994    15.994914619570
         H            0.749030000000     0.000000000000     0.539360740006     1.007825032230
         H           -0.749030000000    -0.000000000000     0.539360740006     1.007825032230

  Running in c2v symmetry.

  Rotational constants: A =     25.53156  B =     14.90675  C =      9.41168 [cm^-1]
  Rotational constants: A = 765416.81232  B = 446893.08836  C = 282155.15104 [MHz]
  Nuclear repulsion =    9.133433460995141

  Charge       = 0
  Multiplicity = 1
  Electrons    = 10
  Nalpha       = 5
  Nbeta        = 5

  ==> Algorithm <==

  SCF Algorithm Type is PK.
  DIIS enabled.
  MOM disabled.
  Fractional occupation disabled.
  Guess Type is SAD.
  Energy threshold   = 1.00e-08
  Density threshold  = 1.00e-08
  Integral threshold = 0.00e+00

  ==> Primary Basis <==

  Basis Set: CC-PVTZ
    Blend: CC-PVTZ
    Number of shells: 22
    Number of basis function: 58
    Number of Cartesian functions: 65
    Spherical Harmonics?: true
    Max angular momentum: 3

  ==> Pre-Iterations <==

   -------------------------------------------------------
    Irrep   Nso     Nmo     Nalpha   Nbeta   Ndocc  Nsocc
   -------------------------------------------------------
     A1        23      23       0       0       0       0
     A2         7       7       0       0       0       0
     B1        17      17       0       0       0       0
     B2        11      11       0       0       0       0
   -------------------------------------------------------
    Total      58      58       5       5       5       0
   -------------------------------------------------------

  ==> Integral Setup <==

  Using in-core PK algorithm.
   Calculation information:
      Number of atoms:                   3
      Number of AO shells:              22
      Number of primitives:             42
      Number of atomic orbitals:        65
      Number of basis functions:        58

      Integral cutoff                 1.00e-12
      Number of threads:                 1

  Performing in-core PK
  Using 2929232 doubles for integral storage.
  We computed 32131 shell quartets total.
  Whereas there are 32131 unique shell quartets.

  ==> DiskJK: Disk-Based J/K Matrices <==

    J tasked:                  Yes
    K tasked:                  Yes
    wK tasked:                  No
    Memory [MiB]:              375
    Schwarz Cutoff:          1E-12

    OpenMP threads:              1

  Minimum eigenvalue in the overlap matrix is 2.5816020467E-03.
  Using Symmetric Orthogonalization.

  SCF Guess: Superposition of Atomic Densities via on-the-fly atomic UHF.

  ==> Iterations <==

                        Total Energy        Delta E     RMS |[F,P]|

   @RHF iter SAD:   -75.49574447026734   -7.54957e+01   0.00000e+00 
   @RHF iter   1:   -75.97729779973049   -4.81553e-01   1.43580e-02 DIIS
   @RHF iter   2:   -76.02990174085335   -5.26039e-02   9.35586e-03 DIIS
   @RHF iter   3:   -76.05590306739870   -2.60013e-02   6.99309e-04 DIIS
   @RHF iter   4:   -76.05629852408035   -3.95457e-04   1.73089e-04 DIIS
   @RHF iter   5:   -76.05632433279715   -2.58087e-05   3.59625e-05 DIIS
   @RHF iter   6:   -76.05632595424308   -1.62145e-06   6.86160e-06 DIIS
   @RHF iter   7:   -76.05632601352478   -5.92817e-08   1.04879e-06 DIIS
   @RHF iter   8:   -76.05632601462604   -1.10126e-09   1.54108e-07 DIIS
   @RHF iter   9:   -76.05632601465008   -2.40448e-11   4.27127e-08 DIIS
   @RHF iter  10:   -76.05632601465219   -2.10321e-12   6.02385e-09 DIIS
  Energy and wave function converged.


  ==> Post-Iterations <==

    Orbital Energies [Eh]
    ---------------------

    Doubly Occupied:                                                      

       1A1   -20.557263     2A1    -1.343997     1B1    -0.700970  
       3A1    -0.581520     1B2    -0.504770  

    Virtual:                                                              

       4A1     0.141022     2B1     0.203928     3B1     0.537034  
       5A1     0.607233     6A1     0.667848     2B2     0.786838  
       7A1     0.787186     4B1     0.806677     1A2     0.865202  
       3B2     0.943698     8A1     1.140005     5B1     1.200468  
       6B1     1.514568     9A1     1.561040     4B2     2.045582  
       2A2     2.057628     7B1     2.060993    10A1     2.172423  
      11A1     2.232812    12A1     2.576170     8B1     2.964984  
       5B2     3.331244    13A1     3.474328     3A2     3.598550  
       9B1     3.661697     6B2     3.790909    10B1     3.872399  
      14A1     3.890372     4A2     3.964963     7B2     4.012505  
      11B1     4.065636    15A1     4.186841     5A2     4.291415  
      16A1     4.349307    12B1     4.605473     8B2     4.675494  
      13B1     4.857061    17A1     5.148733    18A1     5.246897  
      14B1     5.515508     9B2     6.047597    19A1     6.575322  
      10B2     6.889453     6A2     6.925835    15B1     6.984803  
      20A1     7.005849    11B2     7.009443    21A1     7.191987  
       7A2     7.228212    22A1     7.437154    16B1     7.787361  
      17B1     8.276043    23A1    12.748081  

    Final Occupation by Irrep:
             A1    A2    B1    B2 
    DOCC [     3,    0,    1,    1 ]

  @RHF Final Energy:   -76.05632601465219

   => Energetics <=

    Nuclear Repulsion Energy =              9.1334334609951409
    One-Electron Energy =                -123.0024799184288611
    Two-Electron Energy =                  37.8127204427815400
    Total Energy =                        -76.0563260146521856

Computation Completed


Properties will be evaluated at   0.000000,   0.000000,   0.000000 [a0]

Properties computed using the SCF density matrix

  Nuclear Dipole Moment: [e a0]
     X:     0.0000      Y:     0.0000      Z:     1.0109

  Electronic Dipole Moment: [e a0]
     X:     0.0000      Y:     0.0000      Z:    -0.1959

  Dipole Moment: [e a0]
     X:     0.0000      Y:     0.0000      Z:     0.8150     Total:     0.8150

  Dipole Moment: [D]
     X:     0.0000      Y:     0.0000      Z:     2.0715     Total:     2.0715


*** tstop() called on atlantis at Tue Apr 19 00:21:08 2022
Module time:
	user time   =       0.38 seconds =       0.01 minutes
	system time =       0.01 seconds =       0.00 minutes
	total time  =          0 seconds =       0.00 minutes
Total time:
	user time   =       0.38 seconds =       0.01 minutes
	system time =       0.01 seconds =       0.00 minutes
	total time  =          0 seconds =       0.00 minutes
 MINTS: Wrapper to libmints.
   by Justin Turney

   Calculation information:
      Number of threads:                 1
      Number of atoms:                   3
      Number of AO shells:              22
      Number of SO shells:              16
      Number of primitives:             42
      Number of atomic orbitals:        65
      Number of basis functions:        58

      Number of irreps:                  4
      Integral cutoff                 0.00e+00
      Number of functions per irrep: [  23    7   17   11 ]

 OEINTS: Overlap, kinetic, potential, dipole, and quadrupole integrals
         stored in file 35.

      Computing two-electron integrals...done
      Computed 355415 non-zero two-electron integrals.
        Stored in file 33.


*** tstart() called on atlantis
*** at Tue Apr 19 00:21:08 2022


	Wfn Parameters:
	--------------------
	Wavefunction         = CCSD
	Number of irreps     = 4
	Number of MOs        = 58
	Number of active MOs = 58
	AO-Basis             = NONE
	Semicanonical        = false
	Reference            = RHF
	Print Level          = 1

	IRREP	# MOs	# FZDC	# DOCC	# SOCC	# VIRT	# FZVR
	-----	-----	------	------	------	------	------
	 A1	   23	    0	    3	    0	    20	    0
	 A2	   7	    0	    0	    0	    7	    0
	 B1	   17	    0	    1	    0	    16	    0
	 B2	   11	    0	    1	    0	    10	    0
	Transforming integrals...
	IWL integrals will be deleted.
	(OO|OO)...
	Presorting SO-basis two-electron integrals.
	Sorting File: SO Ints (nn|nn) nbuckets = 1
	Transforming the one-electron integrals and constructing Fock matrices
	Starting first half-transformation.
	Sorting half-transformed integrals.
	First half integral transformation complete.
	Starting second half-transformation.
	Two-electron integral transformation complete.
	(OO|OV)...
	Starting second half-transformation.
	Two-electron integral transformation complete.
	(OO|VV)...
	Starting second half-transformation.
	Two-electron integral transformation complete.
	(OV|OO)...
	Starting first half-transformation.
	Sorting half-transformed integrals.
	First half integral transformation complete.
	Starting second half-transformation.
	Two-electron integral transformation complete.
	(OV|OV)...
	Starting second half-transformation.
	Two-electron integral transformation complete.
	(OV|VV)...
	Starting second half-transformation.
	Two-electron integral transformation complete.
	(VV|OO)...
	Starting first half-transformation.
	Sorting half-transformed integrals.
	First half integral transformation complete.
	Starting second half-transformation.
	Two-electron integral transformation complete.
	(VV|OV)...
	Starting second half-transformation.
	Two-electron integral transformation complete.
	(VV|VV)...
	Starting second half-transformation.
	Two-electron integral transformation complete.
	Frozen core energy     =      0.00000000000000

	Size of irrep 0 of <ab|cd> integrals:      0.648 (MW) /      5.184 (MB)
	Size of irrep 1 of <ab|cd> integrals:      0.360 (MW) /      2.880 (MB)
	Size of irrep 2 of <ab|cd> integrals:      0.608 (MW) /      4.867 (MB)
	Size of irrep 3 of <ab|cd> integrals:      0.389 (MW) /      3.115 (MB)
	Total:                                     2.006 (MW) /     16.046 (MB)

	Size of irrep 0 of <ia|bc> integrals:      0.069 (MW) /      0.554 (MB)
	Size of irrep 1 of <ia|bc> integrals:      0.028 (MW) /      0.226 (MB)
	Size of irrep 2 of <ia|bc> integrals:      0.059 (MW) /      0.468 (MB)
	Size of irrep 3 of <ia|bc> integrals:      0.036 (MW) /      0.285 (MB)
	Total:                                     0.191 (MW) /      1.532 (MB)

	Size of irrep 0 of tijab amplitudes:       0.009 (MW) /      0.071 (MB)
	Size of irrep 1 of tijab amplitudes:       0.001 (MW) /      0.010 (MB)
	Size of irrep 2 of tijab amplitudes:       0.005 (MW) /      0.037 (MB)
	Size of irrep 3 of tijab amplitudes:       0.004 (MW) /      0.030 (MB)
	Total:                                     0.018 (MW) /      0.148 (MB)

	Nuclear Rep. energy          =      9.13343346099514
	SCF energy                   =    -76.05632601465219
	One-electron energy          =   -123.00247963921511
	Two-electron energy          =     37.81272016356782
	Reference energy             =    -76.05632601465216

*** tstop() called on atlantis at Tue Apr 19 00:21:08 2022
Module time:
	user time   =       0.11 seconds =       0.00 minutes
	system time =       0.04 seconds =       0.00 minutes
	total time  =          0 seconds =       0.00 minutes
Total time:
	user time   =       0.55 seconds =       0.01 minutes
	system time =       0.05 seconds =       0.00 minutes
	total time  =          0 seconds =       0.00 minutes
            **************************
            *                        *
            *        CCENERGY        *
            *                        *
            **************************

    Nuclear Rep. energy (wfn)     =    9.133433460995141
    SCF energy          (wfn)     =  -76.056326014652186
    Reference energy    (file100) =  -76.056326014652157

    Input parameters:
    -----------------
    Wave function   =     CCSD
    Reference wfn   =     RHF
    Brueckner       =     No
    Memory (Mbytes) =     524.3
    Maxiter         =     50
    R_Convergence   =     1.0e-07
    E_Convergence   =     1.0e-06
    Restart         =     Yes
    DIIS            =     Yes
    AO Basis        =     NONE
    ABCD            =     NEW
    Cache Level     =     2
    Cache Type      =     LOW
    Print Level     =     1
    Num. of threads =     1
    # Amps to Print =     10
    Print MP2 Amps? =     No
    Analyze T2 Amps =     No
    Print Pair Ener =     No
    Local CC        =     No
    SCS-MP2         =     False
    SCSN-MP2        =     False
    SCS-CCSD        =     False

MP2 correlation energy -0.2757986572831211
                Solving CC Amplitude Equations
                ------------------------------
  Iter             Energy              RMS        T1Diag      D1Diag    New D1Diag    D2Diag
  ----     ---------------------    ---------   ----------  ----------  ----------   --------
     0        -0.275798657283121    0.000e+00    0.000000    0.000000    0.000000    0.116950
     1        -0.275745421786384    2.930e-02    0.005164    0.009347    0.009347    0.120452
     2        -0.280710296766831    1.017e-02    0.005320    0.009446    0.009446    0.125200
     3        -0.281448997780312    3.287e-03    0.005849    0.010549    0.010549    0.126922
     4        -0.281438073632634    6.576e-04    0.005881    0.010622    0.010622    0.127135
     5        -0.281460134254503    2.032e-04    0.005897    0.010699    0.010699    0.127185
     6        -0.281461405488114    5.869e-05    0.005901    0.010729    0.010729    0.127182
     7        -0.281461442214223    1.930e-05    0.005903    0.010743    0.010743    0.127181
     8        -0.281461144549065    5.378e-06    0.005904    0.010748    0.010748    0.127180
     9        -0.281461062327046    1.096e-06    0.005904    0.010749    0.010749    0.127180
    10        -0.281461074814786    2.463e-07    0.005904    0.010749    0.010749    0.127180
    11        -0.281461074643948    4.713e-08    0.005904    0.010749    0.010749    0.127180

    Iterations converged.


    Largest TIA Amplitudes:
              4  43        -0.0073305985
              3  31         0.0060367761
              2   0        -0.0055351464
              4  44        -0.0049933558
              2   3         0.0045324899
              2   5        -0.0044912784
              1   2         0.0041692789
              3  36         0.0039815603
              2  11         0.0039394181
              2   2        -0.0034683201

    Largest TIjAb Amplitudes:
      4   4  43  43        -0.0476714946
      2   2   2   2        -0.0292781867
      3   3  28  28        -0.0276870198
      2   4   2  43        -0.0257992983
      4   2  43   2        -0.0257992983
      3   3   1   1        -0.0250335394
      3   3  29  29        -0.0226074514
      2   2  28  28        -0.0223705873
      3   4  29  43        -0.0222703665
      4   3  43  29        -0.0222703665

    SCF energy       (wfn)                    =  -76.056326014652186
    Reference energy (file100)                =  -76.056326014652157

    Opposite-spin MP2 correlation energy      =   -0.209068970400421
    Same-spin MP2 correlation energy          =   -0.066729686882700
    MP2 correlation energy                    =   -0.275798657283121
      * MP2 total energy                      =  -76.332124671935276

    Opposite-spin CCSD correlation energy     =   -0.221806075014127
    Same-spin CCSD correlation energy         =   -0.059654999629821
    CCSD correlation energy                   =   -0.281461074643948
      * CCSD total energy                     =  -76.337787089296100

gradient() will perform analytic gradient computation.

*** tstart() called on atlantis
*** at Tue Apr 19 00:21:08 2022

   => Loading Basis Set <=

    Name: CC-PVTZ
    Role: ORBITAL
    Keyword: BASIS
    atoms 1   entry O          line   262 file /home/akrom/software/anaconda3/envs/ffpenv/share/psi4/basis/cc-pvtz.gbs 
    atoms 2-3 entry H          line    23 file /home/akrom/software/anaconda3/envs/ffpenv/share/psi4/basis/cc-pvtz.gbs 


         ---------------------------------------------------------
                                   SCF
               by Justin Turney, Rob Parrish, Andy Simmonett
                          and Daniel G. A. Smith
                              RHF Reference
                        1 Threads,    500 MiB Core
         ---------------------------------------------------------

  ==> Geometry <==

    Molecular point group: c2v
    Full point group: C2v

    Geometry (in Angstrom), charge = 0, multiplicity = 1:

       Center              X                  Y                   Z               Mass       
    ------------   -----------------  -----------------  -----------------  -----------------
         O            0.000000000000     0.000000000000    -0.067969259994    15.994914619570
         H            0.749030000000     0.000000000000     0.539360740006     1.007825032230
         H           -0.749030000000    -0.000000000000     0.539360740006     1.007825032230

  Running in c2v symmetry.

  Rotational constants: A =     25.53156  B =     14.90675  C =      9.41168 [cm^-1]
  Rotational constants: A = 765416.81232  B = 446893.08836  C = 282155.15104 [MHz]
  Nuclear repulsion =    9.133433460995141

  Charge       = 0
  Multiplicity = 1
  Electrons    = 10
  Nalpha       = 5
  Nbeta        = 5

  ==> Algorithm <==

  SCF Algorithm Type is PK.
  DIIS enabled.
  MOM disabled.
  Fractional occupation disabled.
  Guess Type is SAD.
  Energy threshold   = 1.00e-10
  Density threshold  = 1.00e-10
  Integral threshold = 0.00e+00

  ==> Primary Basis <==

  Basis Set: CC-PVTZ
    Blend: CC-PVTZ
    Number of shells: 22
    Number of basis function: 58
    Number of Cartesian functions: 65
    Spherical Harmonics?: true
    Max angular momentum: 3

  ==> Pre-Iterations <==

   -------------------------------------------------------
    Irrep   Nso     Nmo     Nalpha   Nbeta   Ndocc  Nsocc
   -------------------------------------------------------
     A1        23      23       0       0       0       0
     A2         7       7       0       0       0       0
     B1        17      17       0       0       0       0
     B2        11      11       0       0       0       0
   -------------------------------------------------------
    Total      58      58       5       5       5       0
   -------------------------------------------------------

  ==> Integral Setup <==

  Using in-core PK algorithm.
   Calculation information:
      Number of atoms:                   3
      Number of AO shells:              22
      Number of primitives:             42
      Number of atomic orbitals:        65
      Number of basis functions:        58

      Integral cutoff                 1.00e-12
      Number of threads:                 1

  Performing in-core PK
  Using 2929232 doubles for integral storage.
  We computed 32131 shell quartets total.
  Whereas there are 32131 unique shell quartets.

  ==> DiskJK: Disk-Based J/K Matrices <==

    J tasked:                  Yes
    K tasked:                  Yes
    wK tasked:                  No
    Memory [MiB]:              375
    Schwarz Cutoff:          1E-12

    OpenMP threads:              1

  Minimum eigenvalue in the overlap matrix is 2.5816020467E-03.
  Using Symmetric Orthogonalization.

  SCF Guess: Superposition of Atomic Densities via on-the-fly atomic UHF.

  ==> Iterations <==

                        Total Energy        Delta E     RMS |[F,P]|

   @RHF iter SAD:   -75.49574447026734   -7.54957e+01   0.00000e+00 
   @RHF iter   1:   -75.97729779973049   -4.81553e-01   1.43580e-02 DIIS
   @RHF iter   2:   -76.02990174085335   -5.26039e-02   9.35586e-03 DIIS
   @RHF iter   3:   -76.05590306739870   -2.60013e-02   6.99309e-04 DIIS
   @RHF iter   4:   -76.05629852408035   -3.95457e-04   1.73089e-04 DIIS
   @RHF iter   5:   -76.05632433279715   -2.58087e-05   3.59625e-05 DIIS
   @RHF iter   6:   -76.05632595424308   -1.62145e-06   6.86160e-06 DIIS
   @RHF iter   7:   -76.05632601352478   -5.92817e-08   1.04879e-06 DIIS
   @RHF iter   8:   -76.05632601462604   -1.10126e-09   1.54108e-07 DIIS
   @RHF iter   9:   -76.05632601465008   -2.40448e-11   4.27127e-08 DIIS
   @RHF iter  10:   -76.05632601465219   -2.10321e-12   6.02385e-09 DIIS
   @RHF iter  11:   -76.05632601465213    5.68434e-14   8.53301e-10 DIIS
   @RHF iter  12:   -76.05632601465238   -2.55795e-13   1.39745e-10 DIIS
   @RHF iter  13:   -76.05632601465231    7.10543e-14   1.60430e-11 DIIS
  Energy and wave function converged.


  ==> Post-Iterations <==

    Orbital Energies [Eh]
    ---------------------

    Doubly Occupied:                                                      

       1A1   -20.557263     2A1    -1.343997     1B1    -0.700970  
       3A1    -0.581520     1B2    -0.504770  

    Virtual:                                                              

       4A1     0.141022     2B1     0.203928     3B1     0.537034  
       5A1     0.607233     6A1     0.667848     2B2     0.786838  
       7A1     0.787186     4B1     0.806677     1A2     0.865202  
       3B2     0.943698     8A1     1.140005     5B1     1.200468  
       6B1     1.514568     9A1     1.561040     4B2     2.045582  
       2A2     2.057628     7B1     2.060993    10A1     2.172423  
      11A1     2.232812    12A1     2.576170     8B1     2.964984  
       5B2     3.331244    13A1     3.474328     3A2     3.598550  
       9B1     3.661697     6B2     3.790909    10B1     3.872399  
      14A1     3.890372     4A2     3.964963     7B2     4.012505  
      11B1     4.065636    15A1     4.186841     5A2     4.291415  
      16A1     4.349307    12B1     4.605473     8B2     4.675494  
      13B1     4.857061    17A1     5.148733    18A1     5.246897  
      14B1     5.515508     9B2     6.047597    19A1     6.575322  
      10B2     6.889453     6A2     6.925835    15B1     6.984803  
      20A1     7.005849    11B2     7.009443    21A1     7.191987  
       7A2     7.228212    22A1     7.437154    16B1     7.787361  
      17B1     8.276043    23A1    12.748081  

    Final Occupation by Irrep:
             A1    A2    B1    B2 
    DOCC [     3,    0,    1,    1 ]

  @RHF Final Energy:   -76.05632601465231

   => Energetics <=

    Nuclear Repulsion Energy =              9.1334334609951409
    One-Electron Energy =                -123.0024796425282716
    Two-Electron Energy =                  37.8127201668808226
    Total Energy =                        -76.0563260146523135

Computation Completed


Properties will be evaluated at   0.000000,   0.000000,   0.000000 [a0]

Properties computed using the SCF density matrix

  Nuclear Dipole Moment: [e a0]
     X:     0.0000      Y:     0.0000      Z:     1.0109

  Electronic Dipole Moment: [e a0]
     X:     0.0000      Y:     0.0000      Z:    -0.1959

  Dipole Moment: [e a0]
     X:     0.0000      Y:     0.0000      Z:     0.8150     Total:     0.8150

  Dipole Moment: [D]
     X:     0.0000      Y:     0.0000      Z:     2.0715     Total:     2.0715


*** tstop() called on atlantis at Tue Apr 19 00:21:09 2022
Module time:
	user time   =       0.37 seconds =       0.01 minutes
	system time =       0.01 seconds =       0.00 minutes
	total time  =          1 seconds =       0.02 minutes
Total time:
	user time   =       1.03 seconds =       0.02 minutes
	system time =       0.12 seconds =       0.00 minutes
	total time  =          1 seconds =       0.02 minutes
 MINTS: Wrapper to libmints.
   by Justin Turney

   Calculation information:
      Number of threads:                 1
      Number of atoms:                   3
      Number of AO shells:              22
      Number of SO shells:              16
      Number of primitives:             42
      Number of atomic orbitals:        65
      Number of basis functions:        58

      Number of irreps:                  4
      Integral cutoff                 0.00e+00
      Number of functions per irrep: [  23    7   17   11 ]

 OEINTS: Overlap, kinetic, potential, dipole, and quadrupole integrals
         stored in file 35.

      Computing two-electron integrals...done
      Computed 355415 non-zero two-electron integrals.
        Stored in file 33.


*** tstart() called on atlantis
*** at Tue Apr 19 00:21:09 2022


	Wfn Parameters:
	--------------------
	Wavefunction         = CCSD
	Number of irreps     = 4
	Number of MOs        = 58
	Number of active MOs = 58
	AO-Basis             = NONE
	Semicanonical        = false
	Reference            = RHF
	Print Level          = 1

	IRREP	# MOs	# FZDC	# DOCC	# SOCC	# VIRT	# FZVR
	-----	-----	------	------	------	------	------
	 A1	   23	    0	    3	    0	    20	    0
	 A2	   7	    0	    0	    0	    7	    0
	 B1	   17	    0	    1	    0	    16	    0
	 B2	   11	    0	    1	    0	    10	    0
	Transforming integrals...
	IWL integrals will be deleted.
	(OO|OO)...
	Presorting SO-basis two-electron integrals.
	Sorting File: SO Ints (nn|nn) nbuckets = 1
	Transforming the one-electron integrals and constructing Fock matrices
	Starting first half-transformation.
	Sorting half-transformed integrals.
	First half integral transformation complete.
	Starting second half-transformation.
	Two-electron integral transformation complete.
	(OO|OV)...
	Starting second half-transformation.
	Two-electron integral transformation complete.
	(OO|VV)...
	Starting second half-transformation.
	Two-electron integral transformation complete.
	(OV|OO)...
	Starting first half-transformation.
	Sorting half-transformed integrals.
	First half integral transformation complete.
	Starting second half-transformation.
	Two-electron integral transformation complete.
	(OV|OV)...
	Starting second half-transformation.
	Two-electron integral transformation complete.
	(OV|VV)...
	Starting second half-transformation.
	Two-electron integral transformation complete.
	(VV|OO)...
	Starting first half-transformation.
	Sorting half-transformed integrals.
	First half integral transformation complete.
	Starting second half-transformation.
	Two-electron integral transformation complete.
	(VV|OV)...
	Starting second half-transformation.
	Two-electron integral transformation complete.
	(VV|VV)...
	Starting second half-transformation.
	Two-electron integral transformation complete.
	Frozen core energy     =      0.00000000000000

	Size of irrep 0 of <ab|cd> integrals:      0.648 (MW) /      5.184 (MB)
	Size of irrep 1 of <ab|cd> integrals:      0.360 (MW) /      2.880 (MB)
	Size of irrep 2 of <ab|cd> integrals:      0.608 (MW) /      4.867 (MB)
	Size of irrep 3 of <ab|cd> integrals:      0.389 (MW) /      3.115 (MB)
	Total:                                     2.006 (MW) /     16.046 (MB)

	Size of irrep 0 of <ia|bc> integrals:      0.069 (MW) /      0.554 (MB)
	Size of irrep 1 of <ia|bc> integrals:      0.028 (MW) /      0.226 (MB)
	Size of irrep 2 of <ia|bc> integrals:      0.059 (MW) /      0.468 (MB)
	Size of irrep 3 of <ia|bc> integrals:      0.036 (MW) /      0.285 (MB)
	Total:                                     0.191 (MW) /      1.532 (MB)

	Size of irrep 0 of tijab amplitudes:       0.009 (MW) /      0.071 (MB)
	Size of irrep 1 of tijab amplitudes:       0.001 (MW) /      0.010 (MB)
	Size of irrep 2 of tijab amplitudes:       0.005 (MW) /      0.037 (MB)
	Size of irrep 3 of tijab amplitudes:       0.004 (MW) /      0.030 (MB)
	Total:                                     0.018 (MW) /      0.148 (MB)

	Nuclear Rep. energy          =      9.13343346099514
	SCF energy                   =    -76.05632601465231
	One-electron energy          =   -123.00247964309857
	Two-electron energy          =     37.81272016745122
	Reference energy             =    -76.05632601465221

*** tstop() called on atlantis at Tue Apr 19 00:21:09 2022
Module time:
	user time   =       0.10 seconds =       0.00 minutes
	system time =       0.05 seconds =       0.00 minutes
	total time  =          0 seconds =       0.00 minutes
Total time:
	user time   =       1.19 seconds =       0.02 minutes
	system time =       0.18 seconds =       0.00 minutes
	total time  =          1 seconds =       0.02 minutes
            **************************
            *                        *
            *        CCENERGY        *
            *                        *
            **************************

    Nuclear Rep. energy (wfn)     =    9.133433460995141
    SCF energy          (wfn)     =  -76.056326014652313
    Reference energy    (file100) =  -76.056326014652214

    Input parameters:
    -----------------
    Wave function   =     CCSD
    Reference wfn   =     RHF
    Brueckner       =     No
    Memory (Mbytes) =     524.3
    Maxiter         =     50
    R_Convergence   =     1.0e-07
    E_Convergence   =     1.0e-08
    Restart         =     Yes
    DIIS            =     Yes
    AO Basis        =     NONE
    ABCD            =     NEW
    Cache Level     =     2
    Cache Type      =     LOW
    Print Level     =     1
    Num. of threads =     1
    # Amps to Print =     10
    Print MP2 Amps? =     No
    Analyze T2 Amps =     No
    Print Pair Ener =     No
    Local CC        =     No
    SCS-MP2         =     False
    SCSN-MP2        =     False
    SCS-CCSD        =     False

    Using old T1 amplitudes.
    Using old T2 amplitudes.

MP2 correlation energy -0.2757986576269813
                Solving CC Amplitude Equations
                ------------------------------
  Iter             Energy              RMS        T1Diag      D1Diag    New D1Diag    D2Diag
  ----     ---------------------    ---------   ----------  ----------  ----------   --------
     0        -0.281461074913268    0.000e+00    0.005904    0.010749    0.010749    0.127180
     1        -0.281461076114625    2.054e-08    0.005904    0.010749    0.010749    0.127180
     2        -0.281461076020428    9.579e-09    0.005904    0.010749    0.010749    0.127180

    Iterations converged.


    Largest TIA Amplitudes:
              4  43        -0.0073305931
              3  31         0.0060367753
              2   0        -0.0055351531
              4  44        -0.0049933542
              2   3         0.0045324910
              2   5        -0.0044912786
              1   2         0.0041692808
              3  36         0.0039815601
              2  11         0.0039394181
              2   2        -0.0034683212

    Largest TIjAb Amplitudes:
      4   4  43  43        -0.0476714940
      2   2   2   2        -0.0292781876
      3   3  28  28        -0.0276870166
      2   4   2  43        -0.0257992979
      4   2  43   2        -0.0257992979
      3   3   1   1        -0.0250335428
      3   3  29  29        -0.0226074496
      2   2  28  28        -0.0223705904
      3   4  29  43        -0.0222703662
      4   3  43  29        -0.0222703662

    SCF energy       (wfn)                    =  -76.056326014652313
    Reference energy (file100)                =  -76.056326014652214

    Opposite-spin MP2 correlation energy      =   -0.209068970649838
    Same-spin MP2 correlation energy          =   -0.066729686977144
    MP2 correlation energy                    =   -0.275798657626981
      * MP2 total energy                      =  -76.332124672279193

    Opposite-spin CCSD correlation energy     =   -0.221806076071363
    Same-spin CCSD correlation energy         =   -0.059654999949065
    CCSD correlation energy                   =   -0.281461076020428
      * CCSD total energy                     =  -76.337787090672649


			**************************
			*                        *
			*         CCHBAR         *
			*                        *
			**************************


			**************************
			*        CCLAMBDA        *
			**************************


	Nuclear Rep. energy (wfn)     =    9.133433460995141
	Reference           (wfn)     =                    0
	SCF energy          (wfn)     =  -76.056326014652313
	Reference energy    (CC_INFO) =  -76.056326014652214
	CCSD energy         (CC_INFO) =   -0.281461076020428
	Total CCSD energy   (CC_INFO) =  -76.337787090672649

	Input parameters:
	-----------------
	Maxiter           =     50
	Convergence       = 1.0e-07
	Restart           =     No
	Cache Level       =     2
	Model III         =     No
	DIIS              =     Yes
	AO Basis          =     No
	ABCD              =     NEW
	Local CC          =     No
	Parameters for left-handed eigenvectors:
	    Irr   Root  Ground-State?    EOM energy        R0
	  1   0     0        Yes       0.0000000000   1.0000000000
	Labels for eigenvector 1:
	LIA 0 -1, Lia 0 -1, LIJAB 0 -1, Lijab 0 -1, LIjAb 0 -1, 2LIjAb - LIjbA 0 -1
	Symmetry of left-hand state: A1
	Symmetry of left-hand eigenvector: A1

	          Solving Lambda Equations
	          ------------------------
	Iter     PseudoEnergy or Norm         RMS  
	----     ---------------------     --------
	   0        -0.281495082006426    0.000e+00
	   1        -0.276744776259083    7.361e-03
	   2        -0.276138063673333    1.497e-03
	   3        -0.276076032252587    5.382e-04
	   4        -0.276073951529879    1.319e-04
	   5        -0.276075788495198    5.333e-05
	   6        -0.276075500971927    1.677e-05
	   7        -0.276075365423787    4.743e-06
	   8        -0.276075472161413    8.451e-07
	   9        -0.276075474210195    1.914e-07
	  10        -0.276075471942974    3.866e-08

	Largest LIA Amplitudes:
	          3  31         0.0047723248
	          4  43        -0.0046822294
	          2   0        -0.0037529220
	          4  44        -0.0035743104
	          2   5        -0.0035331019
	          1   2         0.0033941744
	          3  29         0.0031909267
	          2   3         0.0031762742
	          3  36         0.0030937407
	          2  11         0.0029682980

	Largest LIjAb Amplitudes:
	  4   4  43  43        -0.0470477345
	  2   2   2   2        -0.0287682896
	  3   3  28  28        -0.0269583347
	  2   4   2  43        -0.0254279192
	  4   2  43   2        -0.0254279192
	  3   3   1   1        -0.0242024252
	  3   3  29  29        -0.0222383126
	  3   4  29  43        -0.0219427384
	  4   3  43  29        -0.0219427384
	  2   2  28  28        -0.0216604864

	Iterations converged.

	Overlap <L|e^T> =        0.93575687984

			**************************
			*                        *
			*        CCDENSITY       *
			*                        *
			**************************


	Input parameters:
	-----------------
	Wave function    =   CCSD
	Reference wfn    =   RHF
	Dertype          = 1
	Tolerance        = 1.0e-14
	Cache Level      = 2
	AO Basis         = No
	OPDM Only        = No
	Relax OPDM       = Yes
	Compute Xi       = No
	Use Zeta         = No
	Xi connected     = Yes
	Compute NO       = No

	Nuclear Rep. energy (wfn)     =    9.133433460995141
	SCF energy          (wfn)     =  -76.056326014652313
	Reference energy    (file100) =  -76.056326014652214
	CCSD energy         (CC_INFO) =   -0.281461076020428
	Total CCSD energy   (CC_INFO) =  -76.337787090672649
	Number of States = 1

	Ground?  State     EOM Energy       R0
	  Yes     0 A1    0.0000000000   1.00000000

	Virial Theorem Data:
	--------------------
	Kinetic energy (ref)   =   75.982439054840754
	Kinetic energy (corr)  =    0.299063402899510
	Kinetic energy (total) =   76.281502457740260
	-V/T (ref)             =    2.000972421532272
	-V/T (corr)            =    1.941141822408150
	-V/T (total)           =    2.000737854278153
  Cartesian Displacement SALCs
  By SALC:
  Number of SALCs: 3, nirreps: A1
  Project out translations: False
  Project out rotations: False
	irrep = 0, ncomponent = 1
		0: atom 0, direction z, coef 1.000000
	irrep = 0, ncomponent = 2
		0: atom 1, direction x, coef 0.707107
		1: atom 2, direction x, coef -0.707107
	irrep = 0, ncomponent = 2
		0: atom 1, direction z, coef 0.707107
		1: atom 2, direction z, coef 0.707107

  By Atomic Center:
  Number of atomic centers: 3
   Atomic Center 0:
	x component, size = 0
	y component, size = 0
	z component, size = 1
		0: salc 0, irrep 0, coef 1.000000
   Atomic Center 1:
	x component, size = 1
		0: salc 1, irrep 0, coef 0.707107
	y component, size = 0
	z component, size = 1
		0: salc 2, irrep 0, coef 0.707107
   Atomic Center 2:
	x component, size = 1
		0: salc 1, irrep 0, coef -0.707107
	y component, size = 0
	z component, size = 1
		0: salc 2, irrep 0, coef 0.707107

    Molecular point group: c2v
    Full point group: C2v

    Geometry (in Bohr), charge = 0, multiplicity = 1:

       Center              X                  Y                   Z       
    ------------   -----------------  -----------------  -----------------
         O            0.000000000000     0.000000000000    -0.128443286339
         H            1.415461559752     0.000000000000     1.019244081436
         H           -1.415461559752    -0.000000000000     1.019244081436

	Presorting MO-basis TPDM.
	Sorting File: MO TPDM (AA|AA) nbuckets = 1
	Starting first half-transformation.
	Sorting half-transformed TPDM.
	First half integral transformation complete.


  -Nuclear Repulsion Energy 1st Derivatives:
     Atom            X                  Y                   Z
    ------   -----------------  -----------------  -----------------
       1        0.000000000000     0.000000000000     3.034559410088
       2       -1.996065495508    -0.000000000000    -1.517279705044
       3        1.996065495508     0.000000000000    -1.517279705044


  -Core Hamiltonian Gradient:
     Atom            X                  Y                   Z
    ------   -----------------  -----------------  -----------------
       1        0.000000000000    -0.000000000000    -7.138267613461
       2        4.337899234600     0.000000000000     3.569133806730
       3       -4.337899234600    -0.000000000000     3.569133806730


  -Lagrangian contribution to gradient:
     Atom            X                  Y                   Z
    ------   -----------------  -----------------  -----------------
       1        0.000000000000     0.000000000000     0.407976090827
       2       -0.212301907654    -0.000000000000    -0.203988045413
       3        0.212301907654     0.000000000000    -0.203988045413


  -Two-electron contribution to gradient:
     Atom            X                  Y                   Z
    ------   -----------------  -----------------  -----------------
       1        0.000000000000     0.000000000000     3.681656612923
       2       -2.125299064164    -0.000000000000    -1.840828306462
       3        2.125299064164     0.000000000000    -1.840828306462


  -Total gradient:
     Atom            X                  Y                   Z
    ------   -----------------  -----------------  -----------------
       1        0.000000000000    -0.000000000000    -0.014075499622
       2        0.004232767274     0.000000000000     0.007037749811
       3       -0.004232767274    -0.000000000000     0.007037749811


  Based on options and gradient (rms=6.08E-03), recommend projecting translations and projecting rotations.
hessian() will perform frequency computation by finite difference of analytic gradients.

         ----------------------------------------------------------
                                   FINDIF
                     R. A. King and Jonathon Misiewicz
         ---------------------------------------------------------

  Using finite-differences of gradients to determine vibrational frequencies and 
  normal modes.  Resulting frequencies are only valid at stationary points.
    Generating geometries for use with 3-point formula.
    Displacement size will be 5.00e-03.
    Number of atoms is 3.
    Number of irreps is 4.
    Number of SALCs is 3.
    Translations projected? 1. Rotations projected? 1.
    Index of SALCs per irrep:
     1 :  0  1 
     2 : 
     3 :  2 
     4 : 
    Number of SALCs per irrep:
     Irrep 1: 2
     Irrep 2: 0
     Irrep 3: 1
     Irrep 4: 0
    Number of geometries (including reference) is 6.
    Number of displacements per irrep:
      Irrep 1: 4
      Irrep 2: 0
      Irrep 3: 1
      Irrep 4: 0

  //>>>>>>>>>>>>>>>>>>>>>>>>>>>>>>>>>>>//
  //    Loading displacement 1 of 6    //
  //<<<<<<<<<<<<<<<<<<<<<<<<<<<<<<<<<<<//
gradient() will perform analytic gradient computation.

*** tstart() called on atlantis
*** at Tue Apr 19 00:21:10 2022

   => Loading Basis Set <=

    Name: CC-PVTZ
    Role: ORBITAL
    Keyword: BASIS
    atoms 1   entry O          line   262 file /home/akrom/software/anaconda3/envs/ffpenv/share/psi4/basis/cc-pvtz.gbs 
    atoms 2-3 entry H          line    23 file /home/akrom/software/anaconda3/envs/ffpenv/share/psi4/basis/cc-pvtz.gbs 


         ---------------------------------------------------------
                                   SCF
               by Justin Turney, Rob Parrish, Andy Simmonett
                          and Daniel G. A. Smith
                              RHF Reference
                        1 Threads,    500 MiB Core
         ---------------------------------------------------------

  ==> Geometry <==

    Molecular point group: c2v
    Full point group: C2v

    Geometry (in Angstrom), charge = 0, multiplicity = 1:

       Center              X                  Y                   Z               Mass       
    ------------   -----------------  -----------------  -----------------  -----------------
         O            0.000000000000     0.000000000000    -0.067969259994    15.994914619570
         H            0.749030000000     0.000000000000     0.539360740006     1.007825032230
         H           -0.749030000000    -0.000000000000     0.539360740006     1.007825032230

  Running in c2v symmetry.

  Rotational constants: A =     25.53156  B =     14.90675  C =      9.41168 [cm^-1]
  Rotational constants: A = 765416.81232  B = 446893.08836  C = 282155.15104 [MHz]
  Nuclear repulsion =    9.133433460995141

  Charge       = 0
  Multiplicity = 1
  Electrons    = 10
  Nalpha       = 5
  Nbeta        = 5

  ==> Algorithm <==

  SCF Algorithm Type is PK.
  DIIS enabled.
  MOM disabled.
  Fractional occupation disabled.
  Guess Type is SAD.
  Energy threshold   = 1.00e-10
  Density threshold  = 1.00e-10
  Integral threshold = 0.00e+00

  ==> Primary Basis <==

  Basis Set: CC-PVTZ
    Blend: CC-PVTZ
    Number of shells: 22
    Number of basis function: 58
    Number of Cartesian functions: 65
    Spherical Harmonics?: true
    Max angular momentum: 3

  ==> Pre-Iterations <==

   -------------------------------------------------------
    Irrep   Nso     Nmo     Nalpha   Nbeta   Ndocc  Nsocc
   -------------------------------------------------------
     A1        23      23       0       0       0       0
     A2         7       7       0       0       0       0
     B1        17      17       0       0       0       0
     B2        11      11       0       0       0       0
   -------------------------------------------------------
    Total      58      58       5       5       5       0
   -------------------------------------------------------

  ==> Integral Setup <==

  Using in-core PK algorithm.
   Calculation information:
      Number of atoms:                   3
      Number of AO shells:              22
      Number of primitives:             42
      Number of atomic orbitals:        65
      Number of basis functions:        58

      Integral cutoff                 1.00e-12
      Number of threads:                 1

  Performing in-core PK
  Using 2929232 doubles for integral storage.
  We computed 32131 shell quartets total.
  Whereas there are 32131 unique shell quartets.

  ==> DiskJK: Disk-Based J/K Matrices <==

    J tasked:                  Yes
    K tasked:                  Yes
    wK tasked:                  No
    Memory [MiB]:              375
    Schwarz Cutoff:          1E-12

    OpenMP threads:              1

  Minimum eigenvalue in the overlap matrix is 2.5816020467E-03.
  Using Symmetric Orthogonalization.

  SCF Guess: Superposition of Atomic Densities via on-the-fly atomic UHF.

  ==> Iterations <==

                        Total Energy        Delta E     RMS |[F,P]|

   @RHF iter SAD:   -75.49574447026735   -7.54957e+01   0.00000e+00 
   @RHF iter   1:   -75.97729779973052   -4.81553e-01   1.43580e-02 DIIS
   @RHF iter   2:   -76.02990174085333   -5.26039e-02   9.35586e-03 DIIS
   @RHF iter   3:   -76.05590306739853   -2.60013e-02   6.99309e-04 DIIS
   @RHF iter   4:   -76.05629852408026   -3.95457e-04   1.73089e-04 DIIS
   @RHF iter   5:   -76.05632433279722   -2.58087e-05   3.59625e-05 DIIS
   @RHF iter   6:   -76.05632595424316   -1.62145e-06   6.86160e-06 DIIS
   @RHF iter   7:   -76.05632601352467   -5.92815e-08   1.04879e-06 DIIS
   @RHF iter   8:   -76.05632601462601   -1.10134e-09   1.54108e-07 DIIS
   @RHF iter   9:   -76.05632601465014   -2.41300e-11   4.27127e-08 DIIS
   @RHF iter  10:   -76.05632601465221   -2.07478e-12   6.02385e-09 DIIS
   @RHF iter  11:   -76.05632601465213    8.52651e-14   8.53301e-10 DIIS
   @RHF iter  12:   -76.05632601465230   -1.70530e-13   1.39745e-10 DIIS
   @RHF iter  13:   -76.05632601465236   -5.68434e-14   1.60436e-11 DIIS
  Energy and wave function converged.


  ==> Post-Iterations <==

    Orbital Energies [Eh]
    ---------------------

    Doubly Occupied:                                                      

       1A1   -20.557263     2A1    -1.343997     1B1    -0.700970  
       3A1    -0.581520     1B2    -0.504770  

    Virtual:                                                              

       4A1     0.141022     2B1     0.203928     3B1     0.537034  
       5A1     0.607233     6A1     0.667848     2B2     0.786838  
       7A1     0.787186     4B1     0.806677     1A2     0.865202  
       3B2     0.943698     8A1     1.140005     5B1     1.200468  
       6B1     1.514568     9A1     1.561040     4B2     2.045582  
       2A2     2.057628     7B1     2.060993    10A1     2.172423  
      11A1     2.232812    12A1     2.576170     8B1     2.964984  
       5B2     3.331244    13A1     3.474328     3A2     3.598550  
       9B1     3.661697     6B2     3.790909    10B1     3.872399  
      14A1     3.890372     4A2     3.964963     7B2     4.012505  
      11B1     4.065636    15A1     4.186841     5A2     4.291415  
      16A1     4.349307    12B1     4.605473     8B2     4.675494  
      13B1     4.857061    17A1     5.148733    18A1     5.246897  
      14B1     5.515508     9B2     6.047597    19A1     6.575322  
      10B2     6.889453     6A2     6.925835    15B1     6.984803  
      20A1     7.005849    11B2     7.009443    21A1     7.191987  
       7A2     7.228212    22A1     7.437154    16B1     7.787361  
      17B1     8.276043    23A1    12.748081  

    Final Occupation by Irrep:
             A1    A2    B1    B2 
    DOCC [     3,    0,    1,    1 ]

  @RHF Final Energy:   -76.05632601465236

   => Energetics <=

    Nuclear Repulsion Energy =              9.1334334609951409
    One-Electron Energy =                -123.0024796425283995
    Two-Electron Energy =                  37.8127201668809008
    Total Energy =                        -76.0563260146523703

Computation Completed


Properties will be evaluated at   0.000000,   0.000000,   0.000000 [a0]

Properties computed using the SCF density matrix

  Nuclear Dipole Moment: [e a0]
     X:     0.0000      Y:     0.0000      Z:     1.0109

  Electronic Dipole Moment: [e a0]
     X:     0.0000      Y:     0.0000      Z:    -0.1959

  Dipole Moment: [e a0]
     X:     0.0000      Y:     0.0000      Z:     0.8150     Total:     0.8150

  Dipole Moment: [D]
     X:     0.0000      Y:     0.0000      Z:     2.0715     Total:     2.0715


*** tstop() called on atlantis at Tue Apr 19 00:21:11 2022
Module time:
	user time   =       0.37 seconds =       0.01 minutes
	system time =       0.00 seconds =       0.00 minutes
	total time  =          1 seconds =       0.02 minutes
Total time:
	user time   =       2.42 seconds =       0.04 minutes
	system time =       0.40 seconds =       0.01 minutes
	total time  =          3 seconds =       0.05 minutes
 MINTS: Wrapper to libmints.
   by Justin Turney

   Calculation information:
      Number of threads:                 1
      Number of atoms:                   3
      Number of AO shells:              22
      Number of SO shells:              16
      Number of primitives:             42
      Number of atomic orbitals:        65
      Number of basis functions:        58

      Number of irreps:                  4
      Integral cutoff                 0.00e+00
      Number of functions per irrep: [  23    7   17   11 ]

 OEINTS: Overlap, kinetic, potential, dipole, and quadrupole integrals
         stored in file 35.

      Computing two-electron integrals...done
      Computed 355415 non-zero two-electron integrals.
        Stored in file 33.


*** tstart() called on atlantis
*** at Tue Apr 19 00:21:11 2022


	Wfn Parameters:
	--------------------
	Wavefunction         = CCSD
	Number of irreps     = 4
	Number of MOs        = 58
	Number of active MOs = 58
	AO-Basis             = NONE
	Semicanonical        = false
	Reference            = RHF
	Print Level          = 1

	IRREP	# MOs	# FZDC	# DOCC	# SOCC	# VIRT	# FZVR
	-----	-----	------	------	------	------	------
	 A1	   23	    0	    3	    0	    20	    0
	 A2	   7	    0	    0	    0	    7	    0
	 B1	   17	    0	    1	    0	    16	    0
	 B2	   11	    0	    1	    0	    10	    0
	Transforming integrals...
	IWL integrals will be deleted.
	(OO|OO)...
	Presorting SO-basis two-electron integrals.
	Sorting File: SO Ints (nn|nn) nbuckets = 1
	Transforming the one-electron integrals and constructing Fock matrices
	Starting first half-transformation.
	Sorting half-transformed integrals.
	First half integral transformation complete.
	Starting second half-transformation.
	Two-electron integral transformation complete.
	(OO|OV)...
	Starting second half-transformation.
	Two-electron integral transformation complete.
	(OO|VV)...
	Starting second half-transformation.
	Two-electron integral transformation complete.
	(OV|OO)...
	Starting first half-transformation.
	Sorting half-transformed integrals.
	First half integral transformation complete.
	Starting second half-transformation.
	Two-electron integral transformation complete.
	(OV|OV)...
	Starting second half-transformation.
	Two-electron integral transformation complete.
	(OV|VV)...
	Starting second half-transformation.
	Two-electron integral transformation complete.
	(VV|OO)...
	Starting first half-transformation.
	Sorting half-transformed integrals.
	First half integral transformation complete.
	Starting second half-transformation.
	Two-electron integral transformation complete.
	(VV|OV)...
	Starting second half-transformation.
	Two-electron integral transformation complete.
	(VV|VV)...
	Starting second half-transformation.
	Two-electron integral transformation complete.
	Frozen core energy     =      0.00000000000000

	Size of irrep 0 of <ab|cd> integrals:      0.648 (MW) /      5.184 (MB)
	Size of irrep 1 of <ab|cd> integrals:      0.360 (MW) /      2.880 (MB)
	Size of irrep 2 of <ab|cd> integrals:      0.608 (MW) /      4.867 (MB)
	Size of irrep 3 of <ab|cd> integrals:      0.389 (MW) /      3.115 (MB)
	Total:                                     2.006 (MW) /     16.046 (MB)

	Size of irrep 0 of <ia|bc> integrals:      0.069 (MW) /      0.554 (MB)
	Size of irrep 1 of <ia|bc> integrals:      0.028 (MW) /      0.226 (MB)
	Size of irrep 2 of <ia|bc> integrals:      0.059 (MW) /      0.468 (MB)
	Size of irrep 3 of <ia|bc> integrals:      0.036 (MW) /      0.285 (MB)
	Total:                                     0.191 (MW) /      1.532 (MB)

	Size of irrep 0 of tijab amplitudes:       0.009 (MW) /      0.071 (MB)
	Size of irrep 1 of tijab amplitudes:       0.001 (MW) /      0.010 (MB)
	Size of irrep 2 of tijab amplitudes:       0.005 (MW) /      0.037 (MB)
	Size of irrep 3 of tijab amplitudes:       0.004 (MW) /      0.030 (MB)
	Total:                                     0.018 (MW) /      0.148 (MB)

	Nuclear Rep. energy          =      9.13343346099514
	SCF energy                   =    -76.05632601465236
	One-electron energy          =   -123.00247964309865
	Two-electron energy          =     37.81272016745126
	Reference energy             =    -76.05632601465226

*** tstop() called on atlantis at Tue Apr 19 00:21:11 2022
Module time:
	user time   =       0.10 seconds =       0.00 minutes
	system time =       0.03 seconds =       0.00 minutes
	total time  =          0 seconds =       0.00 minutes
Total time:
	user time   =       2.58 seconds =       0.04 minutes
	system time =       0.44 seconds =       0.01 minutes
	total time  =          3 seconds =       0.05 minutes
            **************************
            *                        *
            *        CCENERGY        *
            *                        *
            **************************

    Nuclear Rep. energy (wfn)     =    9.133433460995141
    SCF energy          (wfn)     =  -76.056326014652356
    Reference energy    (file100) =  -76.056326014652257

    Input parameters:
    -----------------
    Wave function   =     CCSD
    Reference wfn   =     RHF
    Brueckner       =     No
    Memory (Mbytes) =     524.3
    Maxiter         =     50
    R_Convergence   =     1.0e-07
    E_Convergence   =     1.0e-08
    Restart         =     Yes
    DIIS            =     Yes
    AO Basis        =     NONE
    ABCD            =     NEW
    Cache Level     =     2
    Cache Type      =     LOW
    Print Level     =     1
    Num. of threads =     1
    # Amps to Print =     10
    Print MP2 Amps? =     No
    Analyze T2 Amps =     No
    Print Pair Ener =     No
    Local CC        =     No
    SCS-MP2         =     False
    SCSN-MP2        =     False
    SCS-CCSD        =     False

MP2 correlation energy -0.2757986576269829
                Solving CC Amplitude Equations
                ------------------------------
  Iter             Energy              RMS        T1Diag      D1Diag    New D1Diag    D2Diag
  ----     ---------------------    ---------   ----------  ----------  ----------   --------
     0        -0.275798657626983    0.000e+00    0.000000    0.000000    0.000000    0.116950
     1        -0.275745422047053    2.930e-02    0.005164    0.009347    0.009347    0.120452
     2        -0.280710297042887    1.017e-02    0.005320    0.009446    0.009446    0.125200
     3        -0.281448998095310    3.287e-03    0.005849    0.010549    0.010549    0.126922
     4        -0.281438073941070    6.576e-04    0.005881    0.010622    0.010622    0.127135
     5        -0.281460134564341    2.032e-04    0.005897    0.010699    0.010699    0.127185
     6        -0.281461405797882    5.869e-05    0.005901    0.010729    0.010729    0.127182
     7        -0.281461442524011    1.930e-05    0.005903    0.010743    0.010743    0.127181
     8        -0.281461144858852    5.378e-06    0.005904    0.010748    0.010748    0.127180
     9        -0.281461062636830    1.096e-06    0.005904    0.010749    0.010749    0.127180
    10        -0.281461075124568    2.463e-07    0.005904    0.010749    0.010749    0.127180
    11        -0.281461074298925    4.713e-08    0.005904    0.010749    0.010749    0.127180
    12        -0.281461075704477    1.079e-08    0.005904    0.010749    0.010749    0.127180

    Iterations converged.


    Largest TIA Amplitudes:
              4  43        -0.0073305924
              3  31         0.0060367753
              2   0        -0.0055351569
              4  44        -0.0049933544
              2   3         0.0045324915
              2   5        -0.0044912781
              1   2         0.0041692804
              3  36         0.0039815600
              2  11         0.0039394179
              2   2        -0.0034683215

    Largest TIjAb Amplitudes:
      4   4  43  43        -0.0476714934
      2   2   2   2        -0.0292781870
      3   3  28  28        -0.0276870160
      2   4   2  43        -0.0257992978
      4   2  43   2        -0.0257992978
      3   3   1   1        -0.0250335430
      3   3  29  29        -0.0226074492
      2   2  28  28        -0.0223705908
      3   4  29  43        -0.0222703661
      4   3  43  29        -0.0222703661

    SCF energy       (wfn)                    =  -76.056326014652356
    Reference energy (file100)                =  -76.056326014652257

    Opposite-spin MP2 correlation energy      =   -0.209068970649839
    Same-spin MP2 correlation energy          =   -0.066729686977144
    MP2 correlation energy                    =   -0.275798657626983
      * MP2 total energy                      =  -76.332124672279235

    Opposite-spin CCSD correlation energy     =   -0.221806075124677
    Same-spin CCSD correlation energy         =   -0.059655000579800
    CCSD correlation energy                   =   -0.281461075704477
      * CCSD total energy                     =  -76.337787090356727


			**************************
			*                        *
			*         CCHBAR         *
			*                        *
			**************************


			**************************
			*        CCLAMBDA        *
			**************************


	Nuclear Rep. energy (wfn)     =    9.133433460995141
	Reference           (wfn)     =                    0
	SCF energy          (wfn)     =  -76.056326014652356
	Reference energy    (CC_INFO) =  -76.056326014652257
	CCSD energy         (CC_INFO) =   -0.281461075704477
	Total CCSD energy   (CC_INFO) =  -76.337787090356727

	Input parameters:
	-----------------
	Maxiter           =     50
	Convergence       = 1.0e-07
	Restart           =     No
	Cache Level       =     2
	Model III         =     No
	DIIS              =     Yes
	AO Basis          =     No
	ABCD              =     NEW
	Local CC          =     No
	Parameters for left-handed eigenvectors:
	    Irr   Root  Ground-State?    EOM energy        R0
	  1   0     0        Yes       0.0000000000   1.0000000000
	Labels for eigenvector 1:
	LIA 0 -1, Lia 0 -1, LIJAB 0 -1, Lijab 0 -1, LIjAb 0 -1, 2LIjAb - LIjbA 0 -1
	Symmetry of left-hand state: A1
	Symmetry of left-hand eigenvector: A1

	          Solving Lambda Equations
	          ------------------------
	Iter     PseudoEnergy or Norm         RMS  
	----     ---------------------     --------
	   0        -0.281495081691718    3.866e-08
	   1        -0.276744776095538    7.361e-03
	   2        -0.276138063633485    1.497e-03
	   3        -0.276076032264868    5.382e-04
	   4        -0.276073951558979    1.319e-04
	   5        -0.276075788532166    5.333e-05
	   6        -0.276075501008369    1.677e-05
	   7        -0.276075365460250    4.743e-06
	   8        -0.276075472197819    8.451e-07
	   9        -0.276075474246586    1.914e-07
	  10        -0.276075471979366    3.866e-08

	Largest LIA Amplitudes:
	          3  31         0.0047723248
	          4  43        -0.0046822294
	          2   0        -0.0037529220
	          4  44        -0.0035743104
	          2   5        -0.0035331018
	          1   2         0.0033941744
	          3  29         0.0031909267
	          2   3         0.0031762742
	          3  36         0.0030937407
	          2  11         0.0029682980

	Largest LIjAb Amplitudes:
	  4   4  43  43        -0.0470477345
	  2   2   2   2        -0.0287682896
	  3   3  28  28        -0.0269583347
	  2   4   2  43        -0.0254279192
	  4   2  43   2        -0.0254279192
	  3   3   1   1        -0.0242024252
	  3   3  29  29        -0.0222383126
	  3   4  29  43        -0.0219427384
	  4   3  43  29        -0.0219427384
	  2   2  28  28        -0.0216604864

	Iterations converged.

	Overlap <L|e^T> =        0.93575687999

			**************************
			*                        *
			*        CCDENSITY       *
			*                        *
			**************************


	Input parameters:
	-----------------
	Wave function    =   CCSD
	Reference wfn    =   RHF
	Dertype          = 1
	Tolerance        = 1.0e-14
	Cache Level      = 2
	AO Basis         = No
	OPDM Only        = No
	Relax OPDM       = Yes
	Compute Xi       = No
	Use Zeta         = No
	Xi connected     = Yes
	Compute NO       = No

	Nuclear Rep. energy (wfn)     =    9.133433460995141
	SCF energy          (wfn)     =  -76.056326014652356
	Reference energy    (file100) =  -76.056326014652257
	CCSD energy         (CC_INFO) =   -0.281461075704477
	Total CCSD energy   (CC_INFO) =  -76.337787090356727
	Number of States = 1

	Ground?  State     EOM Energy       R0
	  Yes     0 A1    0.0000000000   1.00000000

	Virial Theorem Data:
	--------------------
	Kinetic energy (ref)   =   75.982439054840640
	Kinetic energy (corr)  =    0.299063405136413
	Kinetic energy (total) =   76.281502459977048
	-V/T (ref)             =    2.000972421532274
	-V/T (corr)            =    1.941141814312229
	-V/T (total)           =    2.000737854244667
  Cartesian Displacement SALCs
  By SALC:
  Number of SALCs: 3, nirreps: A1
  Project out translations: False
  Project out rotations: False
	irrep = 0, ncomponent = 1
		0: atom 0, direction z, coef 1.000000
	irrep = 0, ncomponent = 2
		0: atom 1, direction x, coef 0.707107
		1: atom 2, direction x, coef -0.707107
	irrep = 0, ncomponent = 2
		0: atom 1, direction z, coef 0.707107
		1: atom 2, direction z, coef 0.707107

  By Atomic Center:
  Number of atomic centers: 3
   Atomic Center 0:
	x component, size = 0
	y component, size = 0
	z component, size = 1
		0: salc 0, irrep 0, coef 1.000000
   Atomic Center 1:
	x component, size = 1
		0: salc 1, irrep 0, coef 0.707107
	y component, size = 0
	z component, size = 1
		0: salc 2, irrep 0, coef 0.707107
   Atomic Center 2:
	x component, size = 1
		0: salc 1, irrep 0, coef -0.707107
	y component, size = 0
	z component, size = 1
		0: salc 2, irrep 0, coef 0.707107

    Molecular point group: c2v
    Full point group: C2v

    Geometry (in Bohr), charge = 0, multiplicity = 1:

       Center              X                  Y                   Z       
    ------------   -----------------  -----------------  -----------------
         O            0.000000000000     0.000000000000    -0.128443286339
         H            1.415461559752     0.000000000000     1.019244081436
         H           -1.415461559752    -0.000000000000     1.019244081436

	Presorting MO-basis TPDM.
	Sorting File: MO TPDM (AA|AA) nbuckets = 1
	Starting first half-transformation.
	Sorting half-transformed TPDM.
	First half integral transformation complete.


  -Nuclear Repulsion Energy 1st Derivatives:
     Atom            X                  Y                   Z
    ------   -----------------  -----------------  -----------------
       1        0.000000000000     0.000000000000     3.034559410088
       2       -1.996065495508    -0.000000000000    -1.517279705044
       3        1.996065495508     0.000000000000    -1.517279705044


  -Core Hamiltonian Gradient:
     Atom            X                  Y                   Z
    ------   -----------------  -----------------  -----------------
       1        0.000000000000    -0.000000000000    -7.138267611789
       2        4.337899235093     0.000000000000     3.569133805894
       3       -4.337899235093    -0.000000000000     3.569133805894


  -Lagrangian contribution to gradient:
     Atom            X                  Y                   Z
    ------   -----------------  -----------------  -----------------
       1        0.000000000000     0.000000000000     0.407976090238
       2       -0.212301907650    -0.000000000000    -0.203988045119
       3        0.212301907650     0.000000000000    -0.203988045119


  -Two-electron contribution to gradient:
     Atom            X                  Y                   Z
    ------   -----------------  -----------------  -----------------
       1        0.000000000000     0.000000000000     3.681656611846
       2       -2.125299064608    -0.000000000000    -1.840828305923
       3        2.125299064608     0.000000000000    -1.840828305923


  -Total gradient:
     Atom            X                  Y                   Z
    ------   -----------------  -----------------  -----------------
       1        0.000000000000    -0.000000000000    -0.014075499617
       2        0.004232767327     0.000000000000     0.007037749808
       3       -0.004232767327    -0.000000000000     0.007037749808


  //>>>>>>>>>>>>>>>>>>>>>>>>>>>>>>>>>>>//
  //    Loading displacement 2 of 6    //
  //<<<<<<<<<<<<<<<<<<<<<<<<<<<<<<<<<<<//
gradient() will perform analytic gradient computation.

*** tstart() called on atlantis
*** at Tue Apr 19 00:21:12 2022

   => Loading Basis Set <=

    Name: CC-PVTZ
    Role: ORBITAL
    Keyword: BASIS
    atoms 1   entry O          line   262 file /home/akrom/software/anaconda3/envs/ffpenv/share/psi4/basis/cc-pvtz.gbs 
    atoms 2-3 entry H          line    23 file /home/akrom/software/anaconda3/envs/ffpenv/share/psi4/basis/cc-pvtz.gbs 


         ---------------------------------------------------------
                                   SCF
               by Justin Turney, Rob Parrish, Andy Simmonett
                          and Daniel G. A. Smith
                              RHF Reference
                        1 Threads,    500 MiB Core
         ---------------------------------------------------------

  ==> Geometry <==

    Molecular point group: c2v
    Full point group: C2v

    Geometry (in Angstrom), charge = 0, multiplicity = 1:

       Center              X                  Y                   Z               Mass       
    ------------   -----------------  -----------------  -----------------  -----------------
         O            0.000000000000     0.000000000000    -0.068190581735    15.994914619570
         H            0.749030000000     0.000000000000     0.541117008324     1.007825032230
         H           -0.749030000000    -0.000000000000     0.541117008324     1.007825032230

  Running in c2v symmetry.

  Rotational constants: A =     25.36609  B =     14.90675  C =      9.38911 [cm^-1]
  Rotational constants: A = 760456.34809  B = 446893.08836  C = 281478.31580 [MHz]
  Nuclear repulsion =    9.122096529799810

  Charge       = 0
  Multiplicity = 1
  Electrons    = 10
  Nalpha       = 5
  Nbeta        = 5

  ==> Algorithm <==

  SCF Algorithm Type is PK.
  DIIS enabled.
  MOM disabled.
  Fractional occupation disabled.
  Guess Type is SAD.
  Energy threshold   = 1.00e-10
  Density threshold  = 1.00e-10
  Integral threshold = 0.00e+00

  ==> Primary Basis <==

  Basis Set: CC-PVTZ
    Blend: CC-PVTZ
    Number of shells: 22
    Number of basis function: 58
    Number of Cartesian functions: 65
    Spherical Harmonics?: true
    Max angular momentum: 3

  ==> Pre-Iterations <==

   -------------------------------------------------------
    Irrep   Nso     Nmo     Nalpha   Nbeta   Ndocc  Nsocc
   -------------------------------------------------------
     A1        23      23       0       0       0       0
     A2         7       7       0       0       0       0
     B1        17      17       0       0       0       0
     B2        11      11       0       0       0       0
   -------------------------------------------------------
    Total      58      58       5       5       5       0
   -------------------------------------------------------

  ==> Integral Setup <==

  Using in-core PK algorithm.
   Calculation information:
      Number of atoms:                   3
      Number of AO shells:              22
      Number of primitives:             42
      Number of atomic orbitals:        65
      Number of basis functions:        58

      Integral cutoff                 1.00e-12
      Number of threads:                 1

  Performing in-core PK
  Using 2929232 doubles for integral storage.
  We computed 32131 shell quartets total.
  Whereas there are 32131 unique shell quartets.

  ==> DiskJK: Disk-Based J/K Matrices <==

    J tasked:                  Yes
    K tasked:                  Yes
    wK tasked:                  No
    Memory [MiB]:              375
    Schwarz Cutoff:          1E-12

    OpenMP threads:              1

  Minimum eigenvalue in the overlap matrix is 2.5946794781E-03.
  Using Symmetric Orthogonalization.

  SCF Guess: Superposition of Atomic Densities via on-the-fly atomic UHF.

  ==> Iterations <==

                        Total Energy        Delta E     RMS |[F,P]|

   @RHF iter SAD:   -75.49441997687563   -7.54944e+01   0.00000e+00 
   @RHF iter   1:   -75.97706290655277   -4.82643e-01   1.43557e-02 DIIS
   @RHF iter   2:   -76.02965955888817   -5.25967e-02   9.36959e-03 DIIS
   @RHF iter   3:   -76.05575433989061   -2.60948e-02   7.00563e-04 DIIS
   @RHF iter   4:   -76.05615147414220   -3.97134e-04   1.73869e-04 DIIS
   @RHF iter   5:   -76.05617755974356   -2.60856e-05   3.61413e-05 DIIS
   @RHF iter   6:   -76.05617919802278   -1.63828e-06   6.88577e-06 DIIS
   @RHF iter   7:   -76.05617925761285   -5.95901e-08   1.04759e-06 DIIS
   @RHF iter   8:   -76.05617925870642   -1.09357e-09   1.53475e-07 DIIS
   @RHF iter   9:   -76.05617925873017   -2.37463e-11   4.24762e-08 DIIS
   @RHF iter  10:   -76.05617925873241   -2.24532e-12   6.04394e-09 DIIS
   @RHF iter  11:   -76.05617925873247   -5.68434e-14   8.57404e-10 DIIS
   @RHF iter  12:   -76.05617925873239    8.52651e-14   1.40674e-10 DIIS
   @RHF iter  13:   -76.05617925873229    9.94760e-14   1.60414e-11 DIIS
  Energy and wave function converged.


  ==> Post-Iterations <==

    Orbital Energies [Eh]
    ---------------------

    Doubly Occupied:                                                      

       1A1   -20.557574     2A1    -1.343498     1B1    -0.699952  
       3A1    -0.581644     1B2    -0.504733  

    Virtual:                                                              

       4A1     0.140854     2B1     0.203845     3B1     0.536227  
       5A1     0.607100     6A1     0.667979     7A1     0.786137  
       2B2     0.786778     4B1     0.806776     1A2     0.865337  
       3B2     0.942823     8A1     1.141157     5B1     1.200263  
       6B1     1.513061     9A1     1.559506     4B2     2.045835  
       2A2     2.056737     7B1     2.062741    10A1     2.172046  
      11A1     2.232977    12A1     2.575093     8B1     2.964332  
       5B2     3.329575    13A1     3.472746     3A2     3.599211  
       9B1     3.660894     6B2     3.789583    10B1     3.871346  
      14A1     3.890581     4A2     3.964545     7B2     4.011938  
      11B1     4.064518    15A1     4.185475     5A2     4.288835  
      16A1     4.345446    12B1     4.604382     8B2     4.674157  
      13B1     4.855699    17A1     5.145071    18A1     5.246323  
      14B1     5.514159     9B2     6.045678    19A1     6.572564  
      10B2     6.884012     6A2     6.923175    15B1     6.976772  
      20A1     7.002461    11B2     7.010231    21A1     7.193483  
       7A2     7.225976    22A1     7.435443    16B1     7.784956  
      17B1     8.271601    23A1    12.726805  

    Final Occupation by Irrep:
             A1    A2    B1    B2 
    DOCC [     3,    0,    1,    1 ]

  @RHF Final Energy:   -76.05617925873229

   => Energetics <=

    Nuclear Repulsion Energy =              9.1220965297998102
    One-Electron Energy =                -122.9817493203241270
    Two-Electron Energy =                  37.8034735317920365
    Total Energy =                        -76.0561792587322856

Computation Completed


Properties will be evaluated at   0.000000,   0.000000,   0.000000 [a0]

Properties computed using the SCF density matrix

  Nuclear Dipole Moment: [e a0]
     X:     0.0000      Y:     0.0000      Z:     1.0142

  Electronic Dipole Moment: [e a0]
     X:     0.0000      Y:     0.0000      Z:    -0.1977

  Dipole Moment: [e a0]
     X:     0.0000      Y:     0.0000      Z:     0.8165     Total:     0.8165

  Dipole Moment: [D]
     X:     0.0000      Y:     0.0000      Z:     2.0754     Total:     2.0754


*** tstop() called on atlantis at Tue Apr 19 00:21:12 2022
Module time:
	user time   =       0.36 seconds =       0.01 minutes
	system time =       0.00 seconds =       0.00 minutes
	total time  =          0 seconds =       0.00 minutes
Total time:
	user time   =       3.60 seconds =       0.06 minutes
	system time =       0.71 seconds =       0.01 minutes
	total time  =          4 seconds =       0.07 minutes
 MINTS: Wrapper to libmints.
   by Justin Turney

   Calculation information:
      Number of threads:                 1
      Number of atoms:                   3
      Number of AO shells:              22
      Number of SO shells:              16
      Number of primitives:             42
      Number of atomic orbitals:        65
      Number of basis functions:        58

      Number of irreps:                  4
      Integral cutoff                 0.00e+00
      Number of functions per irrep: [  23    7   17   11 ]

 OEINTS: Overlap, kinetic, potential, dipole, and quadrupole integrals
         stored in file 35.

      Computing two-electron integrals...done
      Computed 355727 non-zero two-electron integrals.
        Stored in file 33.


*** tstart() called on atlantis
*** at Tue Apr 19 00:21:12 2022


	Wfn Parameters:
	--------------------
	Wavefunction         = CCSD
	Number of irreps     = 4
	Number of MOs        = 58
	Number of active MOs = 58
	AO-Basis             = NONE
	Semicanonical        = false
	Reference            = RHF
	Print Level          = 1

	IRREP	# MOs	# FZDC	# DOCC	# SOCC	# VIRT	# FZVR
	-----	-----	------	------	------	------	------
	 A1	   23	    0	    3	    0	    20	    0
	 A2	   7	    0	    0	    0	    7	    0
	 B1	   17	    0	    1	    0	    16	    0
	 B2	   11	    0	    1	    0	    10	    0
	Transforming integrals...
	IWL integrals will be deleted.
	(OO|OO)...
	Presorting SO-basis two-electron integrals.
	Sorting File: SO Ints (nn|nn) nbuckets = 1
	Transforming the one-electron integrals and constructing Fock matrices
	Starting first half-transformation.
	Sorting half-transformed integrals.
	First half integral transformation complete.
	Starting second half-transformation.
	Two-electron integral transformation complete.
	(OO|OV)...
	Starting second half-transformation.
	Two-electron integral transformation complete.
	(OO|VV)...
	Starting second half-transformation.
	Two-electron integral transformation complete.
	(OV|OO)...
	Starting first half-transformation.
	Sorting half-transformed integrals.
	First half integral transformation complete.
	Starting second half-transformation.
	Two-electron integral transformation complete.
	(OV|OV)...
	Starting second half-transformation.
	Two-electron integral transformation complete.
	(OV|VV)...
	Starting second half-transformation.
	Two-electron integral transformation complete.
	(VV|OO)...
	Starting first half-transformation.
	Sorting half-transformed integrals.
	First half integral transformation complete.
	Starting second half-transformation.
	Two-electron integral transformation complete.
	(VV|OV)...
	Starting second half-transformation.
	Two-electron integral transformation complete.
	(VV|VV)...
	Starting second half-transformation.
	Two-electron integral transformation complete.
	Frozen core energy     =      0.00000000000000

	Size of irrep 0 of <ab|cd> integrals:      0.648 (MW) /      5.184 (MB)
	Size of irrep 1 of <ab|cd> integrals:      0.360 (MW) /      2.880 (MB)
	Size of irrep 2 of <ab|cd> integrals:      0.608 (MW) /      4.867 (MB)
	Size of irrep 3 of <ab|cd> integrals:      0.389 (MW) /      3.115 (MB)
	Total:                                     2.006 (MW) /     16.046 (MB)

	Size of irrep 0 of <ia|bc> integrals:      0.069 (MW) /      0.554 (MB)
	Size of irrep 1 of <ia|bc> integrals:      0.028 (MW) /      0.226 (MB)
	Size of irrep 2 of <ia|bc> integrals:      0.059 (MW) /      0.468 (MB)
	Size of irrep 3 of <ia|bc> integrals:      0.036 (MW) /      0.285 (MB)
	Total:                                     0.191 (MW) /      1.532 (MB)

	Size of irrep 0 of tijab amplitudes:       0.009 (MW) /      0.071 (MB)
	Size of irrep 1 of tijab amplitudes:       0.001 (MW) /      0.010 (MB)
	Size of irrep 2 of tijab amplitudes:       0.005 (MW) /      0.037 (MB)
	Size of irrep 3 of tijab amplitudes:       0.004 (MW) /      0.030 (MB)
	Total:                                     0.018 (MW) /      0.148 (MB)

	Nuclear Rep. energy          =      9.12209652979981
	SCF energy                   =    -76.05617925873229
	One-electron energy          =   -122.98174932089748
	Two-electron energy          =     37.80347353236515
	Reference energy             =    -76.05617925873253

*** tstop() called on atlantis at Tue Apr 19 00:21:12 2022
Module time:
	user time   =       0.10 seconds =       0.00 minutes
	system time =       0.04 seconds =       0.00 minutes
	total time  =          0 seconds =       0.00 minutes
Total time:
	user time   =       3.77 seconds =       0.06 minutes
	system time =       0.75 seconds =       0.01 minutes
	total time  =          4 seconds =       0.07 minutes
            **************************
            *                        *
            *        CCENERGY        *
            *                        *
            **************************

    Nuclear Rep. energy (wfn)     =    9.122096529799810
    SCF energy          (wfn)     =  -76.056179258732286
    Reference energy    (file100) =  -76.056179258732527

    Input parameters:
    -----------------
    Wave function   =     CCSD
    Reference wfn   =     RHF
[...]
	Two-electron energy          =     37.81274079792644
	Reference energy             =    -76.05631887239349

*** tstop() called on atlantis at Tue Apr 19 00:21:19 2022
Module time:
	user time   =       0.19 seconds =       0.00 minutes
	system time =       0.08 seconds =       0.00 minutes
	total time  =          0 seconds =       0.00 minutes
Total time:
	user time   =       8.72 seconds =       0.15 minutes
	system time =       2.00 seconds =       0.03 minutes
	total time  =         11 seconds =       0.18 minutes
            **************************
            *                        *
            *        CCENERGY        *
            *                        *
            **************************

    Nuclear Rep. energy (wfn)     =    9.133468287774228
    SCF energy          (wfn)     =  -76.056318872393533
    Reference energy    (file100) =  -76.056318872393490

    Input parameters:
    -----------------
    Wave function   =     CCSD
    Reference wfn   =     RHF
    Brueckner       =     No
    Memory (Mbytes) =     524.3
    Maxiter         =     50
    R_Convergence   =     1.0e-07
    E_Convergence   =     1.0e-08
    Restart         =     Yes
    DIIS            =     Yes
    AO Basis        =     NONE
    ABCD            =     NEW
    Cache Level     =     2
    Cache Type      =     LOW
    Print Level     =     1
    Num. of threads =     1
    # Amps to Print =     10
    Print MP2 Amps? =     No
    Analyze T2 Amps =     No
    Print Pair Ener =     No
    Local CC        =     No
    SCS-MP2         =     False
    SCSN-MP2        =     False
    SCS-CCSD        =     False

MP2 correlation energy -0.2757986118891927
                Solving CC Amplitude Equations
                ------------------------------
  Iter             Energy              RMS        T1Diag      D1Diag    New D1Diag    D2Diag
  ----     ---------------------    ---------   ----------  ----------  ----------   --------
     0        -0.275798611889193    0.000e+00    0.000000    0.000000    0.000000    0.116961
     1        -0.275745424701930    2.930e-02    0.005164    0.009347    0.009347    0.120464
     2        -0.280710338223284    1.017e-02    0.005320    0.009447    0.009447    0.125214
     3        -0.281449048536810    3.287e-03    0.005849    0.010549    0.010549    0.126937
     4        -0.281438122745822    6.576e-04    0.005881    0.010622    0.010622    0.127151
     5        -0.281460183099863    2.032e-04    0.005897    0.010700    0.010700    0.127201
     6        -0.281461454312952    5.869e-05    0.005901    0.010730    0.010730    0.127198
     7        -0.281461490998995    1.930e-05    0.005903    0.010744    0.010744    0.127197
     8        -0.281461193353969    5.379e-06    0.005904    0.010748    0.010748    0.127197
     9        -0.281461111129170    1.096e-06    0.005904    0.010749    0.010749    0.127196
    10        -0.281461123619220    2.463e-07    0.005904    0.010749    0.010749    0.127196
    11        -0.281461122793523    4.714e-08    0.005904    0.010749    0.010749    0.127196
    12        -0.281461124199172    1.079e-08    0.005904    0.010749    0.010749    0.127196

    Iterations converged.


    Largest TIA Amplitudes:
              4  36        -0.0073306508
              2   9         0.0060278452
              3   0        -0.0055349437
              4  38        -0.0049933249
              3   5         0.0045324323
              3  10        -0.0044810713
              1   4         0.0041690301
              2  20         0.0039812719
              3  21         0.0039388424
              3   4        -0.0034680323

    Largest TIjAb Amplitudes:
      4   4  36  36        -0.0476687626
      3   3   4   4        -0.0292779870
      2   2   2   2        -0.0276855016
      3   4   4  36        -0.0257977501
      4   3  36   4        -0.0257977501
      2   2   3   3        -0.0250319382
      2   2   6   6        -0.0226065392
      3   3   2   2        -0.0223748787
      2   4   6  36        -0.0222684795
      4   2  36   6        -0.0222684795

    SCF energy       (wfn)                    =  -76.056318872393533
    Reference energy (file100)                =  -76.056318872393490

    Opposite-spin MP2 correlation energy      =   -0.209068980639202
    Same-spin MP2 correlation energy          =   -0.066729631249991
    MP2 correlation energy                    =   -0.275798611889193
      * MP2 total energy                      =  -76.332117484282676

    Opposite-spin CCSD correlation energy     =   -0.221806173027286
    Same-spin CCSD correlation energy         =   -0.059654951171886
    CCSD correlation energy                   =   -0.281461124199172
      * CCSD total energy                     =  -76.337779996592658


			**************************
			*                        *
			*         CCHBAR         *
			*                        *
			**************************


			**************************
			*        CCLAMBDA        *
			**************************


	Nuclear Rep. energy (wfn)     =    9.133468287774228
	Reference           (wfn)     =                    0
	SCF energy          (wfn)     =  -76.056318872393533
	Reference energy    (CC_INFO) =  -76.056318872393490
	CCSD energy         (CC_INFO) =   -0.281461124199172
	Total CCSD energy   (CC_INFO) =  -76.337779996592658

	Input parameters:
	-----------------
	Maxiter           =     50
	Convergence       = 1.0e-07
	Restart           =     No
	Cache Level       =     2
	Model III         =     No
	DIIS              =     Yes
	AO Basis          =     No
	ABCD              =     NEW
	Local CC          =     No
	Parameters for left-handed eigenvectors:
	    Irr   Root  Ground-State?    EOM energy        R0
	  1   0     0        Yes       0.0000000000   1.0000000000
	Labels for eigenvector 1:
	LIA 0 -1, Lia 0 -1, LIJAB 0 -1, Lijab 0 -1, LIjAb 0 -1, 2LIjAb - LIjbA 0 -1
	Symmetry of left-hand state: Ap
	Symmetry of left-hand eigenvector: Ap

	          Solving Lambda Equations
	          ------------------------
	Iter     PseudoEnergy or Norm         RMS  
	----     ---------------------     --------
	   0        -0.281495129931650    3.909e-08
	   1        -0.276744780781568    7.361e-03
	   2        -0.276138069375093    1.497e-03
	   3        -0.276076035599686    5.382e-04
	   4        -0.276073954696833    1.319e-04
	   5        -0.276075791652010    5.333e-05
	   6        -0.276075504100646    1.677e-05
	   7        -0.276075368560628    4.744e-06
	   8        -0.276075475301169    8.452e-07
	   9        -0.276075477351362    1.914e-07
	  10        -0.276075475083100    3.870e-08

	Largest LIA Amplitudes:
	          2   9         0.0047654729
	          4  36        -0.0046822364
	          3   0        -0.0037527431
	          4  38        -0.0035742950
	          3  10        -0.0035249623
	          1   4         0.0033939632
	          2   6         0.0031909263
	          3   5         0.0031762464
	          2  20         0.0030935428
	          3  21         0.0029678488

	Largest LIjAb Amplitudes:
	  4   4  36  36        -0.0470450379
	  3   3   4   4        -0.0287680883
	  2   2   2   2        -0.0269568008
	  3   4   4  36        -0.0254263956
	  4   3  36   4        -0.0254263956
	  2   2   3   3        -0.0242009204
	  2   2   6   6        -0.0222374082
	  2   4   6  36        -0.0219408800
	  4   2  36   6        -0.0219408800
	  3   3   2   2        -0.0216646402

	Iterations converged.

	Overlap <L|e^T> =        0.93575664482

			**************************
			*                        *
			*        CCDENSITY       *
			*                        *
			**************************


	Input parameters:
	-----------------
	Wave function    =   CCSD
	Reference wfn    =   RHF
	Dertype          = 1
	Tolerance        = 1.0e-14
	Cache Level      = 2
	AO Basis         = No
	OPDM Only        = No
	Relax OPDM       = Yes
	Compute Xi       = No
	Use Zeta         = No
	Xi connected     = Yes
	Compute NO       = No

	Nuclear Rep. energy (wfn)     =    9.133468287774228
	SCF energy          (wfn)     =  -76.056318872393533
	Reference energy    (file100) =  -76.056318872393490
	CCSD energy         (CC_INFO) =   -0.281461124199172
	Total CCSD energy   (CC_INFO) =  -76.337779996592658
	Number of States = 1

	Ground?  State     EOM Energy       R0
	  Yes     0 Ap    0.0000000000   1.00000000

	Virial Theorem Data:
	--------------------
	Kinetic energy (ref)   =   75.982464970018896
	Kinetic energy (corr)  =    0.299063099830697
	Kinetic energy (total) =   76.281528069849600
	-V/T (ref)             =    2.000971986133955
	-V/T (corr)            =    1.941142937254749
	-V/T (total)           =    2.000737425274066
  Cartesian Displacement SALCs
  By SALC:
  Number of SALCs: 6, nirreps: A'
  Project out translations: False
  Project out rotations: False
	irrep = 0, ncomponent = 1
		0: atom 0, direction x, coef 1.000000
	irrep = 0, ncomponent = 1
		0: atom 0, direction z, coef 1.000000
	irrep = 0, ncomponent = 1
		0: atom 1, direction x, coef 1.000000
	irrep = 0, ncomponent = 1
		0: atom 1, direction z, coef 1.000000
	irrep = 0, ncomponent = 1
		0: atom 2, direction x, coef 1.000000
	irrep = 0, ncomponent = 1
		0: atom 2, direction z, coef 1.000000

  By Atomic Center:
  Number of atomic centers: 3
   Atomic Center 0:
	x component, size = 1
		0: salc 0, irrep 0, coef 1.000000
	y component, size = 0
	z component, size = 1
		0: salc 1, irrep 0, coef 1.000000
   Atomic Center 1:
	x component, size = 1
		0: salc 2, irrep 0, coef 1.000000
	y component, size = 0
	z component, size = 1
		0: salc 3, irrep 0, coef 1.000000
   Atomic Center 2:
	x component, size = 1
		0: salc 4, irrep 0, coef 1.000000
	y component, size = 0
	z component, size = 1
		0: salc 5, irrep 0, coef 1.000000

    Molecular point group: cs
    Full point group: Cs

    Geometry (in Bohr), charge = 0, multiplicity = 1:

       Center              X                  Y                   Z       
    ------------   -----------------  -----------------  -----------------
         O           -0.000332326610     0.000000000000    -0.128443286339
         H            1.418098691984     0.000000000000     1.021382326257
         H           -1.412824427519     0.000000000000     1.017105836614

	Presorting MO-basis TPDM.
	Sorting File: MO TPDM (AA|AA) nbuckets = 1
	Starting first half-transformation.
	Sorting half-transformed TPDM.
	First half integral transformation complete.


  -Nuclear Repulsion Energy 1st Derivatives:
     Atom            X                  Y                   Z
    ------   -----------------  -----------------  -----------------
       1       -0.014657373499     0.000000000000     3.034598523291
       2       -1.988757858744     0.000000000000    -1.511189256655
       3        2.003415232243     0.000000000000    -1.523409266637


  -Core Hamiltonian Gradient:
     Atom            X                  Y                   Z
    ------   -----------------  -----------------  -----------------
       1        0.017704323956     0.000000000000    -7.138274634894
       2        4.329065202738     0.000000000000     3.561150838191
       3       -4.346769526694     0.000000000000     3.577123796703


  -Lagrangian contribution to gradient:
     Atom            X                  Y                   Z
    ------   -----------------  -----------------  -----------------
       1       -0.000288101976     0.000000000000     0.407970919073
       2       -0.212156798412     0.000000000000    -0.203831854704
       3        0.212444900388     0.000000000000    -0.204139064369


  -Two-electron contribution to gradient:
     Atom            X                  Y                   Z
    ------   -----------------  -----------------  -----------------
       1       -0.005783068899     0.000000000000     3.681646479947
       2       -2.122415423477     0.000000000000    -1.837882685630
       3        2.128198492377     0.000000000000    -1.843763794317


  -Total gradient:
     Atom            X                  Y                   Z
    ------   -----------------  -----------------  -----------------
       1       -0.003024220418     0.000000000000    -0.014058712583
       2        0.005735122105     0.000000000000     0.008247041202
       3       -0.002710901687     0.000000000000     0.005811671381


         ----------------------------------------------------------
                                   FINDIF
                     R. A. King and Jonathon Misiewicz
         ---------------------------------------------------------

  Computing second-derivative from gradients using projected, 
  symmetry-adapted, cartesian coordinates.

  6 gradients passed in, including the reference geometry.
  Generating complete list of displacements from unique ones.

    Operation 2 takes plus displacements of irrep B1 to minus ones.

-------------------------------------------------------------


  ==> Harmonic Vibrational Analysis <==

  non-mass-weighted Hessian:       Symmetric? True   Hermitian? True   Lin Dep Dim?  6 (0)
  projection of translations (True) and rotations (True) removed 6 degrees of freedom (6)
  total projector:                 Symmetric? True   Hermitian? True   Lin Dep Dim?  6 (6)
  mass-weighted Hessian:           Symmetric? True   Hermitian? True   Lin Dep Dim?  6 (0)
  pre-proj  low-frequency mode:    0.0000i [cm^-1]
  pre-proj  low-frequency mode:    0.0000i [cm^-1]
  pre-proj  low-frequency mode:    0.0000  [cm^-1]
  pre-proj  low-frequency mode:    0.0000  [cm^-1]
  pre-proj  low-frequency mode:    0.0000  [cm^-1]
  pre-proj  low-frequency mode:    0.0001  [cm^-1]
  pre-proj  all modes:['0.0000i' '0.0000i' '0.0000' '0.0000' '0.0000' '0.0001' '1713.8290'
 '3785.3772' '3872.4917']
  projected mass-weighted Hessian: Symmetric? True   Hermitian? True   Lin Dep Dim?  6 (6)
  post-proj low-frequency mode:    0.0000i [cm^-1] (TR)
  post-proj low-frequency mode:    0.0000  [cm^-1] (TR)
  post-proj low-frequency mode:    0.0000  [cm^-1] (TR)
  post-proj low-frequency mode:    0.0000  [cm^-1] (TR)
  post-proj low-frequency mode:    0.0000  [cm^-1] (TR)
  post-proj low-frequency mode:    0.0001  [cm^-1] (TR)
  post-proj  all modes:['0.0000i' '0.0000' '0.0000' '0.0000' '0.0000' '0.0001' '1713.8290'
 '3785.3772' '3872.4917']

  Vibration                       7                   8                   9           
  Freq [cm^-1]                1713.8290           3785.3772           3872.4917       
  Irrep                           A1                  A1                  B1          
  Reduced mass [u]              1.0817              1.0461              1.0793        
  Force const [mDyne/A]         1.8719              8.8317              9.5360        
  Turning point v=0 [a0]        0.2548              0.1744              0.1697        
  RMS dev v=0 [a0 u^1/2]        0.1874              0.1261              0.1247        
  Char temp [K]               2465.8184           5446.3150           5571.6534       
  ----------------------------------------------------------------------------------
      1   O               -0.00 -0.00 -0.07    0.00 -0.00 -0.05   -0.07 -0.00 -0.00   
      2   H               -0.43  0.00  0.56    0.58  0.00  0.40    0.55  0.00  0.44   
      3   H                0.43 -0.00  0.56   -0.58 -0.00  0.40    0.55 -0.00 -0.44   

  ==> Thermochemistry Components <==

  Entropy, S
    Electronic S            0.000 [cal/(mol K)]        0.000 [J/(mol K)]       0.00000000 [mEh/K] (multiplicity = 1)
    Translational S        34.608 [cal/(mol K)]      144.801 [J/(mol K)]       0.05515177 [mEh/K] (mol. weight = 18.0106 [u], P = 101325.00 [Pa])
    Rotational S           10.508 [cal/(mol K)]       43.968 [J/(mol K)]       0.01674635 [mEh/K] (symmetry no. = 2)
    Vibrational S           0.005 [cal/(mol K)]        0.020 [J/(mol K)]       0.00000752 [mEh/K]
  Total S                  45.121 [cal/(mol K)]      188.788 [J/(mol K)]       0.07190564 [mEh/K]
  Correction S              0.000 [cal/(mol K)]        0.000 [J/(mol K)]       0.00000000 [mEh/K]

  Constant volume heat capacity, Cv
    Electronic Cv           0.000 [cal/(mol K)]        0.000 [J/(mol K)]       0.00000000 [mEh/K]
    Translational Cv        2.981 [cal/(mol K)]       12.472 [J/(mol K)]       0.00475022 [mEh/K]
    Rotational Cv           2.981 [cal/(mol K)]       12.472 [J/(mol K)]       0.00475022 [mEh/K]
    Vibrational Cv          0.035 [cal/(mol K)]        0.146 [J/(mol K)]       0.00005550 [mEh/K]
  Total Cv                  5.996 [cal/(mol K)]       25.089 [J/(mol K)]       0.00955593 [mEh/K]
  Correction Cv             0.000 [cal/(mol K)]        0.000 [J/(mol K)]       0.00000000 [mEh/K]

  Constant pressure heat capacity, Cp
    Electronic Cp           0.000 [cal/(mol K)]        0.000 [J/(mol K)]       0.00000000 [mEh/K]
    Translational Cp        4.968 [cal/(mol K)]       20.786 [J/(mol K)]       0.00791703 [mEh/K]
    Rotational Cp           2.981 [cal/(mol K)]       12.472 [J/(mol K)]       0.00475022 [mEh/K]
    Vibrational Cp          0.035 [cal/(mol K)]        0.146 [J/(mol K)]       0.00005550 [mEh/K]
  Total Cp                  7.984 [cal/(mol K)]       33.404 [J/(mol K)]       0.01272274 [mEh/K]
  Correction Cp             0.000 [cal/(mol K)]        0.000 [J/(mol K)]       0.00000000 [mEh/K]

  ==> Thermochemistry Energy Analysis <==

  Raw electronic energy, E0
  Total E0, Electronic energy at well bottom at 0 [K]                  -76.33778709 [Eh]

  Zero-point energy, ZPE_vib = Sum_i nu_i / 2
    Electronic ZPE          0.000 [kcal/mol]        0.000 [kJ/mol]       0.00000000 [Eh]
    Translational ZPE       0.000 [kcal/mol]        0.000 [kJ/mol]       0.00000000 [Eh]
    Rotational ZPE          0.000 [kcal/mol]        0.000 [kJ/mol]       0.00000000 [Eh]
    Vibrational ZPE        13.398 [kcal/mol]       56.055 [kJ/mol]       0.02135030 [Eh]        4685.849 [cm^-1]
  Correction ZPE           13.398 [kcal/mol]       56.055 [kJ/mol]       0.02135030 [Eh]        4685.849 [cm^-1]
  Total ZPE, Electronic energy at 0 [K]                                -76.31643679 [Eh]

  Thermal Energy, E (includes ZPE)
    Electronic E            0.000 [kcal/mol]        0.000 [kJ/mol]       0.00000000 [Eh]
    Translational E         0.889 [kcal/mol]        3.718 [kJ/mol]       0.00141628 [Eh]
    Rotational E            0.889 [kcal/mol]        3.718 [kJ/mol]       0.00141628 [Eh]
    Vibrational E          13.399 [kcal/mol]       56.060 [kJ/mol]       0.02135230 [Eh]
  Correction E             15.176 [kcal/mol]       63.497 [kJ/mol]       0.02418485 [Eh]
  Total E, Electronic energy at  298.15 [K]                            -76.31360224 [Eh]

  Enthalpy, H_trans = E_trans + k_B * T
    Electronic H            0.000 [kcal/mol]        0.000 [kJ/mol]       0.00000000 [Eh]
    Translational H         1.481 [kcal/mol]        6.197 [kJ/mol]       0.00236046 [Eh]
    Rotational H            0.889 [kcal/mol]        3.718 [kJ/mol]       0.00141628 [Eh]
    Vibrational H          13.399 [kcal/mol]       56.060 [kJ/mol]       0.02135230 [Eh]
  Correction H             15.769 [kcal/mol]       65.976 [kJ/mol]       0.02512904 [Eh]
  Total H, Enthalpy at  298.15 [K]                                     -76.31265805 [Eh]

  Gibbs free energy, G = H - T * S
    Electronic G            0.000 [kcal/mol]        0.000 [kJ/mol]       0.00000000 [Eh]
    Translational G        -8.837 [kcal/mol]      -36.975 [kJ/mol]      -0.01408304 [Eh]
    Rotational G           -2.244 [kcal/mol]       -9.390 [kJ/mol]      -0.00357665 [Eh]
    Vibrational G          13.397 [kcal/mol]       56.055 [kJ/mol]       0.02135006 [Eh]
  Correction G              2.316 [kcal/mol]        9.689 [kJ/mol]       0.00369037 [Eh]
  Total G, Free enthalpy at  298.15 [K]                                -76.33409672 [Eh]

    Psi4 stopped on: Tuesday, 19 April 2022 12:21AM
    Psi4 wall time for execution: 0:00:13.14

*** Psi4 exiting successfully. Buy a developer a beer!
