
    -----------------------------------------------------------------------
          Psi4: An Open-Source Ab Initio Electronic Structure Package
                               Psi4 1.3.2 release

                         Git: Rev {HEAD} ecbda83 


    R. M. Parrish, L. A. Burns, D. G. A. Smith, A. C. Simmonett,
    A. E. DePrince III, E. G. Hohenstein, U. Bozkaya, A. Yu. Sokolov,
    R. Di Remigio, R. M. Richard, J. F. Gonthier, A. M. James,
    H. R. McAlexander, A. Kumar, M. Saitow, X. Wang, B. P. Pritchard,
    P. Verma, H. F. Schaefer III, K. Patkowski, R. A. King, E. F. Valeev,
    F. A. Evangelista, J. M. Turney, T. D. Crawford, and C. D. Sherrill,
    J. Chem. Theory Comput. 13(7) pp 3185--3197 (2017).
    (doi: 10.1021/acs.jctc.7b00174)


                         Additional Contributions by
    P. Kraus, H. Kruse, M. H. Lechner, M. C. Schieber, R. A. Shaw,
    A. Alenaizan, R. Galvelis, Z. L. Glick, S. Lehtola, and J. P. Misiewicz

    -----------------------------------------------------------------------


    Psi4 started on: Wednesday, 20 April 2022 04:10AM

    Process ID: 13140
    Host:       atlantis
    PSIDATADIR: /home/akrom/software/anaconda3/envs/ffpenv/share/psi4
    Memory:     500.0 MiB
    Threads:    1
    
  ==> Input File <==

--------------------------------------------------------------------------
set basis  aug-cc-pVTZ
molecule {
0 1
   C       -1.22151       -0.69325        0.00000
   C       -1.21114        0.71122        0.00000
   C       -0.01037       -1.40452        0.00000
   C        0.01037        1.40452        0.00000
   C        1.21114       -0.71122        0.00000
   C        1.22151        0.69325        0.00000
   H       -2.17311       -1.23332        0.00000
   H       -2.15464        1.26533        0.00000
   H       -0.01848       -2.49865        0.00000
   H        0.01848        2.49865        0.00000
   H        2.15464       -1.26533        0.00000
   H        2.17311        1.23332        0.00000
}
energy('m06-2x')
frequencies('m06-2x')
--------------------------------------------------------------------------

*** tstart() called on atlantis
*** at Wed Apr 20 04:10:41 2022

   => Loading Basis Set <=

    Name: AUG-CC-PVTZ
    Role: ORBITAL
    Keyword: BASIS
    atoms 1-6  entry C          line   235 file /home/akrom/software/anaconda3/envs/ffpenv/share/psi4/basis/aug-cc-pvtz.gbs 
    atoms 7-12 entry H          line    36 file /home/akrom/software/anaconda3/envs/ffpenv/share/psi4/basis/aug-cc-pvtz.gbs 


         ---------------------------------------------------------
                                   SCF
               by Justin Turney, Rob Parrish, Andy Simmonett
                          and Daniel G. A. Smith
                              RKS Reference
                        1 Threads,    500 MiB Core
         ---------------------------------------------------------

  ==> Geometry <==

    Molecular point group: c2h
    Full point group: C2h

    Geometry (in Angstrom), charge = 0, multiplicity = 1:

       Center              X                  Y                   Z               Mass       
    ------------   -----------------  -----------------  -----------------  -----------------
         C           -1.221510000000    -0.693250000000     0.000000000000    12.000000000000
         C           -1.211140000000     0.711220000000     0.000000000000    12.000000000000
         C           -0.010370000000    -1.404520000000     0.000000000000    12.000000000000
         C            0.010370000000     1.404520000000     0.000000000000    12.000000000000
         C            1.211140000000    -0.711220000000     0.000000000000    12.000000000000
         C            1.221510000000     0.693250000000     0.000000000000    12.000000000000
         H           -2.173110000000    -1.233320000000     0.000000000000     1.007825032230
         H           -2.154640000000     1.265330000000     0.000000000000     1.007825032230
         H           -0.018480000000    -2.498650000000     0.000000000000     1.007825032230
         H            0.018480000000     2.498650000000     0.000000000000     1.007825032230
         H            2.154640000000    -1.265330000000     0.000000000000     1.007825032230
         H            2.173110000000     1.233320000000     0.000000000000     1.007825032230

  Running in c2h symmetry.

  Rotational constants: A =      0.18753  B =      0.18752  C =      0.09376 [cm^-1]
  Rotational constants: A =   5621.92707  B =   5621.82252  C =   2810.93740 [MHz]
  Nuclear repulsion =  202.013308935380167

  Charge       = 0
  Multiplicity = 1
  Electrons    = 42
  Nalpha       = 21
  Nbeta        = 21

  ==> Algorithm <==

  SCF Algorithm Type is DF.
  DIIS enabled.
  MOM disabled.
  Fractional occupation disabled.
  Guess Type is SAD.
  Energy threshold   = 1.00e-06
  Density threshold  = 1.00e-06
  Integral threshold = 0.00e+00

  ==> Primary Basis <==

  Basis Set: AUG-CC-PVTZ
    Blend: AUG-CC-PVTZ
    Number of shells: 138
    Number of basis function: 414
    Number of Cartesian functions: 480
    Spherical Harmonics?: true
    Max angular momentum: 3

  ==> DFT Potential <==

   => Composite Functional: M06-2X <= 

    Hybrid M06-2X Meta-GGA XC Functional

    Y. Zhao and D. G. Truhlar,  Theor. Chem. Acc., 120, 215, 2008


    Deriv               =              1
    GGA                 =           TRUE
    Meta                =           TRUE

    Exchange Hybrid     =           TRUE
    MP2 Hybrid          =          FALSE

   => Exchange Functionals <=

    1.0000   XC_HYB_MGGA_X_M06_2X

   => Exact (HF) Exchange <=

    0.5400               HF 

   => Correlation Functionals <=

    1.0000   XC_MGGA_C_M06_2X

   => Molecular Quadrature <=

    Radial Scheme          =       TREUTLER
    Pruning Scheme         =           FLAT
    Nuclear Scheme         =       TREUTLER

    BS radius alpha        =              1
    Pruning alpha          =              1
    Radial Points          =             75
    Spherical Points       =            302
    Total Points           =         271800
    Total Blocks           =           2142
    Max Points             =            256
    Max Functions          =            411

   => Loading Basis Set <=

    Name: (AUG-CC-PVTZ AUX)
    Role: JKFIT
    Keyword: DF_BASIS_SCF
    atoms 1-6  entry C          line   162 file /home/akrom/software/anaconda3/envs/ffpenv/share/psi4/basis/aug-cc-pvtz-jkfit.gbs 
    atoms 7-12 entry H          line    70 file /home/akrom/software/anaconda3/envs/ffpenv/share/psi4/basis/aug-cc-pvtz-jkfit.gbs 

  ==> Pre-Iterations <==

   -------------------------------------------------------
    Irrep   Nso     Nmo     Nalpha   Nbeta   Ndocc  Nsocc
   -------------------------------------------------------
     Ag       138     138       0       0       0       0
     Bg        69      69       0       0       0       0
     Au        69      69       0       0       0       0
     Bu       138     138       0       0       0       0
   -------------------------------------------------------
    Total     414     414      21      21      21       0
   -------------------------------------------------------

  ==> Integral Setup <==

  ==> DiskDFJK: Density-Fitted J/K Matrices <==

    J tasked:                  Yes
    K tasked:                  Yes
    wK tasked:                  No
    OpenMP threads:              1
    Integrals threads:           1
    Memory [MiB]:              337
    Algorithm:                Disk
    Integral Cache:           NONE
    Schwarz Cutoff:          1E-12
    Fitting Condition:       1E-10

   => Auxiliary Basis Set <=

  Basis Set: (AUG-CC-PVTZ AUX)
    Blend: AUG-CC-PVTZ-JKFIT
    Number of shells: 264
    Number of basis function: 900
    Number of Cartesian functions: 1116
    Spherical Harmonics?: true
    Max angular momentum: 4

  Cached 0.6% of DFT collocation blocks in 0.027 [GiB].

  Minimum eigenvalue in the overlap matrix is 3.6806800772E-07.
  Using Symmetric Orthogonalization.

  SCF Guess: Superposition of Atomic Densities via on-the-fly atomic UHF.

  ==> Iterations <==

                           Total Energy        Delta E     RMS |[F,P]|

   @DF-RKS iter SAD:  -231.63278796604038   -2.31633e+02   0.00000e+00 
   @DF-RKS iter   1:  -231.84954811084103   -2.16760e-01   3.90414e-03 DIIS
   @DF-RKS iter   2:  -231.88757826499952   -3.80302e-02   3.67500e-03 DIIS
   @DF-RKS iter   3:  -232.21990100864065   -3.32323e-01   3.25814e-04 DIIS
   @DF-RKS iter   4:  -232.22223402126355   -2.33301e-03   4.72102e-05 DIIS
   @DF-RKS iter   5:  -232.22229557631840   -6.15551e-05   6.63955e-06 DIIS
   @DF-RKS iter   6:  -232.22229678111424   -1.20480e-06   6.09419e-07 DIIS
   @DF-RKS iter   7:  -232.22229679864000   -1.75258e-08   7.17022e-08 DIIS
  Energy and wave function converged.


  ==> Post-Iterations <==

    Orbital Energies [Eh]
    ---------------------

    Doubly Occupied:                                                      

       1Ag   -10.550379     1Bu   -10.550031     2Bu   -10.550024  
       2Ag   -10.549207     3Ag   -10.549200     3Bu   -10.548870  
       4Ag    -0.955475     4Bu    -0.841090     5Bu    -0.841083  
       5Ag    -0.684840     6Ag    -0.684826     7Ag    -0.596956  
       6Bu    -0.534536     7Bu    -0.511070     8Bu    -0.487209  
       9Bu    -0.487195     1Au    -0.437567     8Ag    -0.403367  
       9Ag    -0.403357     1Bg    -0.308557     2Bg    -0.308549  

    Virtual:                                                              

      10Ag    -0.003797    10Bu     0.008078    11Bu     0.008080  
       2Au     0.014115     3Au     0.014124    11Ag     0.026016  
      12Ag     0.026018    12Bu     0.048876     4Au     0.051593  
      13Ag     0.064102     3Bg     0.066836     4Bg     0.066839  
      13Bu     0.079289    14Bu     0.086476    15Bu     0.086480  
      14Ag     0.093200    15Ag     0.093203    16Ag     0.094346  
      16Bu     0.101755    17Bu     0.101760     5Au     0.104632  
       6Au     0.104643    18Bu     0.119348    17Ag     0.121345  
      18Ag     0.121347     5Bg     0.123482     7Au     0.188909  
      19Ag     0.193450     6Bg     0.194838    19Bu     0.202481  
      20Bu     0.202487    20Ag     0.204963    21Ag     0.206589  
      22Ag     0.206604    23Ag     0.224606    24Ag     0.224625  
      21Bu     0.242281    22Bu     0.244692    23Bu     0.244693  
       7Bg     0.246421     8Bg     0.246426    24Bu     0.247249  
      25Bu     0.270608    26Bu     0.273581    27Bu     0.273587  
      25Ag     0.279670    26Ag     0.282253    27Ag     0.282260  
       8Au     0.310935     9Au     0.310938    28Ag     0.321852  
       9Bg     0.341682    10Au     0.353703    10Bg     0.360707  
      11Bg     0.360723    28Bu     0.360853    29Bu     0.360863  
      12Bg     0.366934    11Au     0.370366    12Au     0.370373  
      29Ag     0.380613    30Ag     0.380621    30Bu     0.389382  
      31Bu     0.389385    32Bu     0.401776    31Ag     0.409247  
      33Bu     0.424812    32Ag     0.430402    34Bu     0.432476  
      35Bu     0.432480    33Ag     0.438487    34Ag     0.438491  
      13Au     0.461187    35Ag     0.462081    36Ag     0.462084  
      13Bg     0.465863    14Bg     0.536076    15Bg     0.536080  
      36Bu     0.536797    14Au     0.540469    15Au     0.540477  
      37Ag     0.548397    38Ag     0.548402    37Bu     0.560810  
      38Bu     0.560822    39Ag     0.592857    40Ag     0.592865  
      41Ag     0.599550    42Ag     0.612843    39Bu     0.625613  
      40Bu     0.625630    16Au     0.631040    16Bg     0.653570  
      17Bg     0.653587    41Bu     0.654321    42Bu     0.674578  
      43Ag     0.685719    43Bu     0.685961    44Bu     0.696217  
      45Bu     0.696221    44Ag     0.726646    45Ag     0.726651  
      46Ag     0.736229    17Au     0.741598    18Au     0.741610  
      46Bu     0.748324    47Bu     0.748351    47Ag     0.756634  
      18Bg     0.763040    19Au     0.777487    19Bg     0.789097  
      48Ag     0.801404    49Ag     0.801424    48Bu     0.825699  
      20Au     0.835027    21Au     0.836755    22Au     0.836769  
      50Ag     0.844302    49Bu     0.859277    50Bu     0.859291  
      23Au     0.912894    24Au     0.912899    20Bg     0.927494  
      21Bg     0.927516    51Ag     0.930356    22Bg     0.932237  
      23Bg     0.932245    52Ag     0.933358    51Bu     0.961079  
      52Bu     0.961097    53Ag     0.961260    54Ag     0.961272  
      53Bu     0.962764    24Bg     0.981795    25Bg     0.983013  
      54Bu     1.015420    55Bu     1.015496    56Bu     1.015508  
      26Bg     1.027633    27Bg     1.027694    55Ag     1.046753  
      56Ag     1.046767    57Bu     1.076729    58Bu     1.076744  
      57Ag     1.081772    58Ag     1.081801    59Bu     1.082158  
      59Ag     1.111597    60Ag     1.111610    60Bu     1.112246  
      61Ag     1.117745    25Au     1.125958    26Au     1.125963  
      27Au     1.166594    62Ag     1.219051    63Ag     1.219073  
      28Au     1.229719    29Au     1.251398    30Au     1.251444  
      61Bu     1.260385    62Bu     1.260419    63Bu     1.278900  
      64Ag     1.279386    28Bg     1.311045    29Bg     1.311080  
      30Bg     1.329763    65Ag     1.341024    66Ag     1.341040  
      67Ag     1.343168    64Bu     1.352269    65Bu     1.352364  
      66Bu     1.404057    31Au     1.451821    32Au     1.475773  
      33Au     1.475817    31Bg     1.498556    32Bg     1.498639  
      68Ag     1.526069    67Bu     1.539189    68Bu     1.539235  
      69Bu     1.559589    70Bu     1.559635    33Bg     1.587578  
      71Bu     1.598619    72Bu     1.618605    73Bu     1.618619  
      69Ag     1.648892    70Ag     1.648965    34Au     1.650818  
      71Ag     1.666865    34Bg     1.669102    35Bg     1.669184  
      36Bg     1.705490    72Ag     1.715744    73Ag     1.717666  
      74Ag     1.717705    35Au     1.738550    36Au     1.793498  
      37Au     1.793595    75Ag     1.808633    76Ag     1.808681  
      74Bu     1.818763    75Bu     1.818792    76Bu     1.824669  
      77Bu     1.849302    77Ag     1.858572    78Ag     1.858593  
      37Bg     1.875737    38Bg     1.875814    78Bu     1.892646  
      79Bu     1.892682    80Bu     1.895811    39Bg     1.954423  
      38Au     2.044933    39Au     2.045089    79Ag     2.047373  
      80Ag     2.047398    40Au     2.124641    41Au     2.124657  
      81Bu     2.128200    82Bu     2.128298    81Ag     2.137013  
      40Bg     2.159757    41Bg     2.159839    83Bu     2.191840  
      42Bg     2.192731    82Ag     2.253648    83Ag     2.253741  
      84Bu     2.316535    85Bu     2.316559    86Bu     2.325028  
      84Ag     2.387298    85Ag     2.387372    42Au     2.395766  
      43Au     2.484132    87Bu     2.486354    86Ag     2.519940  
      87Ag     2.561229    88Ag     2.561257    89Ag     2.580509  
      90Ag     2.586281    88Bu     2.664099    89Bu     2.782532  
      90Bu     2.782581    91Ag     2.816970    43Bg     2.845561  
      44Bg     2.845586    44Au     2.900902    45Au     2.900940  
      45Bg     2.986531    92Ag     2.991600    93Ag     2.991655  
      46Au     3.016440    91Bu     3.045489    92Bu     3.045521  
      94Ag     3.053921    47Au     3.067304    93Bu     3.074973  
      46Bg     3.076557    47Bg     3.076658    95Ag     3.113414  
      96Ag     3.113455    48Au     3.199939    49Au     3.200097  
      94Bu     3.222956    95Bu     3.223012    48Bg     3.251084  
      49Bg     3.251208    50Au     3.258189    51Au     3.258274  
      97Ag     3.263702    52Au     3.272121    50Bg     3.299824  
      98Ag     3.318847    99Ag     3.318866    96Bu     3.348848  
      51Bg     3.404111    97Bu     3.435861    98Bu     3.447282  
     100Ag     3.470215   101Ag     3.484743   102Ag     3.484775  
      99Bu     3.489603   100Bu     3.489669    53Au     3.517741  
      54Au     3.517762    52Bg     3.536175    53Bg     3.536221  
     101Bu     3.610367   102Bu     3.610411   103Bu     3.627749  
     104Bu     3.627784   105Bu     3.666017   103Ag     3.684675  
     104Ag     3.684740   106Bu     3.690710   107Bu     3.690731  
      54Bg     3.725058   105Ag     3.748506    55Bg     3.754916  
      56Bg     3.755016   106Ag     3.785806   107Ag     3.786292  
      55Au     3.820453    57Bg     3.821192   108Bu     3.847256  
      56Au     3.880979    57Au     3.881080    58Bg     3.910325  
     108Ag     3.910980    59Bg     3.935494    60Bg     3.935524  
     109Bu     3.948558   110Bu     3.993533   111Bu     3.993610  
      58Au     4.051843    59Au     4.051899   109Ag     4.059117  
     112Bu     4.064914   110Ag     4.076873   111Ag     4.076919  
     113Bu     4.092027   114Bu     4.092170   112Ag     4.122555  
     113Ag     4.122628    60Au     4.210159   114Ag     4.308915  
      61Au     4.309497    62Au     4.309546   115Bu     4.340696  
     116Bu     4.340893    63Au     4.343417    61Bg     4.385244  
      62Bg     4.385433   115Ag     4.439594   116Ag     4.439600  
     117Ag     4.477110   117Bu     4.492933    63Bg     4.544176  
     118Bu     4.601197   119Bu     4.601317   118Ag     4.661685  
     119Ag     4.661896    64Bg     4.691403    65Bg     4.691602  
      64Au     4.722860   120Bu     4.723669    66Bg     4.743497  
      67Bg     4.743660    65Au     4.752065    66Au     4.752170  
     121Bu     4.757999   120Ag     4.804782   121Ag     4.804831  
     122Ag     4.805187    67Au     4.876169   123Ag     4.910157  
     124Ag     4.910299    68Bg     4.932816   122Bu     4.987150  
     123Bu     4.987393    68Au     5.007508    69Au     5.007664  
     125Ag     5.023572   124Bu     5.089481   125Bu     5.258681  
     126Bu     5.258855   126Ag     5.293888   127Ag     5.294367  
     128Ag     5.398623    69Bg     5.410098   129Ag     5.471109  
     127Bu     5.512093   128Bu     5.650583   129Bu     5.650710  
     130Ag     5.732798   131Ag     5.733345   130Bu     5.853164  
     131Bu     5.891437   132Bu     5.891613   133Bu     6.115465  
     134Bu     6.116093   132Ag     6.384755   133Ag     6.384950  
     134Ag     6.468625   135Bu     6.714977   135Ag     6.843595  
     136Ag    14.934861   137Ag    14.935281   138Ag    16.017057  
     136Bu    18.110766   137Bu    18.110800   138Bu    18.279227  

    Final Occupation by Irrep:
             Ag    Bg    Au    Bu 
    DOCC [     9,    2,    1,    9 ]

  @DF-RKS Final Energy:  -232.22229679864000

   => Energetics <=

    Nuclear Repulsion Energy =            202.0133089353801665
    One-Electron Energy =                -711.1395638412598146
    Two-Electron Energy =                 293.6260909643296486
    DFT Exchange-Correlation Energy =     -16.7221328570900098
    Empirical Dispersion Energy =           0.0000000000000000
    VV10 Nonlocal Energy =                  0.0000000000000000
    Total Energy =                       -232.2222967986400022

Computation Completed


Properties will be evaluated at   0.000000,   0.000000,   0.000000 [a0]

Properties computed using the SCF density matrix

  Nuclear Dipole Moment: [e a0]
     X:    -0.0000      Y:    -0.0000      Z:     0.0000

  Electronic Dipole Moment: [e a0]
     X:     0.0000      Y:     0.0000      Z:     0.0000

  Dipole Moment: [e a0]
     X:    -0.0000      Y:    -0.0000      Z:     0.0000     Total:     0.0000

  Dipole Moment: [D]
     X:    -0.0000      Y:    -0.0000      Z:     0.0000     Total:     0.0000


*** tstop() called on atlantis at Wed Apr 20 04:12:49 2022
Module time:
	user time   =     126.52 seconds =       2.11 minutes
	system time =       1.89 seconds =       0.03 minutes
	total time  =        128 seconds =       2.13 minutes
Total time:
	user time   =     126.52 seconds =       2.11 minutes
	system time =       1.89 seconds =       0.03 minutes
	total time  =        128 seconds =       2.13 minutes
gradient() will perform analytic gradient computation.

*** tstart() called on atlantis
*** at Wed Apr 20 04:12:49 2022

   => Loading Basis Set <=

    Name: AUG-CC-PVTZ
    Role: ORBITAL
    Keyword: BASIS
    atoms 1-6  entry C          line   235 file /home/akrom/software/anaconda3/envs/ffpenv/share/psi4/basis/aug-cc-pvtz.gbs 
    atoms 7-12 entry H          line    36 file /home/akrom/software/anaconda3/envs/ffpenv/share/psi4/basis/aug-cc-pvtz.gbs 


         ---------------------------------------------------------
                                   SCF
               by Justin Turney, Rob Parrish, Andy Simmonett
                          and Daniel G. A. Smith
                              RKS Reference
                        1 Threads,    500 MiB Core
         ---------------------------------------------------------

  ==> Geometry <==

    Molecular point group: c2h
    Full point group: C2h

    Geometry (in Angstrom), charge = 0, multiplicity = 1:

       Center              X                  Y                   Z               Mass       
    ------------   -----------------  -----------------  -----------------  -----------------
         C           -1.221510000000    -0.693250000000     0.000000000000    12.000000000000
         C           -1.211140000000     0.711220000000     0.000000000000    12.000000000000
         C           -0.010370000000    -1.404520000000     0.000000000000    12.000000000000
         C            0.010370000000     1.404520000000     0.000000000000    12.000000000000
         C            1.211140000000    -0.711220000000     0.000000000000    12.000000000000
         C            1.221510000000     0.693250000000     0.000000000000    12.000000000000
         H           -2.173110000000    -1.233320000000     0.000000000000     1.007825032230
         H           -2.154640000000     1.265330000000     0.000000000000     1.007825032230
         H           -0.018480000000    -2.498650000000     0.000000000000     1.007825032230
         H            0.018480000000     2.498650000000     0.000000000000     1.007825032230
         H            2.154640000000    -1.265330000000     0.000000000000     1.007825032230
         H            2.173110000000     1.233320000000     0.000000000000     1.007825032230

  Running in c2h symmetry.

  Rotational constants: A =      0.18753  B =      0.18752  C =      0.09376 [cm^-1]
  Rotational constants: A =   5621.92707  B =   5621.82252  C =   2810.93740 [MHz]
  Nuclear repulsion =  202.013308935380167

  Charge       = 0
  Multiplicity = 1
  Electrons    = 42
  Nalpha       = 21
  Nbeta        = 21

  ==> Algorithm <==

  SCF Algorithm Type is DF.
  DIIS enabled.
  MOM disabled.
  Fractional occupation disabled.
  Guess Type is SAD.
  Energy threshold   = 1.00e-08
  Density threshold  = 1.00e-08
  Integral threshold = 0.00e+00

  ==> Primary Basis <==

  Basis Set: AUG-CC-PVTZ
    Blend: AUG-CC-PVTZ
    Number of shells: 138
    Number of basis function: 414
    Number of Cartesian functions: 480
    Spherical Harmonics?: true
    Max angular momentum: 3

  ==> DFT Potential <==

   => Composite Functional: M06-2X <= 

    Hybrid M06-2X Meta-GGA XC Functional

    Y. Zhao and D. G. Truhlar,  Theor. Chem. Acc., 120, 215, 2008


    Deriv               =              1
    GGA                 =           TRUE
    Meta                =           TRUE

    Exchange Hybrid     =           TRUE
    MP2 Hybrid          =          FALSE

   => Exchange Functionals <=

    1.0000   XC_HYB_MGGA_X_M06_2X

   => Exact (HF) Exchange <=

    0.5400               HF 

   => Correlation Functionals <=

    1.0000   XC_MGGA_C_M06_2X

   => Molecular Quadrature <=

    Radial Scheme          =       TREUTLER
    Pruning Scheme         =           FLAT
    Nuclear Scheme         =       TREUTLER

    BS radius alpha        =              1
    Pruning alpha          =              1
    Radial Points          =             75
    Spherical Points       =            302
    Total Points           =         271800
    Total Blocks           =           2142
    Max Points             =            256
    Max Functions          =            411

   => Loading Basis Set <=

    Name: (AUG-CC-PVTZ AUX)
    Role: JKFIT
    Keyword: DF_BASIS_SCF
    atoms 1-6  entry C          line   162 file /home/akrom/software/anaconda3/envs/ffpenv/share/psi4/basis/aug-cc-pvtz-jkfit.gbs 
    atoms 7-12 entry H          line    70 file /home/akrom/software/anaconda3/envs/ffpenv/share/psi4/basis/aug-cc-pvtz-jkfit.gbs 

  ==> Pre-Iterations <==

   -------------------------------------------------------
    Irrep   Nso     Nmo     Nalpha   Nbeta   Ndocc  Nsocc
   -------------------------------------------------------
     Ag       138     138       0       0       0       0
     Bg        69      69       0       0       0       0
     Au        69      69       0       0       0       0
     Bu       138     138       0       0       0       0
   -------------------------------------------------------
    Total     414     414      21      21      21       0
   -------------------------------------------------------

  ==> Integral Setup <==

  ==> DiskDFJK: Density-Fitted J/K Matrices <==

    J tasked:                  Yes
    K tasked:                  Yes
    wK tasked:                  No
    OpenMP threads:              1
    Integrals threads:           1
    Memory [MiB]:              337
    Algorithm:                Disk
    Integral Cache:           NONE
    Schwarz Cutoff:          1E-12
    Fitting Condition:       1E-10

   => Auxiliary Basis Set <=

  Basis Set: (AUG-CC-PVTZ AUX)
    Blend: AUG-CC-PVTZ-JKFIT
    Number of shells: 264
    Number of basis function: 900
    Number of Cartesian functions: 1116
    Spherical Harmonics?: true
    Max angular momentum: 4

  Cached 0.6% of DFT collocation blocks in 0.027 [GiB].

  Minimum eigenvalue in the overlap matrix is 3.6806800774E-07.
  Using Symmetric Orthogonalization.

  SCF Guess: Superposition of Atomic Densities via on-the-fly atomic UHF.

  ==> Iterations <==

                           Total Energy        Delta E     RMS |[F,P]|

   @DF-RKS iter SAD:  -231.63278796367570   -2.31633e+02   0.00000e+00 
   @DF-RKS iter   1:  -231.84954810843550   -2.16760e-01   3.90414e-03 DIIS
   @DF-RKS iter   2:  -231.88757826273482   -3.80302e-02   3.67500e-03 DIIS
   @DF-RKS iter   3:  -232.21990100619894   -3.32323e-01   3.25814e-04 DIIS
   @DF-RKS iter   4:  -232.22223401881911   -2.33301e-03   4.72102e-05 DIIS
   @DF-RKS iter   5:  -232.22229557387442   -6.15551e-05   6.63955e-06 DIIS
   @DF-RKS iter   6:  -232.22229677867045   -1.20480e-06   6.09419e-07 DIIS
   @DF-RKS iter   7:  -232.22229679619548   -1.75250e-08   7.17022e-08 DIIS
   @DF-RKS iter   8:  -232.22229679644084   -2.45365e-10   1.77441e-08 DIIS
   @DF-RKS iter   9:  -232.22229679644576   -4.91696e-12   1.25326e-08 DIIS
   @DF-RKS iter  10:  -232.22229679644892   -3.15481e-12   2.63904e-10 DIIS
  Energy and wave function converged.


  ==> Post-Iterations <==

    Orbital Energies [Eh]
    ---------------------

    Doubly Occupied:                                                      

       1Ag   -10.550379     1Bu   -10.550030     2Bu   -10.550025  
       2Ag   -10.549206     3Ag   -10.549200     3Bu   -10.548870  
       4Ag    -0.955475     4Bu    -0.841091     5Bu    -0.841083  
       5Ag    -0.684840     6Ag    -0.684826     7Ag    -0.596956  
       6Bu    -0.534536     7Bu    -0.511070     8Bu    -0.487209  
       9Bu    -0.487195     1Au    -0.437568     8Ag    -0.403367  
       9Ag    -0.403357     1Bg    -0.308557     2Bg    -0.308549  

    Virtual:                                                              

      10Ag    -0.003797    10Bu     0.008078    11Bu     0.008080  
       2Au     0.014115     3Au     0.014123    11Ag     0.026016  
      12Ag     0.026018    12Bu     0.048876     4Au     0.051593  
      13Ag     0.064102     3Bg     0.066836     4Bg     0.066839  
      13Bu     0.079289    14Bu     0.086475    15Bu     0.086480  
      14Ag     0.093200    15Ag     0.093203    16Ag     0.094346  
      16Bu     0.101755    17Bu     0.101760     5Au     0.104631  
       6Au     0.104643    18Bu     0.119348    17Ag     0.121345  
      18Ag     0.121347     5Bg     0.123482     7Au     0.188909  
      19Ag     0.193449     6Bg     0.194837    19Bu     0.202480  
      20Bu     0.202486    20Ag     0.204961    21Ag     0.206589  
      22Ag     0.206604    23Ag     0.224606    24Ag     0.224625  
      21Bu     0.242281    22Bu     0.244692    23Bu     0.244693  
       7Bg     0.246420     8Bg     0.246426    24Bu     0.247249  
      25Bu     0.270608    26Bu     0.273581    27Bu     0.273587  
      25Ag     0.279670    26Ag     0.282253    27Ag     0.282260  
       8Au     0.310935     9Au     0.310938    28Ag     0.321852  
       9Bg     0.341682    10Au     0.353703    10Bg     0.360707  
      11Bg     0.360723    28Bu     0.360853    29Bu     0.360863  
      12Bg     0.366934    11Au     0.370366    12Au     0.370373  
      29Ag     0.380613    30Ag     0.380621    30Bu     0.389382  
      31Bu     0.389384    32Bu     0.401776    31Ag     0.409247  
      33Bu     0.424813    32Ag     0.430401    34Bu     0.432475  
      35Bu     0.432480    33Ag     0.438487    34Ag     0.438491  
      13Au     0.461186    35Ag     0.462081    36Ag     0.462084  
      13Bg     0.465863    14Bg     0.536076    15Bg     0.536080  
      36Bu     0.536796    14Au     0.540469    15Au     0.540477  
      37Ag     0.548397    38Ag     0.548402    37Bu     0.560810  
      38Bu     0.560822    39Ag     0.592857    40Ag     0.592865  
      41Ag     0.599549    42Ag     0.612843    39Bu     0.625612  
      40Bu     0.625630    16Au     0.631040    16Bg     0.653570  
      17Bg     0.653586    41Bu     0.654318    42Bu     0.674582  
      43Ag     0.685718    43Bu     0.685960    44Bu     0.696216  
      45Bu     0.696221    44Ag     0.726646    45Ag     0.726651  
      46Ag     0.736229    17Au     0.741598    18Au     0.741610  
      46Bu     0.748323    47Bu     0.748351    47Ag     0.756634  
      18Bg     0.763040    19Au     0.777487    19Bg     0.789097  
      48Ag     0.801403    49Ag     0.801424    48Bu     0.825706  
      20Au     0.835027    21Au     0.836755    22Au     0.836769  
      50Ag     0.844302    49Bu     0.859277    50Bu     0.859290  
      23Au     0.912893    24Au     0.912899    20Bg     0.927494  
      21Bg     0.927515    51Ag     0.930355    22Bg     0.932237  
      23Bg     0.932245    52Ag     0.933358    51Bu     0.961079  
      52Bu     0.961097    53Ag     0.961260    54Ag     0.961272  
      53Bu     0.962764    24Bg     0.981795    25Bg     0.983013  
      54Bu     1.015422    55Bu     1.015496    56Bu     1.015508  
      26Bg     1.027633    27Bg     1.027694    55Ag     1.046752  
      56Ag     1.046767    57Bu     1.076729    58Bu     1.076744  
      57Ag     1.081772    58Ag     1.081801    59Bu     1.082158  
      59Ag     1.111596    60Ag     1.111610    60Bu     1.112248  
      61Ag     1.117745    25Au     1.125958    26Au     1.125963  
      27Au     1.166594    62Ag     1.219051    63Ag     1.219073  
      28Au     1.229719    29Au     1.251398    30Au     1.251444  
      61Bu     1.260385    62Bu     1.260419    63Bu     1.278896  
      64Ag     1.279383    28Bg     1.311044    29Bg     1.311080  
      30Bg     1.329763    65Ag     1.341025    66Ag     1.341040  
      67Ag     1.343168    64Bu     1.352269    65Bu     1.352364  
      66Bu     1.404061    31Au     1.451821    32Au     1.475773  
      33Au     1.475817    31Bg     1.498556    32Bg     1.498639  
      68Ag     1.526067    67Bu     1.539189    68Bu     1.539235  
      69Bu     1.559589    70Bu     1.559635    33Bg     1.587578  
      71Bu     1.598618    72Bu     1.618605    73Bu     1.618619  
      69Ag     1.648892    70Ag     1.648965    34Au     1.650818  
      71Ag     1.666866    34Bg     1.669102    35Bg     1.669184  
      36Bg     1.705490    72Ag     1.715744    73Ag     1.717666  
      74Ag     1.717705    35Au     1.738550    36Au     1.793498  
      37Au     1.793595    75Ag     1.808633    76Ag     1.808681  
      74Bu     1.818762    75Bu     1.818792    76Bu     1.824669  
      77Bu     1.849302    77Ag     1.858572    78Ag     1.858593  
      37Bg     1.875737    38Bg     1.875814    78Bu     1.892646  
      79Bu     1.892682    80Bu     1.895813    39Bg     1.954423  
      38Au     2.044933    39Au     2.045089    79Ag     2.047374  
      80Ag     2.047398    40Au     2.124641    41Au     2.124658  
      81Bu     2.128201    82Bu     2.128298    81Ag     2.137011  
      40Bg     2.159757    41Bg     2.159839    83Bu     2.191840  
      42Bg     2.192731    82Ag     2.253648    83Ag     2.253741  
      84Bu     2.316535    85Bu     2.316559    86Bu     2.325030  
      84Ag     2.387298    85Ag     2.387372    42Au     2.395766  
      43Au     2.484132    87Bu     2.486354    86Ag     2.519938  
      87Ag     2.561229    88Ag     2.561257    89Ag     2.580508  
      90Ag     2.586281    88Bu     2.664099    89Bu     2.782532  
      90Bu     2.782581    91Ag     2.816970    43Bg     2.845561  
      44Bg     2.845586    44Au     2.900902    45Au     2.900940  
      45Bg     2.986531    92Ag     2.991599    93Ag     2.991655  
      46Au     3.016440    91Bu     3.045489    92Bu     3.045521  
      94Ag     3.053921    47Au     3.067303    93Bu     3.074973  
      46Bg     3.076557    47Bg     3.076658    95Ag     3.113414  
      96Ag     3.113454    48Au     3.199939    49Au     3.200096  
      94Bu     3.222956    95Bu     3.223012    48Bg     3.251083  
      49Bg     3.251208    50Au     3.258189    51Au     3.258274  
      97Ag     3.263702    52Au     3.272121    50Bg     3.299824  
      98Ag     3.318846    99Ag     3.318866    96Bu     3.348849  
      51Bg     3.404111    97Bu     3.435860    98Bu     3.447282  
     100Ag     3.470215   101Ag     3.484742   102Ag     3.484775  
      99Bu     3.489603   100Bu     3.489668    53Au     3.517741  
      54Au     3.517762    52Bg     3.536174    53Bg     3.536221  
     101Bu     3.610367   102Bu     3.610410   103Bu     3.627749  
     104Bu     3.627784   105Bu     3.666017   103Ag     3.684674  
     104Ag     3.684740   106Bu     3.690710   107Bu     3.690731  
      54Bg     3.725058   105Ag     3.748505    55Bg     3.754916  
      56Bg     3.755015   106Ag     3.785806   107Ag     3.786292  
      55Au     3.820452    57Bg     3.821192   108Bu     3.847255  
      56Au     3.880978    57Au     3.881080    58Bg     3.910325  
     108Ag     3.910980    59Bg     3.935493    60Bg     3.935524  
     109Bu     3.948558   110Bu     3.993532   111Bu     3.993610  
      58Au     4.051843    59Au     4.051899   109Ag     4.059116  
     112Bu     4.064914   110Ag     4.076872   111Ag     4.076919  
     113Bu     4.092027   114Bu     4.092170   112Ag     4.122555  
     113Ag     4.122628    60Au     4.210159   114Ag     4.308914  
      61Au     4.309497    62Au     4.309545   115Bu     4.340696  
     116Bu     4.340893    63Au     4.343416    61Bg     4.385243  
      62Bg     4.385432   115Ag     4.439593   116Ag     4.439600  
     117Ag     4.477109   117Bu     4.492933    63Bg     4.544176  
     118Bu     4.601197   119Bu     4.601316   118Ag     4.661685  
     119Ag     4.661896    64Bg     4.691403    65Bg     4.691602  
      64Au     4.722860   120Bu     4.723669    66Bg     4.743496  
      67Bg     4.743659    65Au     4.752065    66Au     4.752170  
     121Bu     4.757998   120Ag     4.804782   121Ag     4.804831  
     122Ag     4.805186    67Au     4.876168   123Ag     4.910157  
     124Ag     4.910298    68Bg     4.932815   122Bu     4.987149  
     123Bu     4.987393    68Au     5.007508    69Au     5.007664  
     125Ag     5.023572   124Bu     5.089481   125Bu     5.258681  
     126Bu     5.258854   126Ag     5.293887   127Ag     5.294367  
     128Ag     5.398623    69Bg     5.410098   129Ag     5.471109  
     127Bu     5.512093   128Bu     5.650582   129Bu     5.650710  
     130Ag     5.732797   131Ag     5.733345   130Bu     5.853163  
     131Bu     5.891437   132Bu     5.891613   133Bu     6.115465  
     134Bu     6.116092   132Ag     6.384754   133Ag     6.384949  
     134Ag     6.468624   135Bu     6.714976   135Ag     6.843594  
     136Ag    14.934861   137Ag    14.935280   138Ag    16.017057  
     136Bu    18.110767   137Bu    18.110799   138Bu    18.279227  

    Final Occupation by Irrep:
             Ag    Bg    Au    Bu 
    DOCC [     9,    2,    1,    9 ]

  @DF-RKS Final Energy:  -232.22229679644892

   => Energetics <=

    Nuclear Repulsion Energy =            202.0133089353801665
    One-Electron Energy =                -711.1396385702707903
    Two-Electron Energy =                 293.6261673988342409
    DFT Exchange-Correlation Energy =     -16.7221345603925364
    Empirical Dispersion Energy =           0.0000000000000000
    VV10 Nonlocal Energy =                  0.0000000000000000
    Total Energy =                       -232.2222967964489158

Computation Completed


Properties will be evaluated at   0.000000,   0.000000,   0.000000 [a0]

Properties computed using the SCF density matrix

  Nuclear Dipole Moment: [e a0]
     X:    -0.0000      Y:    -0.0000      Z:     0.0000

  Electronic Dipole Moment: [e a0]
     X:     0.0000      Y:     0.0000      Z:     0.0000

  Dipole Moment: [e a0]
     X:    -0.0000      Y:    -0.0000      Z:     0.0000     Total:     0.0000

  Dipole Moment: [D]
     X:    -0.0000      Y:    -0.0000      Z:     0.0000     Total:     0.0000


*** tstop() called on atlantis at Wed Apr 20 04:15:43 2022
Module time:
	user time   =     171.26 seconds =       2.85 minutes
	system time =       2.35 seconds =       0.04 minutes
	total time  =        174 seconds =       2.90 minutes
Total time:
	user time   =     297.79 seconds =       4.96 minutes
	system time =       4.24 seconds =       0.07 minutes
	total time  =        302 seconds =       5.03 minutes

*** tstart() called on atlantis
*** at Wed Apr 20 04:15:43 2022


         ------------------------------------------------------------
                                   SCF GRAD                          
                          Rob Parrish, Justin Turney,                
                       Andy Simmonett, and Alex Sokolov              
         ------------------------------------------------------------

  ==> Geometry <==

    Molecular point group: c2h
    Full point group: C2h

    Geometry (in Angstrom), charge = 0, multiplicity = 1:

       Center              X                  Y                   Z               Mass       
    ------------   -----------------  -----------------  -----------------  -----------------
         C           -1.221510000000    -0.693250000000     0.000000000000    12.000000000000
         C           -1.211140000000     0.711220000000     0.000000000000    12.000000000000
         C           -0.010370000000    -1.404520000000     0.000000000000    12.000000000000
         C            0.010370000000     1.404520000000     0.000000000000    12.000000000000
         C            1.211140000000    -0.711220000000     0.000000000000    12.000000000000
         C            1.221510000000     0.693250000000     0.000000000000    12.000000000000
         H           -2.173110000000    -1.233320000000     0.000000000000     1.007825032230
         H           -2.154640000000     1.265330000000     0.000000000000     1.007825032230
         H           -0.018480000000    -2.498650000000     0.000000000000     1.007825032230
         H            0.018480000000     2.498650000000     0.000000000000     1.007825032230
         H            2.154640000000    -1.265330000000     0.000000000000     1.007825032230
         H            2.173110000000     1.233320000000     0.000000000000     1.007825032230

  Nuclear repulsion =  202.013308935380167

  ==> Basis Set <==

  Basis Set: AUG-CC-PVTZ
    Blend: AUG-CC-PVTZ
    Number of shells: 138
    Number of basis function: 414
    Number of Cartesian functions: 480
    Spherical Harmonics?: true
    Max angular momentum: 3

  ==> DFJKGrad: Density-Fitted SCF Gradients <==

    Gradient:                    1
    J tasked:                  Yes
    K tasked:                  Yes
    wK tasked:                  No
    OpenMP threads:              1
    Integrals threads:           1
    Memory [MiB]:              375
    Schwarz Cutoff:          0E+00
    Fitting Condition:       1E-10

   => Auxiliary Basis Set <=

  Basis Set: (AUG-CC-PVTZ AUX)
    Blend: AUG-CC-PVTZ-JKFIT
    Number of shells: 264
    Number of basis function: 900
    Number of Cartesian functions: 1116
    Spherical Harmonics?: true
    Max angular momentum: 4

  ==> DFT Potential <==

   => Composite Functional: M06-2X <= 

    Hybrid M06-2X Meta-GGA XC Functional

    Y. Zhao and D. G. Truhlar,  Theor. Chem. Acc., 120, 215, 2008


    Deriv               =              1
    GGA                 =           TRUE
    Meta                =           TRUE

    Exchange Hybrid     =           TRUE
    MP2 Hybrid          =          FALSE

   => Exchange Functionals <=

    1.0000   XC_HYB_MGGA_X_M06_2X

   => Exact (HF) Exchange <=

    0.5400               HF 

   => Correlation Functionals <=

    1.0000   XC_MGGA_C_M06_2X

   => Molecular Quadrature <=

    Radial Scheme          =       TREUTLER
    Pruning Scheme         =           FLAT
    Nuclear Scheme         =       TREUTLER

    BS radius alpha        =              1
    Pruning alpha          =              1
    Radial Points          =             75
    Spherical Points       =            302
    Total Points           =         271800
    Total Blocks           =           2142
    Max Points             =            256
    Max Functions          =            411


  -Total Gradient:
     Atom            X                  Y                   Z
    ------   -----------------  -----------------  -----------------
       1       -0.006073939542    -0.003429722749     0.000000000000
       2       -0.006018789297     0.003542642608     0.000000000000
       3       -0.000035926437    -0.007016808138     0.000000000000
       4        0.000035926437     0.007016808138     0.000000000000
       5        0.006018789297    -0.003542642608     0.000000000000
       6        0.006073939542     0.003429722749     0.000000000000
       7       -0.007556615279    -0.004320356814    -0.000000000000
       8       -0.007480361763     0.004458187831     0.000000000000
       9       -0.000057290152    -0.008689992506    -0.000000000000
      10        0.000057290152     0.008689992506     0.000000000000
      11        0.007480361763    -0.004458187831     0.000000000000
      12        0.007556615279     0.004320356814    -0.000000000000


*** tstop() called on atlantis at Wed Apr 20 04:16:19 2022
Module time:
	user time   =      35.89 seconds =       0.60 minutes
	system time =       0.18 seconds =       0.00 minutes
	total time  =         36 seconds =       0.60 minutes
Total time:
	user time   =     333.68 seconds =       5.56 minutes
	system time =       4.42 seconds =       0.07 minutes
	total time  =        338 seconds =       5.63 minutes

  Based on options and gradient (rms=4.56E-03), recommend projecting translations and projecting rotations.
hessian() will perform frequency computation by finite difference of analytic gradients.

         ----------------------------------------------------------
                                   FINDIF
                     R. A. King and Jonathon Misiewicz
         ---------------------------------------------------------

  Using finite-differences of gradients to determine vibrational frequencies and 
  normal modes.  Resulting frequencies are only valid at stationary points.
    Generating geometries for use with 3-point formula.
    Displacement size will be 5.00e-03.
    Number of atoms is 12.
    Number of irreps is 4.
    Number of SALCs is 30.
    Translations projected? 1. Rotations projected? 1.
    Index of SALCs per irrep:
     1 :  0  1  2  3  4  5  6  7  8  9  10 
     2 :  11  12  13  14 
     3 :  15  16  17  18  19 
     4 :  20  21  22  23  24  25  26  27  28  29 
    Number of SALCs per irrep:
     Irrep 1: 11
     Irrep 2: 4
     Irrep 3: 5
     Irrep 4: 10
    Number of geometries (including reference) is 42.
    Number of displacements per irrep:
      Irrep 1: 22
      Irrep 2: 4
      Irrep 3: 5
      Irrep 4: 10

  //>>>>>>>>>>>>>>>>>>>>>>>>>>>>>>>>>>>//
  //    Loading displacement 1 of 42   //
  //<<<<<<<<<<<<<<<<<<<<<<<<<<<<<<<<<<<//
gradient() will perform analytic gradient computation.

*** tstart() called on atlantis
*** at Wed Apr 20 04:16:19 2022

   => Loading Basis Set <=

    Name: AUG-CC-PVTZ
    Role: ORBITAL
    Keyword: BASIS
    atoms 1-6  entry C          line   235 file /home/akrom/software/anaconda3/envs/ffpenv/share/psi4/basis/aug-cc-pvtz.gbs 
    atoms 7-12 entry H          line    36 file /home/akrom/software/anaconda3/envs/ffpenv/share/psi4/basis/aug-cc-pvtz.gbs 


         ---------------------------------------------------------
                                   SCF
               by Justin Turney, Rob Parrish, Andy Simmonett
                          and Daniel G. A. Smith
                              RKS Reference
                        1 Threads,    500 MiB Core
         ---------------------------------------------------------

  ==> Geometry <==

    Molecular point group: c2h
    Full point group: C2h

    Geometry (in Angstrom), charge = 0, multiplicity = 1:

       Center              X                  Y                   Z               Mass       
    ------------   -----------------  -----------------  -----------------  -----------------
         C           -1.221510000000    -0.693250000000     0.000000000000    12.000000000000
         C           -1.211140000000     0.711220000000     0.000000000000    12.000000000000
         C           -0.010370000000    -1.404520000000     0.000000000000    12.000000000000
         C            0.010370000000     1.404520000000     0.000000000000    12.000000000000
         C            1.211140000000    -0.711220000000     0.000000000000    12.000000000000
         C            1.221510000000     0.693250000000     0.000000000000    12.000000000000
         H           -2.173110000000    -1.233320000000     0.000000000000     1.007825032230
         H           -2.154640000000     1.265330000000     0.000000000000     1.007825032230
         H           -0.018480000000    -2.498650000000     0.000000000000     1.007825032230
         H            0.018480000000     2.498650000000     0.000000000000     1.007825032230
         H            2.154640000000    -1.265330000000     0.000000000000     1.007825032230
         H            2.173110000000     1.233320000000     0.000000000000     1.007825032230

  Running in c2h symmetry.

  Rotational constants: A =      0.18753  B =      0.18752  C =      0.09376 [cm^-1]
  Rotational constants: A =   5621.92707  B =   5621.82252  C =   2810.93740 [MHz]
  Nuclear repulsion =  202.013308935380167

  Charge       = 0
  Multiplicity = 1
  Electrons    = 42
  Nalpha       = 21
  Nbeta        = 21

  ==> Algorithm <==

  SCF Algorithm Type is DF.
  DIIS enabled.
  MOM disabled.
  Fractional occupation disabled.
  Guess Type is SAD.
  Energy threshold   = 1.00e-08
  Density threshold  = 1.00e-08
  Integral threshold = 0.00e+00

  ==> Primary Basis <==

  Basis Set: AUG-CC-PVTZ
    Blend: AUG-CC-PVTZ
    Number of shells: 138
    Number of basis function: 414
    Number of Cartesian functions: 480
    Spherical Harmonics?: true
    Max angular momentum: 3

  ==> DFT Potential <==

   => Composite Functional: M06-2X <= 

    Hybrid M06-2X Meta-GGA XC Functional

    Y. Zhao and D. G. Truhlar,  Theor. Chem. Acc., 120, 215, 2008


    Deriv               =              1
    GGA                 =           TRUE
    Meta                =           TRUE

    Exchange Hybrid     =           TRUE
    MP2 Hybrid          =          FALSE

   => Exchange Functionals <=

    1.0000   XC_HYB_MGGA_X_M06_2X

   => Exact (HF) Exchange <=

    0.5400               HF 

   => Correlation Functionals <=

    1.0000   XC_MGGA_C_M06_2X

   => Molecular Quadrature <=

    Radial Scheme          =       TREUTLER
    Pruning Scheme         =           FLAT
    Nuclear Scheme         =       TREUTLER

    BS radius alpha        =              1
    Pruning alpha          =              1
    Radial Points          =             75
    Spherical Points       =            302
    Total Points           =         271800
    Total Blocks           =           2142
    Max Points             =            256
    Max Functions          =            411

   => Loading Basis Set <=

    Name: (AUG-CC-PVTZ AUX)
    Role: JKFIT
    Keyword: DF_BASIS_SCF
    atoms 1-6  entry C          line   162 file /home/akrom/software/anaconda3/envs/ffpenv/share/psi4/basis/aug-cc-pvtz-jkfit.gbs 
    atoms 7-12 entry H          line    70 file /home/akrom/software/anaconda3/envs/ffpenv/share/psi4/basis/aug-cc-pvtz-jkfit.gbs 

  ==> Pre-Iterations <==

   -------------------------------------------------------
    Irrep   Nso     Nmo     Nalpha   Nbeta   Ndocc  Nsocc
   -------------------------------------------------------
     Ag       138     138       0       0       0       0
     Bg        69      69       0       0       0       0
     Au        69      69       0       0       0       0
     Bu       138     138       0       0       0       0
   -------------------------------------------------------
    Total     414     414      21      21      21       0
   -------------------------------------------------------

  ==> Integral Setup <==

  ==> DiskDFJK: Density-Fitted J/K Matrices <==

    J tasked:                  Yes
    K tasked:                  Yes
    wK tasked:                  No
    OpenMP threads:              1
    Integrals threads:           1
    Memory [MiB]:              337
    Algorithm:                Disk
    Integral Cache:           NONE
    Schwarz Cutoff:          1E-12
    Fitting Condition:       1E-10

   => Auxiliary Basis Set <=

  Basis Set: (AUG-CC-PVTZ AUX)
    Blend: AUG-CC-PVTZ-JKFIT
    Number of shells: 264
    Number of basis function: 900
    Number of Cartesian functions: 1116
    Spherical Harmonics?: true
    Max angular momentum: 4

  Cached 0.6% of DFT collocation blocks in 0.027 [GiB].

  Minimum eigenvalue in the overlap matrix is 3.6806800801E-07.
  Using Symmetric Orthogonalization.

  SCF Guess: Superposition of Atomic Densities via on-the-fly atomic UHF.

  ==> Iterations <==

                           Total Energy        Delta E     RMS |[F,P]|

   @DF-RKS iter SAD:  -231.63278796858458   -2.31633e+02   0.00000e+00 
   @DF-RKS iter   1:  -231.84954811345705   -2.16760e-01   3.90414e-03 DIIS
   @DF-RKS iter   2:  -231.88757826739183   -3.80302e-02   3.67500e-03 DIIS
   @DF-RKS iter   3:  -232.21990101124911   -3.32323e-01   3.25814e-04 DIIS
   @DF-RKS iter   4:  -232.22223402387124   -2.33301e-03   4.72102e-05 DIIS
   @DF-RKS iter   5:  -232.22229557892695   -6.15551e-05   6.63955e-06 DIIS
   @DF-RKS iter   6:  -232.22229678372153   -1.20479e-06   6.09419e-07 DIIS
   @DF-RKS iter   7:  -232.22229680124696   -1.75254e-08   7.17022e-08 DIIS
   @DF-RKS iter   8:  -232.22229680149337   -2.46416e-10   1.77442e-08 DIIS
   @DF-RKS iter   9:  -232.22229680149809   -4.71800e-12   1.25326e-08 DIIS
   @DF-RKS iter  10:  -232.22229680150127   -3.18323e-12   2.63908e-10 DIIS
  Energy and wave function converged.


  ==> Post-Iterations <==

    Orbital Energies [Eh]
    ---------------------

    Doubly Occupied:                                                      

       1Ag   -10.550379     1Bu   -10.550030     2Bu   -10.550025  
       2Ag   -10.549206     3Ag   -10.549200     3Bu   -10.548870  
       4Ag    -0.955475     4Bu    -0.841091     5Bu    -0.841083  
       5Ag    -0.684840     6Ag    -0.684826     7Ag    -0.596956  
       6Bu    -0.534536     7Bu    -0.511070     8Bu    -0.487209  
       9Bu    -0.487195     1Au    -0.437568     8Ag    -0.403367  
       9Ag    -0.403357     1Bg    -0.308557     2Bg    -0.308549  

    Virtual:                                                              

      10Ag    -0.003797    10Bu     0.008078    11Bu     0.008080  
       2Au     0.014115     3Au     0.014123    11Ag     0.026016  
      12Ag     0.026018    12Bu     0.048876     4Au     0.051593  
      13Ag     0.064102     3Bg     0.066836     4Bg     0.066839  
      13Bu     0.079289    14Bu     0.086475    15Bu     0.086480  
      14Ag     0.093200    15Ag     0.093203    16Ag     0.094346  
      16Bu     0.101755    17Bu     0.101760     5Au     0.104631  
       6Au     0.104643    18Bu     0.119348    17Ag     0.121345  
      18Ag     0.121347     5Bg     0.123482     7Au     0.188909  
      19Ag     0.193449     6Bg     0.194837    19Bu     0.202480  
      20Bu     0.202487    20Ag     0.204961    21Ag     0.206589  
      22Ag     0.206604    23Ag     0.224606    24Ag     0.224625  
      21Bu     0.242281    22Bu     0.244692    23Bu     0.244693  
       7Bg     0.246420     8Bg     0.246426    24Bu     0.247248  
      25Bu     0.270607    26Bu     0.273581    27Bu     0.273587  
      25Ag     0.279670    26Ag     0.282253    27Ag     0.282260  
       8Au     0.310935     9Au     0.310938    28Ag     0.321852  
       9Bg     0.341682    10Au     0.353703    10Bg     0.360707  
      11Bg     0.360723    28Bu     0.360853    29Bu     0.360863  
      12Bg     0.366934    11Au     0.370366    12Au     0.370373  
      29Ag     0.380613    30Ag     0.380621    30Bu     0.389382  
      31Bu     0.389384    32Bu     0.401776    31Ag     0.409247  
      33Bu     0.424812    32Ag     0.430401    34Bu     0.432476  
      35Bu     0.432480    33Ag     0.438487    34Ag     0.438491  
      13Au     0.461186    35Ag     0.462081    36Ag     0.462084  
      13Bg     0.465863    14Bg     0.536076    15Bg     0.536080  
      36Bu     0.536794    14Au     0.540469    15Au     0.540477  
      37Ag     0.548396    38Ag     0.548402    37Bu     0.560810  
      38Bu     0.560822    39Ag     0.592857    40Ag     0.592865  
      41Ag     0.599548    42Ag     0.612843    39Bu     0.625612  
      40Bu     0.625629    16Au     0.631040    16Bg     0.653570  
      17Bg     0.653586    41Bu     0.654320    42Bu     0.674568  
      43Ag     0.685716    43Bu     0.685960    44Bu     0.696216  
      45Bu     0.696221    44Ag     0.726646    45Ag     0.726651  
      46Ag     0.736229    17Au     0.741598    18Au     0.741610  
      46Bu     0.748323    47Bu     0.748351    47Ag     0.756634  
      18Bg     0.763040    19Au     0.777487    19Bg     0.789097  
      48Ag     0.801404    49Ag     0.801423    48Bu     0.825697  
      20Au     0.835027    21Au     0.836755    22Au     0.836769  
      50Ag     0.844301    49Bu     0.859277    50Bu     0.859290  
      23Au     0.912893    24Au     0.912899    20Bg     0.927494  
      21Bg     0.927515    51Ag     0.930355    22Bg     0.932237  
      23Bg     0.932245    52Ag     0.933358    51Bu     0.961079  
      52Bu     0.961097    53Ag     0.961260    54Ag     0.961271  
      53Bu     0.962764    24Bg     0.981795    25Bg     0.983013  
      54Bu     1.015418    55Bu     1.015496    56Bu     1.015508  
      26Bg     1.027633    27Bg     1.027694    55Ag     1.046752  
      56Ag     1.046767    57Bu     1.076729    58Bu     1.076744  
      57Ag     1.081772    58Ag     1.081801    59Bu     1.082158  
      59Ag     1.111596    60Ag     1.111610    60Bu     1.112245  
      61Ag     1.117745    25Au     1.125958    26Au     1.125963  
      27Au     1.166594    62Ag     1.219051    63Ag     1.219073  
      28Au     1.229719    29Au     1.251398    30Au     1.251444  
      61Bu     1.260385    62Bu     1.260418    63Bu     1.278899  
      64Ag     1.279381    28Bg     1.311044    29Bg     1.311080  
      30Bg     1.329763    65Ag     1.341024    66Ag     1.341040  
      67Ag     1.343168    64Bu     1.352269    65Bu     1.352364  
      66Bu     1.404052    31Au     1.451821    32Au     1.475773  
      33Au     1.475817    31Bg     1.498556    32Bg     1.498639  
      68Ag     1.526066    67Bu     1.539189    68Bu     1.539235  
      69Bu     1.559589    70Bu     1.559635    33Bg     1.587578  
      71Bu     1.598618    72Bu     1.618605    73Bu     1.618619  
      69Ag     1.648892    70Ag     1.648965    34Au     1.650818  
      71Ag     1.666866    34Bg     1.669102    35Bg     1.669184  
      36Bg     1.705490    72Ag     1.715744    73Ag     1.717666  
      74Ag     1.717705    35Au     1.738550    36Au     1.793498  
      37Au     1.793595    75Ag     1.808633    76Ag     1.808681  
      74Bu     1.818762    75Bu     1.818792    76Bu     1.824669  
      77Bu     1.849301    77Ag     1.858572    78Ag     1.858593  
      37Bg     1.875737    38Bg     1.875814    78Bu     1.892645  
      79Bu     1.892682    80Bu     1.895811    39Bg     1.954423  
      38Au     2.044933    39Au     2.045089    79Ag     2.047374  
      80Ag     2.047398    40Au     2.124641    41Au     2.124658  
      81Bu     2.128201    82Bu     2.128298    81Ag     2.137010  
      40Bg     2.159757    41Bg     2.159839    83Bu     2.191840  
      42Bg     2.192731    82Ag     2.253648    83Ag     2.253741  
      84Bu     2.316535    85Bu     2.316559    86Bu     2.325028  
      84Ag     2.387298    85Ag     2.387372    42Au     2.395766  
      43Au     2.484132    87Bu     2.486354    86Ag     2.519938  
      87Ag     2.561229    88Ag     2.561257    89Ag     2.580508  
      90Ag     2.586281    88Bu     2.664099    89Bu     2.782532  
      90Bu     2.782581    91Ag     2.816970    43Bg     2.845561  
      44Bg     2.845586    44Au     2.900902    45Au     2.900940  
      45Bg     2.986531    92Ag     2.991599    93Ag     2.991655  
      46Au     3.016440    91Bu     3.045489    92Bu     3.045521  
      94Ag     3.053921    47Au     3.067303    93Bu     3.074973  
      46Bg     3.076557    47Bg     3.076658    95Ag     3.113414  
      96Ag     3.113454    48Au     3.199939    49Au     3.200096  
      94Bu     3.222956    95Bu     3.223012    48Bg     3.251083  
      49Bg     3.251208    50Au     3.258189    51Au     3.258274  
      97Ag     3.263702    52Au     3.272121    50Bg     3.299824  
      98Ag     3.318846    99Ag     3.318866    96Bu     3.348847  
      51Bg     3.404111    97Bu     3.435860    98Bu     3.447282  
     100Ag     3.470215   101Ag     3.484742   102Ag     3.484775  
      99Bu     3.489603   100Bu     3.489668    53Au     3.517741  
      54Au     3.517762    52Bg     3.536174    53Bg     3.536221  
     101Bu     3.610367   102Bu     3.610410   103Bu     3.627749  
     104Bu     3.627784   105Bu     3.666016   103Ag     3.684674  
     104Ag     3.684740   106Bu     3.690710   107Bu     3.690731  
      54Bg     3.725058   105Ag     3.748505    55Bg     3.754916  
      56Bg     3.755015   106Ag     3.785806   107Ag     3.786292  
      55Au     3.820452    57Bg     3.821192   108Bu     3.847255  
      56Au     3.880978    57Au     3.881080    58Bg     3.910325  
     108Ag     3.910980    59Bg     3.935493    60Bg     3.935524  
     109Bu     3.948558   110Bu     3.993532   111Bu     3.993610  
      58Au     4.051843    59Au     4.051899   109Ag     4.059116  
     112Bu     4.064914   110Ag     4.076872   111Ag     4.076919  
     113Bu     4.092027   114Bu     4.092170   112Ag     4.122555  
     113Ag     4.122628    60Au     4.210159   114Ag     4.308914  
      61Au     4.309497    62Au     4.309545   115Bu     4.340696  
     116Bu     4.340893    63Au     4.343416    61Bg     4.385243  
      62Bg     4.385432   115Ag     4.439593   116Ag     4.439600  
     117Ag     4.477109   117Bu     4.492933    63Bg     4.544176  
     118Bu     4.601197   119Bu     4.601316   118Ag     4.661685  
     119Ag     4.661896    64Bg     4.691403    65Bg     4.691602  
      64Au     4.722860   120Bu     4.723669    66Bg     4.743496  
      67Bg     4.743659    65Au     4.752065    66Au     4.752170  
     121Bu     4.757998   120Ag     4.804782   121Ag     4.804831  
     122Ag     4.805185    67Au     4.876168   123Ag     4.910157  
     124Ag     4.910298    68Bg     4.932815   122Bu     4.987149  
     123Bu     4.987393    68Au     5.007508    69Au     5.007664  
     125Ag     5.023572   124Bu     5.089481   125Bu     5.258681  
     126Bu     5.258854   126Ag     5.293887   127Ag     5.294367  
     128Ag     5.398623    69Bg     5.410098   129Ag     5.471109  
     127Bu     5.512092   128Bu     5.650582   129Bu     5.650710  
     130Ag     5.732797   131Ag     5.733345   130Bu     5.853163  
     131Bu     5.891437   132Bu     5.891613   133Bu     6.115465  
     134Bu     6.116092   132Ag     6.384754   133Ag     6.384949  
     134Ag     6.468624   135Bu     6.714976   135Ag     6.843594  
     136Ag    14.934861   137Ag    14.935280   138Ag    16.017057  
     136Bu    18.110767   137Bu    18.110799   138Bu    18.279227  

    Final Occupation by Irrep:
             Ag    Bg    Au    Bu 
    DOCC [     9,    2,    1,    9 ]

  @DF-RKS Final Energy:  -232.22229680150127

   => Energetics <=

    Nuclear Repulsion Energy =            202.0133089353801665
    One-Electron Energy =                -711.1396385721807292
    Two-Electron Energy =                 293.6261673957727680
    DFT Exchange-Correlation Energy =     -16.7221345604735134
    Empirical Dispersion Energy =           0.0000000000000000
    VV10 Nonlocal Energy =                  0.0000000000000000
    Total Energy =                       -232.2222968015013009

Computation Completed


Properties will be evaluated at   0.000000,   0.000000,   0.000000 [a0]

Properties computed using the SCF density matrix

  Nuclear Dipole Moment: [e a0]
     X:    -0.0000      Y:    -0.0000      Z:     0.0000

  Electronic Dipole Moment: [e a0]
     X:     0.0000      Y:     0.0000      Z:     0.0000

  Dipole Moment: [e a0]
     X:    -0.0000      Y:    -0.0000      Z:     0.0000     Total:     0.0000

  Dipole Moment: [D]
     X:    -0.0000      Y:    -0.0000      Z:     0.0000     Total:     0.0000


*** tstop() called on atlantis at Wed Apr 20 04:19:12 2022
Module time:
	user time   =     170.56 seconds =       2.84 minutes
	system time =       2.34 seconds =       0.04 minutes
	total time  =        173 seconds =       2.88 minutes
Total time:
	user time   =     504.52 seconds =       8.41 minutes
	system time =       6.80 seconds =       0.11 minutes
	total time  =        511 seconds =       8.52 minutes

*** tstart() called on atlantis
*** at Wed Apr 20 04:19:12 2022


         ------------------------------------------------------------
                                   SCF GRAD                          
                          Rob Parrish, Justin Turney,                
                       Andy Simmonett, and Alex Sokolov              
         ------------------------------------------------------------

  ==> Geometry <==

    Molecular point group: c2h
    Full point group: C2h

    Geometry (in Angstrom), charge = 0, multiplicity = 1:

       Center              X                  Y                   Z               Mass       
    ------------   -----------------  -----------------  -----------------  -----------------
         C           -1.221510000000    -0.693250000000     0.000000000000    12.000000000000
         C           -1.211140000000     0.711220000000     0.000000000000    12.000000000000
         C           -0.010370000000    -1.404520000000     0.000000000000    12.000000000000
         C            0.010370000000     1.404520000000     0.000000000000    12.000000000000
         C            1.211140000000    -0.711220000000     0.000000000000    12.000000000000
         C            1.221510000000     0.693250000000     0.000000000000    12.000000000000
         H           -2.173110000000    -1.233320000000     0.000000000000     1.007825032230
         H           -2.154640000000     1.265330000000     0.000000000000     1.007825032230
         H           -0.018480000000    -2.498650000000     0.000000000000     1.007825032230
         H            0.018480000000     2.498650000000     0.000000000000     1.007825032230
         H            2.154640000000    -1.265330000000     0.000000000000     1.007825032230
         H            2.173110000000     1.233320000000     0.000000000000     1.007825032230

  Nuclear repulsion =  202.013308935380167

  ==> Basis Set <==

  Basis Set: AUG-CC-PVTZ
    Blend: AUG-CC-PVTZ
    Number of shells: 138
    Number of basis function: 414
    Number of Cartesian functions: 480
    Spherical Harmonics?: true
    Max angular momentum: 3

  ==> DFJKGrad: Density-Fitted SCF Gradients <==

    Gradient:                    1
    J tasked:                  Yes
    K tasked:                  Yes
    wK tasked:                  No
    OpenMP threads:              1
    Integrals threads:           1
    Memory [MiB]:              375
    Schwarz Cutoff:          0E+00
    Fitting Condition:       1E-10

   => Auxiliary Basis Set <=

  Basis Set: (AUG-CC-PVTZ AUX)
    Blend: AUG-CC-PVTZ-JKFIT
    Number of shells: 264
    Number of basis function: 900
    Number of Cartesian functions: 1116
    Spherical Harmonics?: true
    Max angular momentum: 4

  ==> DFT Potential <==

   => Composite Functional: M06-2X <= 

    Hybrid M06-2X Meta-GGA XC Functional

    Y. Zhao and D. G. Truhlar,  Theor. Chem. Acc., 120, 215, 2008


    Deriv               =              1
    GGA                 =           TRUE
    Meta                =           TRUE

    Exchange Hybrid     =           TRUE
    MP2 Hybrid          =          FALSE

   => Exchange Functionals <=

    1.0000   XC_HYB_MGGA_X_M06_2X

   => Exact (HF) Exchange <=

    0.5400               HF 

   => Correlation Functionals <=

    1.0000   XC_MGGA_C_M06_2X

   => Molecular Quadrature <=

    Radial Scheme          =       TREUTLER
    Pruning Scheme         =           FLAT
    Nuclear Scheme         =       TREUTLER

    BS radius alpha        =              1
    Pruning alpha          =              1
    Radial Points          =             75
    Spherical Points       =            302
    Total Points           =         271800
    Total Blocks           =           2142
    Max Points             =            256
    Max Functions          =            411


  -Total Gradient:
     Atom            X                  Y                   Z
    ------   -----------------  -----------------  -----------------
       1       -0.006073963180    -0.003429742884     0.000000000000
       2       -0.006018849286     0.003542673342     0.000000000000
       3       -0.000035940309    -0.007016770710     0.000000000000
       4        0.000035940309     0.007016770710     0.000000000000
       5        0.006018849286    -0.003542673342    -0.000000000000
       6        0.006073963180     0.003429742884     0.000000000000
       7       -0.007556647225    -0.004320329744     0.000000000000
       8       -0.007480364368     0.004458155157     0.000000000000
       9       -0.000057275110    -0.008690066273     0.000000000000
      10        0.000057275110     0.008690066273     0.000000000000
      11        0.007480364368    -0.004458155157     0.000000000000
      12        0.007556647225     0.004320329744     0.000000000000


*** tstop() called on atlantis at Wed Apr 20 04:19:48 2022
Module time:
	user time   =      36.01 seconds =       0.60 minutes
	system time =       0.18 seconds =       0.00 minutes
	total time  =         36 seconds =       0.60 minutes
Total time:
	user time   =     540.53 seconds =       9.01 minutes
	system time =       6.98 seconds =       0.12 minutes
	total time  =        547 seconds =       9.12 minutes

  //>>>>>>>>>>>>>>>>>>>>>>>>>>>>>>>>>>>//
  //    Loading displacement 2 of 42   //
  //<<<<<<<<<<<<<<<<<<<<<<<<<<<<<<<<<<<//
gradient() will perform analytic gradient computation.

*** tstart() called on atlantis
*** at Wed Apr 20 04:19:48 2022

   => Loading Basis Set <=

    Name: AUG-CC-PVTZ
    Role: ORBITAL
    Keyword: BASIS
    atoms 1-6  entry C          line   235 file /home/akrom/software/anaconda3/envs/ffpenv/share/psi4/basis/aug-cc-pvtz.gbs 
    atoms 7-12 entry H          line    36 file /home/akrom/software/anaconda3/envs/ffpenv/share/psi4/basis/aug-cc-pvtz.gbs 


         ---------------------------------------------------------
                                   SCF
               by Justin Turney, Rob Parrish, Andy Simmonett
                          and Daniel G. A. Smith
                              RKS Reference
                        1 Threads,    500 MiB Core
         ---------------------------------------------------------

  ==> Geometry <==

    Molecular point group: c2h
    Full point group: C2h

    Geometry (in Angstrom), charge = 0, multiplicity = 1:

       Center              X                  Y                   Z               Mass       
    ------------   -----------------  -----------------  -----------------  -----------------
         C           -1.222032477591    -0.693313109608     0.000000000000    12.000000000000
         C           -1.211176745353     0.711157426160     0.000000000000    12.000000000000
         C           -0.010297435136    -1.404520535769     0.000000000000    12.000000000000
         C            0.010297435136     1.404520535769     0.000000000000    12.000000000000
         C            1.211176745353    -0.711157426160     0.000000000000    12.000000000000
         C            1.222032477591     0.693313109608     0.000000000000    12.000000000000
         H           -2.173046280225    -1.233432274252     0.000000000000     1.007825032230
         H           -2.154705373579     1.265218680005     0.000000000000     1.007825032230
         H           -0.018350906646    -2.498650954774     0.000000000000     1.007825032230
         H            0.018350906646     2.498650954774     0.000000000000     1.007825032230
         H            2.154705373579    -1.265218680005     0.000000000000     1.007825032230
         H            2.173046280225     1.233432274252     0.000000000000     1.007825032230

  Running in c2h symmetry.

  Rotational constants: A =      0.18753  B =      0.18745  C =      0.09375 [cm^-1]
  Rotational constants: A =   5621.97670  B =   5619.72613  C =   2810.42560 [MHz]
  Nuclear repulsion =  201.998047561272216

  Charge       = 0
  Multiplicity = 1
  Electrons    = 42
  Nalpha       = 21
  Nbeta        = 21

  ==> Algorithm <==

  SCF Algorithm Type is DF.
  DIIS enabled.
  MOM disabled.
  Fractional occupation disabled.
  Guess Type is SAD.
  Energy threshold   = 1.00e-08
  Density threshold  = 1.00e-08
  Integral threshold = 0.00e+00

  ==> Primary Basis <==

  Basis Set: AUG-CC-PVTZ
    Blend: AUG-CC-PVTZ
    Number of shells: 138
    Number of basis function: 414
    Number of Cartesian functions: 480
    Spherical Harmonics?: true
    Max angular momentum: 3

  ==> DFT Potential <==

   => Composite Functional: M06-2X <= 

    Hybrid M06-2X Meta-GGA XC Functional

    Y. Zhao and D. G. Truhlar,  Theor. Chem. Acc., 120, 215, 2008


    Deriv               =              1
    GGA                 =           TRUE
    Meta                =           TRUE

    Exchange Hybrid     =           TRUE
    MP2 Hybrid          =          FALSE

   => Exchange Functionals <=

    1.0000   XC_HYB_MGGA_X_M06_2X

   => Exact (HF) Exchange <=

    0.5400               HF 

   => Correlation Functionals <=

    1.0000   XC_MGGA_C_M06_2X

   => Molecular Quadrature <=

    Radial Scheme          =       TREUTLER
    Pruning Scheme         =           FLAT
    Nuclear Scheme         =       TREUTLER

    BS radius alpha        =              1
    Pruning alpha          =              1
    Radial Points          =             75
    Spherical Points       =            302
    Total Points           =         271800
    Total Blocks           =           2142
    Max Points             =            256
    Max Functions          =            411

   => Loading Basis Set <=

    Name: (AUG-CC-PVTZ AUX)
    Role: JKFIT
    Keyword: DF_BASIS_SCF
    atoms 1-6  entry C          line   162 file /home/akrom/software/anaconda3/envs/ffpenv/share/psi4/basis/aug-cc-pvtz-jkfit.gbs 
    atoms 7-12 entry H          line    70 file /home/akrom/software/anaconda3/envs/ffpenv/share/psi4/basis/aug-cc-pvtz-jkfit.gbs 

  ==> Pre-Iterations <==

   -------------------------------------------------------
    Irrep   Nso     Nmo     Nalpha   Nbeta   Ndocc  Nsocc
   -------------------------------------------------------
     Ag       138     138       0       0       0       0
     Bg        69      69       0       0       0       0
     Au        69      69       0       0       0       0
     Bu       138     138       0       0       0       0
   -------------------------------------------------------
    Total     414     414      21      21      21       0
   -------------------------------------------------------

  ==> Integral Setup <==

  ==> DiskDFJK: Density-Fitted J/K Matrices <==

    J tasked:                  Yes
    K tasked:                  Yes
    wK tasked:                  No
    OpenMP threads:              1
    Integrals threads:           1
    Memory [MiB]:              337
    Algorithm:                Disk
    Integral Cache:           NONE
    Schwarz Cutoff:          1E-12
    Fitting Condition:       1E-10

   => Auxiliary Basis Set <=

  Basis Set: (AUG-CC-PVTZ AUX)
    Blend: AUG-CC-PVTZ-JKFIT
    Number of shells: 264
    Number of basis function: 900
    Number of Cartesian functions: 1116
    Spherical Harmonics?: true
    Max angular momentum: 4

  Cached 0.6% of DFT collocation blocks in 0.034 [GiB].

  Minimum eigenvalue in the overlap matrix is 3.6798908591E-07.
  Using Symmetric Orthogonalization.

  SCF Guess: Superposition of Atomic Densities via on-the-fly atomic UHF.

  ==> Iterations <==

                           Total Energy        Delta E     RMS |[F,P]|

   @DF-RKS iter SAD:  -231.63190658734047   -2.31632e+02   0.00000e+00 
   @DF-RKS iter   1:  -231.84994078026514   -2.18034e-01   3.90257e-03 DIIS
   @DF-RKS iter   2:  -231.88828071692768   -3.83399e-02   3.67162e-03 DIIS
   @DF-RKS iter   3:  -232.22002319394420   -3.31742e-01   3.25811e-04 DIIS
   @DF-RKS iter   4:  -232.22235636888638   -2.33317e-03   4.71896e-05 DIIS
   @DF-RKS iter   5:  -232.22241789202317   -6.15231e-05   6.64191e-06 DIIS
   @DF-RKS iter   6:  -232.22241909436400   -1.20234e-06   7.11157e-07 DIIS
   @DF-RKS iter   7:  -232.22241911017002   -1.58060e-08   4.64196e-07 DIIS
   @DF-RKS iter   8:  -232.22241911483323   -4.66321e-09   9.48184e-08 DIIS
   @DF-RKS iter   9:  -232.22241911506447   -2.31239e-10   3.69141e-09 DIIS
  Energy and wave function converged.


  ==> Post-Iterations <==

    Orbital Energies [Eh]
    ---------------------

    Doubly Occupied:                                                      

       1Ag   -10.550387     1Bu   -10.550049     2Bu   -10.550022  
       2Ag   -10.549226     3Ag   -10.549197     3Bu   -10.548879  
       4Ag    -0.955373     4Bu    -0.841108     5Bu    -0.841001  
       5Ag    -0.684914     6Ag    -0.684750     7Ag    -0.596931  
       6Bu    -0.534627     7Bu    -0.511004     8Bu    -0.487295  
       9Bu    -0.487145     1Au    -0.437493     8Ag    -0.403526  
       9Ag    -0.403227     1Bg    -0.308585     2Bg    -0.308465  

    Virtual:                                                              

      10Ag    -0.003793    10Bu     0.008076    11Bu     0.008082  
       2Au     0.014040     3Au     0.014154    11Ag     0.026014  
      12Ag     0.026016    12Bu     0.048875     4Au     0.051574  
      13Ag     0.064074     3Bg     0.066836     4Bg     0.066848  
      13Bu     0.079289    14Bu     0.086475    15Bu     0.086488  
      14Ag     0.093197    15Ag     0.093203    16Ag     0.094342  
      16Bu     0.101756    17Bu     0.101766     5Au     0.104635  
       6Au     0.104637    18Bu     0.119347    17Ag     0.121344  
      18Ag     0.121346     5Bg     0.123474     7Au     0.188916  
      19Ag     0.193497     6Bg     0.194775    19Bu     0.202470  
      20Bu     0.202495    20Ag     0.204947    21Ag     0.206587  
      22Ag     0.206594    23Ag     0.224596    24Ag     0.224628  
      21Bu     0.242290    22Bu     0.244679    23Bu     0.244768  
       7Bg     0.246420     8Bg     0.246428    24Bu     0.247261  
      25Bu     0.270620    26Bu     0.273565    27Bu     0.273582  
      25Ag     0.279704    26Ag     0.282265    27Ag     0.282284  
       8Au     0.310919     9Au     0.310948    28Ag     0.321864  
       9Bg     0.341673    10Au     0.353685    28Bu     0.360726  
      10Bg     0.360733    11Bg     0.360773    29Bu     0.360895  
      12Bg     0.366921    11Au     0.370366    12Au     0.370378  
      29Ag     0.380517    30Ag     0.380630    30Bu     0.389385  
      31Bu     0.389387    32Bu     0.401797    31Ag     0.409231  
      33Bu     0.424833    32Ag     0.430387    34Bu     0.432456  
      35Bu     0.432481    33Ag     0.438496    34Ag     0.438523  
      13Au     0.461218    35Ag     0.462044    36Ag     0.462077  
      13Bg     0.465871    14Bg     0.536054    15Bg     0.536103  
      36Bu     0.536751    14Au     0.540441    15Au     0.540534  
      37Ag     0.548377    38Ag     0.548428    37Bu     0.560772  
      38Bu     0.560844    39Ag     0.592870    40Ag     0.592895  
      41Ag     0.599477    42Ag     0.612995    39Bu     0.625503  
      40Bu     0.625700    16Au     0.631034    16Bg     0.653551  
      17Bg     0.653578    41Bu     0.654261    42Bu     0.674513  
      43Ag     0.685627    43Bu     0.686018    44Bu     0.696158  
      45Bu     0.696301    44Ag     0.726575    45Ag     0.726674  
      46Ag     0.736202    17Au     0.741590    18Au     0.741598  
      46Bu     0.748337    47Bu     0.748399    47Ag     0.756735  
      18Bg     0.763039    19Au     0.777359    19Bg     0.789069  
      48Ag     0.801382    49Ag     0.801486    48Bu     0.825642  
      20Au     0.835135    21Au     0.836749    22Au     0.836815  
      50Ag     0.844244    49Bu     0.859219    50Bu     0.859273  
      23Au     0.912870    24Au     0.912877    20Bg     0.927492  
      21Bg     0.927527    51Ag     0.930291    22Bg     0.932266  
      23Bg     0.932299    52Ag     0.933488    51Bu     0.961042  
      52Bu     0.961102    53Ag     0.961195    54Ag     0.961279  
      53Bu     0.962741    24Bg     0.981798    25Bg     0.983022  
      54Bu     1.015334    55Bu     1.015503    56Bu     1.015523  
      26Bg     1.027502    27Bg     1.027597    55Ag     1.046773  
      56Ag     1.046930    57Bu     1.076718    58Bu     1.076756  
      57Ag     1.081746    58Ag     1.081799    59Bu     1.082152  
      59Ag     1.111550    60Ag     1.111640    60Bu     1.112224  
      61Ag     1.117777    25Au     1.125960    26Au     1.125978  
      27Au     1.166725    62Ag     1.219066    63Ag     1.219102  
      28Au     1.229657    29Au     1.251390    30Au     1.251436  
      61Bu     1.260405    62Bu     1.260418    63Bu     1.278888  
      64Ag     1.279382    28Bg     1.310991    29Bg     1.311098  
      30Bg     1.329770    65Ag     1.340977    66Ag     1.341093  
[...]
      5   C                0.02 -0.18  0.00   -0.32  0.13 -0.00    0.00 -0.00 -0.03   
      6   C               -0.32 -0.14 -0.00   -0.00  0.16  0.00   -0.00  0.00 -0.04   
      7   H                0.23  0.30 -0.00   -0.17  0.15 -0.00   -0.00  0.00  0.41   
      8   H               -0.18 -0.10 -0.00    0.24 -0.26  0.00    0.00 -0.00  0.41   
      9   H               -0.15 -0.25 -0.00    0.23 -0.25  0.00   -0.00  0.00  0.41   
     10   H                0.15  0.25  0.00   -0.23  0.25 -0.00   -0.00  0.00  0.41   
     11   H                0.18  0.10  0.00   -0.24  0.26  0.00   -0.00 -0.00  0.41   
     12   H               -0.23 -0.30 -0.00    0.17 -0.15  0.00   -0.00  0.00  0.41   

  Vibration                       13                  14                  15          
  Freq [cm^-1]                 923.1971            925.2936            981.0657       
  Irrep                           Bg                  Bg                  Ag          
  Reduced mass [u]              1.2479              1.2479              3.6544        
  Force const [mDyne/A]         0.6266              0.6295              2.0724        
  Turning point v=0 [a0]        0.3233              0.3229              0.1833        
  RMS dev v=0 [a0 u^1/2]        0.2554              0.2551              0.2477        
  Char temp [K]               1328.2750           1331.2915           1411.5351       
  ----------------------------------------------------------------------------------
      1   C                0.00  0.00 -0.08    0.00 -0.00 -0.02    0.14  0.14  0.00   
      2   C                0.00 -0.00 -0.02   -0.00  0.00 -0.08    0.16 -0.11 -0.00   
      3   C               -0.00 -0.00 -0.06   -0.00 -0.00  0.06    0.04  0.20  0.00   
      4   C               -0.00 -0.00  0.06    0.00 -0.00 -0.06   -0.04 -0.20 -0.00   
      5   C               -0.00  0.00  0.02   -0.00  0.00  0.08   -0.16  0.11  0.00   
      6   C                0.00  0.00  0.08   -0.00  0.00  0.02   -0.14 -0.14  0.00   
      7   H               -0.00  0.00  0.55    0.00 -0.00  0.16   -0.01  0.45  0.00   
      8   H                0.00  0.00  0.14   -0.00  0.00  0.55    0.14 -0.17  0.00   
      9   H               -0.00 -0.00  0.41   -0.00 -0.00 -0.40    0.29  0.22 -0.00   
     10   H               -0.00 -0.00 -0.41    0.00 -0.00  0.40   -0.29 -0.22  0.00   
     11   H                0.00  0.00 -0.14    0.00  0.00 -0.55   -0.14  0.17 -0.00   
     12   H               -0.00  0.00 -0.55   -0.00  0.00 -0.16    0.01 -0.45 -0.00   

  Vibration                       16                  17                  18          
  Freq [cm^-1]                1013.6780           1035.3368           1036.1445       
  Irrep                           Bu                  Bg                  Au          
  Reduced mass [u]              6.5098              1.3665              1.3570        
  Force const [mDyne/A]         3.9411              0.8630              0.8584        
  Turning point v=0 [a0]        0.1351              0.2917              0.2926        
  RMS dev v=0 [a0 u^1/2]        0.2437              0.2411              0.2410        
  Char temp [K]               1458.4569           1489.6191           1490.7813       
  ----------------------------------------------------------------------------------
      1   C               -0.25 -0.14 -0.00    0.00  0.00  0.07    0.00  0.00 -0.10   
      2   C                0.25 -0.15 -0.00   -0.00  0.00 -0.07    0.00 -0.00  0.02   
      3   C                0.00  0.29  0.00   -0.00 -0.00 -0.07   -0.00 -0.00  0.08   
      4   C                0.00  0.29 -0.00   -0.00 -0.00  0.07   -0.00  0.00  0.08   
      5   C                0.25 -0.15  0.00    0.00  0.00  0.07    0.00 -0.00  0.02   
      6   C               -0.25 -0.14  0.00   -0.00  0.00 -0.07    0.00  0.00 -0.10   
      7   H               -0.25 -0.14  0.00   -0.00  0.00 -0.40   -0.00  0.00  0.53   
      8   H                0.25 -0.15  0.00    0.00  0.00  0.41    0.00 -0.00 -0.09   
      9   H                0.00  0.29 -0.00   -0.00 -0.00  0.40   -0.00 -0.00 -0.44   
     10   H                0.00  0.29  0.00   -0.00 -0.00 -0.40   -0.00  0.00 -0.44   
     11   H                0.25 -0.15 -0.00    0.00  0.00 -0.41    0.00 -0.00 -0.09   
     12   H               -0.25 -0.14 -0.00   -0.00  0.00  0.40    0.00 -0.00  0.53   

  Vibration                       19                  20                  21          
  Freq [cm^-1]                1037.6476           1054.2410           1054.4516       
  Irrep                           Au                  Bu                  Bu          
  Reduced mass [u]              1.3534              1.8097              1.8106        
  Force const [mDyne/A]         0.8586              1.1851              1.1861        
  Turning point v=0 [a0]        0.2928              0.2512              0.2511        
  RMS dev v=0 [a0 u^1/2]        0.2409              0.2390              0.2389        
  Char temp [K]               1492.9439           1516.8181           1517.1211       
  ----------------------------------------------------------------------------------
      1   C                0.00  0.00  0.04   -0.11  0.00 -0.00   -0.03 -0.10 -0.00   
      2   C                0.00  0.00 -0.10    0.06  0.07  0.00   -0.10  0.08 -0.00   
      3   C               -0.00 -0.00  0.06    0.03 -0.12 -0.00    0.09  0.04 -0.00   
      4   C                0.00 -0.00  0.06    0.03 -0.12  0.00    0.09  0.04  0.00   
      5   C                0.00  0.00 -0.10    0.06  0.07 -0.00   -0.10  0.08 -0.00   
      6   C               -0.00  0.00  0.04   -0.11  0.00 -0.00   -0.03 -0.10 -0.00   
      7   H               -0.00  0.00 -0.20   -0.26  0.24  0.00    0.13 -0.40  0.00   
      8   H                0.00  0.00  0.56    0.29  0.45 -0.00   -0.07  0.15 -0.00   
      9   H               -0.00 -0.00 -0.35    0.18 -0.13  0.00    0.51  0.04  0.00   
     10   H                0.00 -0.00 -0.35    0.18 -0.13 -0.00    0.51  0.04 -0.00   
     11   H                0.00  0.00  0.56    0.29  0.45  0.00   -0.07  0.15  0.00   
     12   H               -0.00  0.00 -0.20   -0.26  0.24  0.00    0.13 -0.40  0.00   

  Vibration                       22                  23                  24          
  Freq [cm^-1]                1084.0092           1137.6202           1230.0786       
  Irrep                           Ag                  Bu                  Ag          
  Reduced mass [u]              1.4213              1.7351              1.1615        
  Force const [mDyne/A]         0.9840              1.3230              1.0354        
  Turning point v=0 [a0]        0.2795              0.2470              0.2903        
  RMS dev v=0 [a0 u^1/2]        0.2357              0.2300              0.2212        
  Char temp [K]               1559.6479           1636.7821           1769.8092       
  ----------------------------------------------------------------------------------
      1   C               -0.09  0.03  0.00   -0.05  0.09  0.00    0.01 -0.02  0.00   
      2   C               -0.06 -0.01 -0.00   -0.05 -0.09  0.00    0.02  0.04 -0.00   
      3   C                0.05 -0.05  0.00    0.11 -0.00 -0.00    0.07 -0.00  0.00   
      4   C               -0.05  0.05 -0.00    0.11 -0.00  0.00   -0.07  0.00 -0.00   
      5   C                0.06  0.01  0.00   -0.05 -0.09  0.00   -0.02 -0.04  0.00   
      6   C                0.09 -0.03  0.00   -0.05  0.09 -0.00   -0.01  0.02  0.00   
      7   H               -0.35  0.48 -0.00   -0.20  0.34 -0.00    0.02 -0.05  0.00   
      8   H               -0.10 -0.08  0.00   -0.20 -0.34 -0.00    0.32  0.55  0.00   
      9   H                0.33 -0.06 -0.00    0.40 -0.00  0.00    0.29 -0.01 -0.00   
     10   H               -0.33  0.06  0.00    0.40 -0.00 -0.00   -0.29  0.01  0.00   
     11   H                0.10  0.08 -0.00   -0.20 -0.34  0.00   -0.32 -0.55 -0.00   
     12   H                0.35 -0.48 -0.00   -0.20  0.34  0.00   -0.02  0.05 -0.00   

  Vibration                       25                  26                  27          
  Freq [cm^-1]                1271.3654           1361.1802           1505.2165       
  Irrep                           Bu                  Ag                  Bu          
  Reduced mass [u]              2.0030              1.2560              1.8814        
  Force const [mDyne/A]         1.9076              1.3711              2.5114        
  Turning point v=0 [a0]        0.2174              0.2654              0.2062        
  RMS dev v=0 [a0 u^1/2]        0.2176              0.2103              0.2000        
  Char temp [K]               1829.2118           1958.4352           2165.6714       
  ----------------------------------------------------------------------------------
      1   C               -0.06  0.11 -0.00   -0.03  0.06 -0.00   -0.09 -0.00 -0.00   
      2   C               -0.06 -0.11 -0.00    0.03  0.07  0.00    0.05  0.13  0.00   
      3   C                0.12 -0.00  0.00   -0.03 -0.01  0.00    0.09 -0.06 -0.00   
      4   C                0.12 -0.00 -0.00    0.03  0.01  0.00    0.09 -0.06 -0.00   
      5   C               -0.06 -0.11 -0.00   -0.03 -0.07  0.00    0.05  0.13 -0.00   
      6   C               -0.06  0.11  0.00    0.03 -0.06 -0.00   -0.09 -0.00 -0.00   
      7   H                0.19 -0.34  0.00    0.19 -0.33  0.00   -0.01 -0.19 -0.00   
      8   H                0.20  0.34  0.00   -0.14 -0.22 -0.00   -0.29 -0.45 -0.00   
      9   H               -0.39  0.00 -0.00    0.53 -0.01  0.00   -0.37 -0.07  0.00   
     10   H               -0.39  0.00  0.00   -0.53  0.01 -0.00   -0.37 -0.07 -0.00   
     11   H                0.20  0.34 -0.00    0.14  0.22  0.00   -0.29 -0.45  0.00   
     12   H                0.19 -0.34 -0.00   -0.19  0.33  0.00   -0.01 -0.19  0.00   

  Vibration                       28                  29                  30          
  Freq [cm^-1]                1505.3544           1601.6455           1633.3117       
  Irrep                           Bu                  Ag                  Ag          
  Reduced mass [u]              1.8784              4.8731              3.9699        
  Force const [mDyne/A]         2.5080              7.3652              6.2397        
  Turning point v=0 [a0]        0.2063              0.1242              0.1363        
  RMS dev v=0 [a0 u^1/2]        0.2000              0.1939              0.1920        
  Char temp [K]               2165.8699           2304.4113           2349.9720       
  ----------------------------------------------------------------------------------
      1   C               -0.04  0.13 -0.00   -0.06 -0.17  0.00   -0.16  0.19 -0.00   
      2   C                0.09 -0.02 -0.00    0.17  0.26  0.00    0.10 -0.10  0.00   
      3   C               -0.10 -0.06  0.00    0.19  0.11 -0.00    0.22 -0.07  0.00   
      4   C               -0.10 -0.06  0.00   -0.19 -0.11  0.00   -0.22  0.07 -0.00   
      5   C                0.09 -0.02  0.00   -0.17 -0.26  0.00   -0.10  0.10 -0.00   
      6   C               -0.04  0.13  0.00    0.06  0.17 -0.00    0.16 -0.19  0.00   
      7   H                0.28 -0.44  0.00   -0.24  0.11 -0.00    0.14 -0.37  0.00   
      8   H                0.03 -0.15  0.00   -0.21 -0.39 -0.00    0.14 -0.06 -0.00   
      9   H                0.40 -0.07 -0.00   -0.20  0.13  0.00   -0.43 -0.08 -0.00   
     10   H                0.40 -0.07  0.00    0.20 -0.13  0.00    0.43  0.08  0.00   
     11   H                0.03 -0.15 -0.00    0.21  0.39  0.00   -0.14  0.06 -0.00   
     12   H                0.28 -0.44 -0.00    0.24 -0.11 -0.00   -0.14  0.37  0.00   

  Vibration                       31                  32                  33          
  Freq [cm^-1]                3082.5628           3092.1007           3092.4696       
  Irrep                           Bu                  Ag                  Ag          
  Reduced mass [u]              1.0847              1.0883              1.0881        
  Force const [mDyne/A]         6.0725              6.1305              6.1309        
  Turning point v=0 [a0]        0.1898              0.1892              0.1892        
  RMS dev v=0 [a0 u^1/2]        0.1397              0.1395              0.1395        
  Char temp [K]               4435.1215           4448.8445           4449.3752       
  ----------------------------------------------------------------------------------
      1   C                0.03  0.02  0.00    0.02  0.01 -0.00   -0.04 -0.02 -0.00   
      2   C               -0.03  0.02 -0.00    0.02 -0.02 -0.00    0.04 -0.02 -0.00   
      3   C               -0.00 -0.03 -0.00   -0.00 -0.05  0.00    0.00  0.00 -0.00   
      4   C               -0.00 -0.03  0.00    0.00  0.05 -0.00   -0.00 -0.00 -0.00   
      5   C               -0.03  0.02 -0.00   -0.02  0.02  0.00   -0.04  0.02  0.00   
      6   C                0.03  0.02  0.00   -0.02 -0.01 -0.00    0.04  0.02 -0.00   
      7   H               -0.35 -0.20 -0.00   -0.27 -0.15 -0.00    0.45  0.25 -0.00   
      8   H                0.35 -0.21  0.00   -0.29  0.17 -0.00   -0.41  0.24  0.00   
      9   H                0.00  0.40  0.00    0.01  0.54  0.00   -0.00 -0.00  0.00   
     10   H                0.00  0.40 -0.00   -0.01 -0.54 -0.00    0.00  0.00 -0.00   
     11   H                0.35 -0.21  0.00    0.29 -0.17  0.00    0.41 -0.24  0.00   
     12   H               -0.35 -0.20 -0.00    0.27  0.15  0.00   -0.45 -0.25  0.00   

  Vibration                       34                  35                  36          
  Freq [cm^-1]                3107.4622           3108.1444           3118.1433       
  Irrep                           Bu                  Bu                  Ag          
  Reduced mass [u]              1.0953              1.0953              1.0988        
  Force const [mDyne/A]         6.2315              6.2341              6.2942        
  Turning point v=0 [a0]        0.1881              0.1881              0.1875        
  RMS dev v=0 [a0 u^1/2]        0.1392              0.1392              0.1389        
  Char temp [K]               4470.9463           4471.9278           4486.3140       
  ----------------------------------------------------------------------------------
      1   C               -0.03 -0.02 -0.00   -0.03 -0.01 -0.00   -0.03 -0.02  0.00   
      2   C               -0.04  0.03 -0.00    0.02 -0.01 -0.00   -0.03  0.02  0.00   
      3   C                0.00  0.01  0.00    0.00 -0.05  0.00   -0.00 -0.04 -0.00   
      4   C                0.00  0.01 -0.00    0.00 -0.05  0.00    0.00  0.04 -0.00   
      5   C               -0.04  0.03 -0.00    0.02 -0.01  0.00    0.03 -0.02  0.00   
      6   C               -0.03 -0.02  0.00   -0.03 -0.01 -0.00    0.03  0.02  0.00   
      7   H                0.40  0.23  0.00    0.31  0.17  0.00    0.32  0.18 -0.00   
      8   H                0.46 -0.27 -0.00   -0.19  0.11  0.00    0.34 -0.20 -0.00   
      9   H               -0.01 -0.08 -0.00    0.00  0.57  0.00    0.00  0.45 -0.00   
     10   H               -0.01 -0.08  0.00    0.00  0.57 -0.00   -0.00 -0.45  0.00   
     11   H                0.46 -0.27 -0.00   -0.19  0.11 -0.00   -0.34  0.20  0.00   
     12   H                0.40  0.23 -0.00    0.31  0.17  0.00   -0.32 -0.18  0.00   

  ==> Thermochemistry Components <==

  Entropy, S
    Electronic S            0.000 [cal/(mol K)]        0.000 [J/(mol K)]       0.00000000 [mEh/K] (multiplicity = 1)
    Translational S        38.979 [cal/(mol K)]      163.089 [J/(mol K)]       0.06211726 [mEh/K] (mol. weight = 78.0470 [u], P = 101325.00 [Pa])
    Rotational S           24.318 [cal/(mol K)]      101.746 [J/(mol K)]       0.03875307 [mEh/K] (symmetry no. = 2)
    Vibrational S           4.354 [cal/(mol K)]       18.215 [J/(mol K)]       0.00693775 [mEh/K]
  Total S                  67.651 [cal/(mol K)]      283.050 [J/(mol K)]       0.10780808 [mEh/K]
  Correction S              0.000 [cal/(mol K)]        0.000 [J/(mol K)]       0.00000000 [mEh/K]

  Constant volume heat capacity, Cv
    Electronic Cv           0.000 [cal/(mol K)]        0.000 [J/(mol K)]       0.00000000 [mEh/K]
    Translational Cv        2.981 [cal/(mol K)]       12.472 [J/(mol K)]       0.00475022 [mEh/K]
    Rotational Cv           2.981 [cal/(mol K)]       12.472 [J/(mol K)]       0.00475022 [mEh/K]
    Vibrational Cv         11.217 [cal/(mol K)]       46.933 [J/(mol K)]       0.01787596 [mEh/K]
  Total Cv                 17.179 [cal/(mol K)]       71.877 [J/(mol K)]       0.02737639 [mEh/K]
  Correction Cv             0.000 [cal/(mol K)]        0.000 [J/(mol K)]       0.00000000 [mEh/K]

  Constant pressure heat capacity, Cp
    Electronic Cp           0.000 [cal/(mol K)]        0.000 [J/(mol K)]       0.00000000 [mEh/K]
    Translational Cp        4.968 [cal/(mol K)]       20.786 [J/(mol K)]       0.00791703 [mEh/K]
    Rotational Cp           2.981 [cal/(mol K)]       12.472 [J/(mol K)]       0.00475022 [mEh/K]
    Vibrational Cp         11.217 [cal/(mol K)]       46.933 [J/(mol K)]       0.01787596 [mEh/K]
  Total Cp                 19.166 [cal/(mol K)]       80.191 [J/(mol K)]       0.03054320 [mEh/K]
  Correction Cp             0.000 [cal/(mol K)]        0.000 [J/(mol K)]       0.00000000 [mEh/K]

  ==> Thermochemistry Energy Analysis <==

  Raw electronic energy, E0
  Total E0, Electronic energy at well bottom at 0 [K]                 -232.22229680 [Eh]

  Zero-point energy, ZPE_vib = Sum_i nu_i / 2
    Electronic ZPE          0.000 [kcal/mol]        0.000 [kJ/mol]       0.00000000 [Eh]
    Translational ZPE       0.000 [kcal/mol]        0.000 [kJ/mol]       0.00000000 [Eh]
    Rotational ZPE          0.000 [kcal/mol]        0.000 [kJ/mol]       0.00000000 [Eh]
    Vibrational ZPE        62.077 [kcal/mol]      259.731 [kJ/mol]       0.09892620 [Eh]       21711.792 [cm^-1]
  Correction ZPE           62.077 [kcal/mol]      259.731 [kJ/mol]       0.09892620 [Eh]       21711.792 [cm^-1]
  Total ZPE, Electronic energy at 0 [K]                               -232.12337060 [Eh]

  Thermal Energy, E (includes ZPE)
    Electronic E            0.000 [kcal/mol]        0.000 [kJ/mol]       0.00000000 [Eh]
    Translational E         0.889 [kcal/mol]        3.718 [kJ/mol]       0.00141628 [Eh]
    Rotational E            0.889 [kcal/mol]        3.718 [kJ/mol]       0.00141628 [Eh]
    Vibrational E          63.051 [kcal/mol]      263.806 [kJ/mol]       0.10047839 [Eh]
  Correction E             64.829 [kcal/mol]      271.243 [kJ/mol]       0.10331094 [Eh]
  Total E, Electronic energy at  298.15 [K]                           -232.11898586 [Eh]

  Enthalpy, H_trans = E_trans + k_B * T
    Electronic H            0.000 [kcal/mol]        0.000 [kJ/mol]       0.00000000 [Eh]
    Translational H         1.481 [kcal/mol]        6.197 [kJ/mol]       0.00236046 [Eh]
    Rotational H            0.889 [kcal/mol]        3.718 [kJ/mol]       0.00141628 [Eh]
    Vibrational H          63.051 [kcal/mol]      263.806 [kJ/mol]       0.10047839 [Eh]
  Correction H             65.421 [kcal/mol]      273.722 [kJ/mol]       0.10425513 [Eh]
  Total H, Enthalpy at  298.15 [K]                                    -232.11804168 [Eh]

  Gibbs free energy, G = H - T * S
    Electronic G            0.000 [kcal/mol]        0.000 [kJ/mol]       0.00000000 [Eh]
    Translational G       -10.140 [kcal/mol]      -42.428 [kJ/mol]      -0.01615980 [Eh]
    Rotational G           -6.362 [kcal/mol]      -26.617 [kJ/mol]      -0.01013795 [Eh]
    Vibrational G          61.753 [kcal/mol]      258.375 [kJ/mol]       0.09840990 [Eh]
  Correction G             45.251 [kcal/mol]      189.330 [kJ/mol]       0.07211215 [Eh]
  Total G, Free enthalpy at  298.15 [K]                               -232.15018465 [Eh]

    Psi4 stopped on: Wednesday, 20 April 2022 06:35AM
    Psi4 wall time for execution: 2:24:29.77

*** Psi4 exiting successfully. Buy a developer a beer!
