
    -----------------------------------------------------------------------
          Psi4: An Open-Source Ab Initio Electronic Structure Package
                               Psi4 1.3.2 release

                         Git: Rev {HEAD} ecbda83 


    R. M. Parrish, L. A. Burns, D. G. A. Smith, A. C. Simmonett,
    A. E. DePrince III, E. G. Hohenstein, U. Bozkaya, A. Yu. Sokolov,
    R. Di Remigio, R. M. Richard, J. F. Gonthier, A. M. James,
    H. R. McAlexander, A. Kumar, M. Saitow, X. Wang, B. P. Pritchard,
    P. Verma, H. F. Schaefer III, K. Patkowski, R. A. King, E. F. Valeev,
    F. A. Evangelista, J. M. Turney, T. D. Crawford, and C. D. Sherrill,
    J. Chem. Theory Comput. 13(7) pp 3185--3197 (2017).
    (doi: 10.1021/acs.jctc.7b00174)


                         Additional Contributions by
    P. Kraus, H. Kruse, M. H. Lechner, M. C. Schieber, R. A. Shaw,
    A. Alenaizan, R. Galvelis, Z. L. Glick, S. Lehtola, and J. P. Misiewicz

    -----------------------------------------------------------------------


    Psi4 started on: Tuesday, 19 April 2022 11:21PM

    Process ID: 10668
    Host:       atlantis
    PSIDATADIR: /home/akrom/software/anaconda3/envs/ffpenv/share/psi4
    Memory:     500.0 MiB
    Threads:    1
    
  ==> Input File <==

--------------------------------------------------------------------------
set basis  aug-cc-pVTZ
molecule {
0 1
   C       -1.22151       -0.69325        0.00000
   C       -1.21114        0.71122        0.00000
   C       -0.01037       -1.40452        0.00000
   C        0.01037        1.40452        0.00000
   C        1.21114       -0.71122        0.00000
   C        1.22151        0.69325        0.00000
   H       -2.17311       -1.23332        0.00000
   H       -2.15464        1.26533        0.00000
   H       -0.01848       -2.49865        0.00000
   H        0.01848        2.49865        0.00000
   H        2.15464       -1.26533        0.00000
   H        2.17311        1.23332        0.00000
}
energy('MP2')
frequencies('MP2')
--------------------------------------------------------------------------
    SCF Algorithm Type (re)set to DF.

*** tstart() called on atlantis
*** at Tue Apr 19 23:21:51 2022

   => Loading Basis Set <=

    Name: AUG-CC-PVTZ
    Role: ORBITAL
    Keyword: BASIS
    atoms 1-6  entry C          line   235 file /home/akrom/software/anaconda3/envs/ffpenv/share/psi4/basis/aug-cc-pvtz.gbs 
    atoms 7-12 entry H          line    36 file /home/akrom/software/anaconda3/envs/ffpenv/share/psi4/basis/aug-cc-pvtz.gbs 


         ---------------------------------------------------------
                                   SCF
               by Justin Turney, Rob Parrish, Andy Simmonett
                          and Daniel G. A. Smith
                              RHF Reference
                        1 Threads,    500 MiB Core
         ---------------------------------------------------------

  ==> Geometry <==

    Molecular point group: c2h
    Full point group: C2h

    Geometry (in Angstrom), charge = 0, multiplicity = 1:

       Center              X                  Y                   Z               Mass       
    ------------   -----------------  -----------------  -----------------  -----------------
         C           -1.221510000000    -0.693250000000     0.000000000000    12.000000000000
         C           -1.211140000000     0.711220000000     0.000000000000    12.000000000000
         C           -0.010370000000    -1.404520000000     0.000000000000    12.000000000000
         C            0.010370000000     1.404520000000     0.000000000000    12.000000000000
         C            1.211140000000    -0.711220000000     0.000000000000    12.000000000000
         C            1.221510000000     0.693250000000     0.000000000000    12.000000000000
         H           -2.173110000000    -1.233320000000     0.000000000000     1.007825032230
         H           -2.154640000000     1.265330000000     0.000000000000     1.007825032230
         H           -0.018480000000    -2.498650000000     0.000000000000     1.007825032230
         H            0.018480000000     2.498650000000     0.000000000000     1.007825032230
         H            2.154640000000    -1.265330000000     0.000000000000     1.007825032230
         H            2.173110000000     1.233320000000     0.000000000000     1.007825032230

  Running in c2h symmetry.

  Rotational constants: A =      0.18753  B =      0.18752  C =      0.09376 [cm^-1]
  Rotational constants: A =   5621.92707  B =   5621.82252  C =   2810.93740 [MHz]
  Nuclear repulsion =  202.013308935380167

  Charge       = 0
  Multiplicity = 1
  Electrons    = 42
  Nalpha       = 21
  Nbeta        = 21

  ==> Algorithm <==

  SCF Algorithm Type is DF.
  DIIS enabled.
  MOM disabled.
  Fractional occupation disabled.
  Guess Type is SAD.
  Energy threshold   = 1.00e-08
  Density threshold  = 1.00e-08
  Integral threshold = 0.00e+00

  ==> Primary Basis <==

  Basis Set: AUG-CC-PVTZ
    Blend: AUG-CC-PVTZ
    Number of shells: 138
    Number of basis function: 414
    Number of Cartesian functions: 480
    Spherical Harmonics?: true
    Max angular momentum: 3

   => Loading Basis Set <=

    Name: (AUG-CC-PVTZ AUX)
    Role: JKFIT
    Keyword: DF_BASIS_SCF
    atoms 1-6  entry C          line   162 file /home/akrom/software/anaconda3/envs/ffpenv/share/psi4/basis/aug-cc-pvtz-jkfit.gbs 
    atoms 7-12 entry H          line    70 file /home/akrom/software/anaconda3/envs/ffpenv/share/psi4/basis/aug-cc-pvtz-jkfit.gbs 

  ==> Pre-Iterations <==

   -------------------------------------------------------
    Irrep   Nso     Nmo     Nalpha   Nbeta   Ndocc  Nsocc
   -------------------------------------------------------
     Ag       138     138       0       0       0       0
     Bg        69      69       0       0       0       0
     Au        69      69       0       0       0       0
     Bu       138     138       0       0       0       0
   -------------------------------------------------------
    Total     414     414      21      21      21       0
   -------------------------------------------------------

  ==> Integral Setup <==

  ==> DiskDFJK: Density-Fitted J/K Matrices <==

    J tasked:                  Yes
    K tasked:                  Yes
    wK tasked:                  No
    OpenMP threads:              1
    Integrals threads:           1
    Memory [MiB]:              375
    Algorithm:                Disk
    Integral Cache:           NONE
    Schwarz Cutoff:          1E-12
    Fitting Condition:       1E-10

   => Auxiliary Basis Set <=

  Basis Set: (AUG-CC-PVTZ AUX)
    Blend: AUG-CC-PVTZ-JKFIT
    Number of shells: 264
    Number of basis function: 900
    Number of Cartesian functions: 1116
    Spherical Harmonics?: true
    Max angular momentum: 4

  Minimum eigenvalue in the overlap matrix is 3.6806800772E-07.
  Using Symmetric Orthogonalization.

  SCF Guess: Superposition of Atomic Densities via on-the-fly atomic UHF.

  ==> Iterations <==

                           Total Energy        Delta E     RMS |[F,P]|

   @DF-RHF iter SAD:  -230.05281910206565   -2.30053e+02   0.00000e+00 
   @DF-RHF iter   1:  -230.60212634100029   -5.49307e-01   2.45154e-03 DIIS
   @DF-RHF iter   2:  -230.74026599274237   -1.38140e-01   1.21849e-03 DIIS
   @DF-RHF iter   3:  -230.77607355137798   -3.58076e-02   1.97193e-04 DIIS
   @DF-RHF iter   4:  -230.77762389400985   -1.55034e-03   2.39987e-05 DIIS
   @DF-RHF iter   5:  -230.77765188724743   -2.79932e-05   4.42870e-06 DIIS
   @DF-RHF iter   6:  -230.77765289492766   -1.00768e-06   5.09119e-07 DIIS
   @DF-RHF iter   7:  -230.77765291100837   -1.60807e-08   6.67613e-08 DIIS
   @DF-RHF iter   8:  -230.77765291133176   -3.23382e-10   1.40515e-08 DIIS
   @DF-RHF iter   9:  -230.77765291134727   -1.55183e-11   3.95023e-09 DIIS
  Energy and wave function converged.


  ==> Post-Iterations <==

    Orbital Energies [Eh]
    ---------------------

    Doubly Occupied:                                                      

       1Ag   -11.241855     1Bu   -11.241310     2Bu   -11.241307  
       2Ag   -11.240127     3Ag   -11.240125     3Bu   -11.239549  
       4Ag    -1.144106     4Bu    -1.010738     5Bu    -1.010731  
       5Ag    -0.820709     6Ag    -0.820696     7Ag    -0.703500  
       6Bu    -0.642232     7Bu    -0.615532     8Bu    -0.584836  
       9Bu    -0.584833     1Au    -0.498494     8Ag    -0.493650  
       9Ag    -0.493621     1Bg    -0.335431     2Bg    -0.335420  

    Virtual:                                                              

      10Ag     0.029983    10Bu     0.034994    11Bu     0.034994  
      11Ag     0.048256    12Ag     0.048256    12Bu     0.064486  
       2Au     0.100252     3Au     0.101847     4Au     0.101855  
       3Bg     0.111016     4Bg     0.111017    13Ag     0.117747  
      13Bu     0.118435    14Bu     0.118436    15Bu     0.123925  
      14Ag     0.128567    15Ag     0.128567    16Ag     0.137311  
      16Bu     0.143326    17Bu     0.143327    18Bu     0.154330  
      17Ag     0.157924    18Ag     0.157924     5Au     0.161498  
       6Au     0.161504     5Bg     0.162510    19Ag     0.230767  
      19Bu     0.248662    20Bu     0.248664     7Au     0.254597  
      20Ag     0.256491    21Ag     0.256493    22Ag     0.269721  
      23Ag     0.294235    24Ag     0.294238    21Bu     0.300877  
      22Bu     0.306518     6Bg     0.308008     7Bg     0.308008  
       8Bg     0.314199    23Bu     0.323140    24Bu     0.323142  
      25Bu     0.330400    26Bu     0.344369    27Bu     0.344370  
      25Ag     0.347857    26Ag     0.347860    27Ag     0.365800  
       8Au     0.378615     9Au     0.378619    28Ag     0.396484  
       9Bg     0.420875    10Bg     0.435574    11Bg     0.435580  
      10Au     0.445713    11Au     0.445715    12Bg     0.455555  
      12Au     0.459170    28Bu     0.460848    29Bu     0.460851  
      30Bu     0.475289    31Bu     0.475297    32Bu     0.480664  
      29Ag     0.486990    30Ag     0.486991    31Ag     0.498950  
      32Ag     0.502703    33Bu     0.521357    34Bu     0.521366  
      33Ag     0.526116    34Ag     0.526121    35Bu     0.528801  
      35Ag     0.541067    36Ag     0.541073    13Bg     0.547848  
      13Au     0.581260    36Bu     0.614372    14Au     0.629767  
      15Au     0.629780    14Bg     0.634382    15Bg     0.634386  
      37Ag     0.649972    38Ag     0.649974    37Bu     0.662248  
      38Bu     0.662252    39Ag     0.697701    40Ag     0.697706  
      41Ag     0.700083    16Au     0.708866    42Ag     0.727817  
      39Bu     0.728067    40Bu     0.728083    41Bu     0.743760  
      16Bg     0.761451    17Bg     0.761456    42Bu     0.793574  
      43Bu     0.796398    44Bu     0.814374    45Bu     0.814389  
      43Ag     0.829901    44Ag     0.849609    46Bu     0.851336  
      47Bu     0.851344    45Ag     0.862444    46Ag     0.862452  
      17Au     0.878918    18Au     0.878922    47Ag     0.887992  
      18Bg     0.897841    19Au     0.904375    48Ag     0.906807  
      49Ag     0.906820    19Bg     0.924027    20Au     0.952895  
      21Au     0.952901    22Au     0.959502    50Ag     0.959808  
      48Bu     0.983856    49Bu     0.983864    50Bu     0.984024  
      23Au     1.029885    24Au     1.029887    20Bg     1.032096  
      21Bg     1.032098    22Bg     1.064783    23Bg     1.064788  
      51Ag     1.078652    52Ag     1.080458    53Ag     1.080463  
      54Ag     1.090693    24Bg     1.095479    25Bg     1.099525  
      51Bu     1.101911    52Bu     1.101915    53Bu     1.107128  
      54Bu     1.135441    55Bu     1.135446    56Bu     1.147770  
      26Bg     1.174725    27Bg     1.174736    55Ag     1.175258  
      56Ag     1.175266    57Bu     1.202690    58Bu     1.202691  
      59Bu     1.210085    57Ag     1.217850    58Ag     1.217854  
      59Ag     1.230149    60Ag     1.230154    60Bu     1.255439  
      61Ag     1.257616    25Au     1.268705    26Au     1.268711  
      27Au     1.318498    62Ag     1.355646    63Ag     1.355649  
      28Au     1.359878    64Ag     1.381241    29Au     1.393743  
      30Au     1.393748    61Bu     1.394854    62Bu     1.394866  
      63Bu     1.420584    28Bg     1.467871    29Bg     1.467881  
      30Bg     1.478850    65Ag     1.506476    66Ag     1.506480  
      67Ag     1.514595    64Bu     1.515082    65Bu     1.515084  
      66Bu     1.532759    31Au     1.627523    32Au     1.672824  
      33Au     1.672825    31Bg     1.680533    32Bg     1.680545  
      68Ag     1.697732    67Bu     1.711470    68Bu     1.711475  
      69Bu     1.747638    70Bu     1.747649    33Bg     1.768811  
      71Bu     1.789807    34Au     1.807113    72Bu     1.813450  
      73Bu     1.813459    69Ag     1.832804    70Ag     1.832819  
      71Ag     1.853858    34Bg     1.880858    35Bg     1.883815  
      36Bg     1.883818    72Ag     1.907093    73Ag     1.907094  
      74Ag     1.920758    35Au     1.962877    36Au     1.983808  
      37Au     1.983821    74Bu     2.007180    75Bu     2.007187  
      75Ag     2.011424    76Ag     2.011425    76Bu     2.023241  
      77Ag     2.044342    78Ag     2.044345    77Bu     2.047054  
      37Bg     2.077058    38Bg     2.077090    78Bu     2.096556  
      79Bu     2.099986    80Bu     2.099998    39Bg     2.119344  
      38Au     2.241648    39Au     2.241669    79Ag     2.255450  
      80Ag     2.255458    40Au     2.328176    41Au     2.328195  
      81Ag     2.336550    81Bu     2.353167    82Bu     2.353171  
      40Bg     2.372302    41Bg     2.372312    83Bu     2.391626  
      42Bg     2.423336    82Ag     2.505073    83Ag     2.505125  
      84Bu     2.543622    85Bu     2.543629    86Bu     2.561321  
      84Ag     2.587638    85Ag     2.587712    42Au     2.685926  
      87Bu     2.723469    43Au     2.739316    86Ag     2.763978  
      87Ag     2.777255    88Ag     2.823584    89Ag     2.823607  
      90Ag     2.856319    88Bu     2.940206    89Bu     3.069869  
      90Bu     3.069893    91Ag     3.123262    43Bg     3.152264  
      44Bg     3.152304    44Au     3.214511    45Au     3.214541  
      92Ag     3.307305    93Ag     3.307328    45Bg     3.309984  
      46Au     3.332963    91Bu     3.361498    92Bu     3.361507  
      47Au     3.380361    46Bg     3.384934    47Bg     3.384967  
      94Ag     3.390387    93Bu     3.394544    95Ag     3.433065  
      96Ag     3.433078    48Au     3.521123    49Au     3.521150  
      94Bu     3.540361    95Bu     3.540387    48Bg     3.548932  
      49Bg     3.548934    50Au     3.561374    51Au     3.561380  
      52Au     3.578262    97Ag     3.605836    50Bg     3.631510  
      98Ag     3.645414    99Ag     3.645415    96Bu     3.656639  
      51Bg     3.733744    97Bu     3.764893    98Bu     3.766052  
     100Ag     3.807044    99Bu     3.817763   100Bu     3.817792  
     101Ag     3.827392   102Ag     3.827407    53Au     3.843112  
      54Au     3.843143    52Bg     3.863536    53Bg     3.863539  
     101Bu     3.944879   102Bu     3.944887   103Bu     3.971218  
     104Bu     3.971220   105Bu     3.985437    54Bg     4.027307  
     106Bu     4.031322   107Bu     4.031361   103Ag     4.035677  
     104Ag     4.035706    55Bg     4.099243    56Bg     4.099256  
     105Ag     4.099730   106Ag     4.118312   107Ag     4.118342  
      55Au     4.162667    57Bg     4.173650   108Bu     4.193471  
      56Au     4.234629    57Au     4.234634    58Bg     4.271121  
     108Ag     4.273900    59Bg     4.313968    60Bg     4.313973  
     109Bu     4.321631   110Bu     4.355876   111Bu     4.355894  
     109Ag     4.406786    58Au     4.418259    59Au     4.418265  
     110Ag     4.418745   111Ag     4.418750   112Bu     4.439131  
     113Bu     4.448480   114Bu     4.448489   112Ag     4.483912  
     113Ag     4.483932    60Au     4.591439   114Ag     4.692625  
      61Au     4.696447    62Au     4.696495   115Bu     4.703094  
     116Bu     4.703133    63Au     4.714698    61Bg     4.770230  
      62Bg     4.770271   115Ag     4.836848   116Ag     4.836856  
     117Bu     4.881709   117Ag     4.895026    63Bg     4.924216  
     118Bu     5.002465   119Bu     5.002501    64Bg     5.058661  
      65Bg     5.058709   118Ag     5.058901   119Ag     5.058919  
      64Au     5.087535   120Bu     5.097977    66Bg     5.134399  
      67Bg     5.134408    65Au     5.137275    66Au     5.137280  
     121Bu     5.150043   120Ag     5.152715   121Ag     5.215125  
     122Ag     5.215145    67Au     5.298241   123Ag     5.311997  
     124Ag     5.312059    68Bg     5.329107    68Au     5.392807  
      69Au     5.392816   122Bu     5.394002   123Bu     5.394009  
     125Ag     5.449067   124Bu     5.496271   125Bu     5.688422  
     126Bu     5.688460   126Ag     5.733766   127Ag     5.733780  
      69Bg     5.816260   128Ag     5.819597   129Ag     5.928847  
     127Bu     5.942546   128Bu     6.138980   129Bu     6.138995  
     130Ag     6.198314   131Ag     6.198350   130Bu     6.336736  
     131Bu     6.336766   132Bu     6.336992   133Bu     6.597915  
     134Bu     6.597995   132Ag     6.841559   133Ag     6.841595  
     134Ag     6.970136   135Bu     7.186260   135Ag     7.355633  
     136Ag    15.700933   137Ag    15.701385   138Ag    16.795207  
     136Bu    18.969555   137Bu    18.969574   138Bu    19.163184  

    Final Occupation by Irrep:
             Ag    Bg    Au    Bu 
    DOCC [     9,    2,    1,    9 ]

  @DF-RHF Final Energy:  -230.77765291134727

   => Energetics <=

    Nuclear Repulsion Energy =            202.0133089353801665
    One-Electron Energy =                -710.5043155310438578
    Two-Electron Energy =                 277.7133536843164165
    Total Energy =                       -230.7776529113472748

Computation Completed


Properties will be evaluated at   0.000000,   0.000000,   0.000000 [a0]

Properties computed using the SCF density matrix

  Nuclear Dipole Moment: [e a0]
     X:    -0.0000      Y:    -0.0000      Z:     0.0000

  Electronic Dipole Moment: [e a0]
     X:     0.0000      Y:     0.0000      Z:     0.0000

  Dipole Moment: [e a0]
     X:    -0.0000      Y:    -0.0000      Z:     0.0000     Total:     0.0000

  Dipole Moment: [D]
     X:    -0.0000      Y:    -0.0000      Z:     0.0000     Total:     0.0000


*** tstop() called on atlantis at Tue Apr 19 23:22:08 2022
Module time:
	user time   =      14.32 seconds =       0.24 minutes
	system time =       2.31 seconds =       0.04 minutes
	total time  =         17 seconds =       0.28 minutes
Total time:
	user time   =      14.32 seconds =       0.24 minutes
	system time =       2.31 seconds =       0.04 minutes
	total time  =         17 seconds =       0.28 minutes

*** tstart() called on atlantis
*** at Tue Apr 19 23:22:08 2022


  //>>>>>>>>>>>>>>>>>>>>>>>>>>>>>>>>>>>//
  //               DFMP2               //
  //<<<<<<<<<<<<<<<<<<<<<<<<<<<<<<<<<<<//

   => Loading Basis Set <=

    Name: (AUG-CC-PVTZ AUX)
    Role: RIFIT
    Keyword: DF_BASIS_MP2
    atoms 1-6  entry C          line   148 file /home/akrom/software/anaconda3/envs/ffpenv/share/psi4/basis/aug-cc-pvtz-ri.gbs 
    atoms 7-12 entry H          line    30 file /home/akrom/software/anaconda3/envs/ffpenv/share/psi4/basis/aug-cc-pvtz-ri.gbs 

	 --------------------------------------------------------
	                          DF-MP2                         
	      2nd-Order Density-Fitted Moller-Plesset Theory     
	              RMP2 Wavefunction,   1 Threads             
	                                                         
	        Rob Parrish, Justin Turney, Andy Simmonett,      
	           Ed Hohenstein, and C. David Sherrill          
	 --------------------------------------------------------

   => Auxiliary Basis Set <=

  Basis Set: (AUG-CC-PVTZ AUX)
    Blend: AUG-CC-PVTZ-RI
    Number of shells: 252
    Number of basis function: 912
    Number of Cartesian functions: 1146
    Spherical Harmonics?: true
    Max angular momentum: 4

	 --------------------------------------------------------
	                 NBF =   414, NAUX =   912
	 --------------------------------------------------------
	   CLASS    FOCC     OCC    AOCC    AVIR     VIR    FVIR
	   PAIRS       0      21      21     393     393       0
	 --------------------------------------------------------

	-----------------------------------------------------------
	 ==================> DF-MP2 Energies <==================== 
	-----------------------------------------------------------
	 Reference Energy          =    -230.7776529113472748 [Eh]
	 Singles Energy            =      -0.0000000000000000 [Eh]
	 Same-Spin Energy          =      -0.2555324252646982 [Eh]
	 Opposite-Spin Energy      =      -0.8196053505691613 [Eh]
	 Correlation Energy        =      -1.0751377758338596 [Eh]
	 Total Energy              =    -231.8527906871811410 [Eh]
	-----------------------------------------------------------
	 ================> DF-SCS-MP2 Energies <================== 
	-----------------------------------------------------------
	 SCS Same-Spin Scale       =       0.3333333333333333 [-]
	 SCS Opposite-Spin Scale   =       1.2000000000000000 [-]
	 SCS Same-Spin Energy      =      -0.0851774750882327 [Eh]
	 SCS Opposite-Spin Energy  =      -0.9835264206829935 [Eh]
	 SCS Correlation Energy    =      -1.0687038957712263 [Eh]
	 SCS Total Energy          =    -231.8463568071184966 [Eh]
	-----------------------------------------------------------


*** tstop() called on atlantis at Tue Apr 19 23:22:13 2022
Module time:
	user time   =       5.59 seconds =       0.09 minutes
	system time =       0.20 seconds =       0.00 minutes
	total time  =          5 seconds =       0.08 minutes
Total time:
	user time   =      19.91 seconds =       0.33 minutes
	system time =       2.51 seconds =       0.04 minutes
	total time  =         22 seconds =       0.37 minutes
gradient() will perform analytic gradient computation.
    SCF Algorithm Type (re)set to DF.

*** tstart() called on atlantis
*** at Tue Apr 19 23:22:13 2022

   => Loading Basis Set <=

    Name: AUG-CC-PVTZ
    Role: ORBITAL
    Keyword: BASIS
    atoms 1-6  entry C          line   235 file /home/akrom/software/anaconda3/envs/ffpenv/share/psi4/basis/aug-cc-pvtz.gbs 
    atoms 7-12 entry H          line    36 file /home/akrom/software/anaconda3/envs/ffpenv/share/psi4/basis/aug-cc-pvtz.gbs 


         ---------------------------------------------------------
                                   SCF
               by Justin Turney, Rob Parrish, Andy Simmonett
                          and Daniel G. A. Smith
                              RHF Reference
                        1 Threads,    500 MiB Core
         ---------------------------------------------------------

  ==> Geometry <==

    Molecular point group: c2h
    Full point group: C2h

    Geometry (in Angstrom), charge = 0, multiplicity = 1:

       Center              X                  Y                   Z               Mass       
    ------------   -----------------  -----------------  -----------------  -----------------
         C           -1.221510000000    -0.693250000000     0.000000000000    12.000000000000
         C           -1.211140000000     0.711220000000     0.000000000000    12.000000000000
         C           -0.010370000000    -1.404520000000     0.000000000000    12.000000000000
         C            0.010370000000     1.404520000000     0.000000000000    12.000000000000
         C            1.211140000000    -0.711220000000     0.000000000000    12.000000000000
         C            1.221510000000     0.693250000000     0.000000000000    12.000000000000
         H           -2.173110000000    -1.233320000000     0.000000000000     1.007825032230
         H           -2.154640000000     1.265330000000     0.000000000000     1.007825032230
         H           -0.018480000000    -2.498650000000     0.000000000000     1.007825032230
         H            0.018480000000     2.498650000000     0.000000000000     1.007825032230
         H            2.154640000000    -1.265330000000     0.000000000000     1.007825032230
         H            2.173110000000     1.233320000000     0.000000000000     1.007825032230

  Running in c2h symmetry.

  Rotational constants: A =      0.18753  B =      0.18752  C =      0.09376 [cm^-1]
  Rotational constants: A =   5621.92707  B =   5621.82252  C =   2810.93740 [MHz]
  Nuclear repulsion =  202.013308935380167

  Charge       = 0
  Multiplicity = 1
  Electrons    = 42
  Nalpha       = 21
  Nbeta        = 21

  ==> Algorithm <==

  SCF Algorithm Type is DF.
  DIIS enabled.
  MOM disabled.
  Fractional occupation disabled.
  Guess Type is SAD.
  Energy threshold   = 1.00e-10
  Density threshold  = 1.00e-10
  Integral threshold = 0.00e+00

  ==> Primary Basis <==

  Basis Set: AUG-CC-PVTZ
    Blend: AUG-CC-PVTZ
    Number of shells: 138
    Number of basis function: 414
    Number of Cartesian functions: 480
    Spherical Harmonics?: true
    Max angular momentum: 3

   => Loading Basis Set <=

    Name: (AUG-CC-PVTZ AUX)
    Role: JKFIT
    Keyword: DF_BASIS_SCF
    atoms 1-6  entry C          line   162 file /home/akrom/software/anaconda3/envs/ffpenv/share/psi4/basis/aug-cc-pvtz-jkfit.gbs 
    atoms 7-12 entry H          line    70 file /home/akrom/software/anaconda3/envs/ffpenv/share/psi4/basis/aug-cc-pvtz-jkfit.gbs 

  ==> Pre-Iterations <==

   -------------------------------------------------------
    Irrep   Nso     Nmo     Nalpha   Nbeta   Ndocc  Nsocc
   -------------------------------------------------------
     Ag       138     138       0       0       0       0
     Bg        69      69       0       0       0       0
     Au        69      69       0       0       0       0
     Bu       138     138       0       0       0       0
   -------------------------------------------------------
    Total     414     414      21      21      21       0
   -------------------------------------------------------

  ==> Integral Setup <==

  ==> DiskDFJK: Density-Fitted J/K Matrices <==

    J tasked:                  Yes
    K tasked:                  Yes
    wK tasked:                  No
    OpenMP threads:              1
    Integrals threads:           1
    Memory [MiB]:              375
    Algorithm:                Disk
    Integral Cache:           NONE
    Schwarz Cutoff:          1E-12
    Fitting Condition:       1E-10

   => Auxiliary Basis Set <=

  Basis Set: (AUG-CC-PVTZ AUX)
    Blend: AUG-CC-PVTZ-JKFIT
    Number of shells: 264
    Number of basis function: 900
    Number of Cartesian functions: 1116
    Spherical Harmonics?: true
    Max angular momentum: 4

  Minimum eigenvalue in the overlap matrix is 3.6806800768E-07.
  Using Symmetric Orthogonalization.

  SCF Guess: Superposition of Atomic Densities via on-the-fly atomic UHF.

  ==> Iterations <==

                           Total Energy        Delta E     RMS |[F,P]|

   @DF-RHF iter SAD:  -230.05281909712429   -2.30053e+02   0.00000e+00 
   @DF-RHF iter   1:  -230.60212633601770   -5.49307e-01   2.45154e-03 DIIS
   @DF-RHF iter   2:  -230.74026598774179   -1.38140e-01   1.21849e-03 DIIS
   @DF-RHF iter   3:  -230.77607354637078   -3.58076e-02   1.97193e-04 DIIS
   @DF-RHF iter   4:  -230.77762388900163   -1.55034e-03   2.39987e-05 DIIS
   @DF-RHF iter   5:  -230.77765188223890   -2.79932e-05   4.42870e-06 DIIS
   @DF-RHF iter   6:  -230.77765288991901   -1.00768e-06   5.09119e-07 DIIS
   @DF-RHF iter   7:  -230.77765290600024   -1.60812e-08   6.67613e-08 DIIS
   @DF-RHF iter   8:  -230.77765290632522   -3.24974e-10   1.40515e-08 DIIS
   @DF-RHF iter   9:  -230.77765290633940   -1.41824e-11   3.95027e-09 DIIS
   @DF-RHF iter  10:  -230.77765290633826    1.13687e-12   1.19622e-09 DIIS
   @DF-RHF iter  11:  -230.77765290633829   -2.84217e-14   1.40656e-10 DIIS
   @DF-RHF iter  12:  -230.77765290633931   -1.02318e-12   1.60509e-11 DIIS
  Energy and wave function converged.


  ==> Post-Iterations <==

    Orbital Energies [Eh]
    ---------------------

    Doubly Occupied:                                                      

       1Ag   -11.241855     1Bu   -11.241310     2Bu   -11.241308  
       2Ag   -11.240127     3Ag   -11.240125     3Bu   -11.239549  
       4Ag    -1.144106     4Bu    -1.010738     5Bu    -1.010731  
       5Ag    -0.820709     6Ag    -0.820696     7Ag    -0.703500  
       6Bu    -0.642232     7Bu    -0.615532     8Bu    -0.584836  
       9Bu    -0.584833     1Au    -0.498494     8Ag    -0.493650  
       9Ag    -0.493621     1Bg    -0.335431     2Bg    -0.335420  

    Virtual:                                                              

      10Ag     0.029983    10Bu     0.034994    11Bu     0.034994  
      11Ag     0.048256    12Ag     0.048256    12Bu     0.064486  
       2Au     0.100252     3Au     0.101847     4Au     0.101855  
       3Bg     0.111016     4Bg     0.111017    13Ag     0.117747  
      13Bu     0.118435    14Bu     0.118436    15Bu     0.123925  
      14Ag     0.128567    15Ag     0.128567    16Ag     0.137311  
      16Bu     0.143326    17Bu     0.143327    18Bu     0.154329  
      17Ag     0.157924    18Ag     0.157924     5Au     0.161498  
       6Au     0.161504     5Bg     0.162510    19Ag     0.230766  
      19Bu     0.248662    20Bu     0.248664     7Au     0.254597  
      20Ag     0.256491    21Ag     0.256494    22Ag     0.269721  
      23Ag     0.294235    24Ag     0.294238    21Bu     0.300875  
      22Bu     0.306518     6Bg     0.308008     7Bg     0.308008  
       8Bg     0.314199    23Bu     0.323140    24Bu     0.323142  
      25Bu     0.330398    26Bu     0.344369    27Bu     0.344370  
      25Ag     0.347858    26Ag     0.347860    27Ag     0.365800  
       8Au     0.378615     9Au     0.378619    28Ag     0.396484  
       9Bg     0.420875    10Bg     0.435574    11Bg     0.435580  
      10Au     0.445713    11Au     0.445715    12Bg     0.455555  
      12Au     0.459170    28Bu     0.460848    29Bu     0.460851  
      30Bu     0.475289    31Bu     0.475297    32Bu     0.480664  
      29Ag     0.486990    30Ag     0.486991    31Ag     0.498949  
      32Ag     0.502703    33Bu     0.521357    34Bu     0.521367  
      33Ag     0.526116    34Ag     0.526121    35Bu     0.528801  
      35Ag     0.541067    36Ag     0.541073    13Bg     0.547848  
      13Au     0.581260    36Bu     0.614367    14Au     0.629767  
      15Au     0.629780    14Bg     0.634382    15Bg     0.634386  
      37Ag     0.649972    38Ag     0.649974    37Bu     0.662248  
      38Bu     0.662252    39Ag     0.697701    40Ag     0.697706  
      41Ag     0.700079    16Au     0.708866    42Ag     0.727817  
      39Bu     0.728067    40Bu     0.728083    41Bu     0.743753  
      16Bg     0.761451    17Bg     0.761456    42Bu     0.793568  
      43Bu     0.796398    44Bu     0.814374    45Bu     0.814389  
      43Ag     0.829898    44Ag     0.849609    46Bu     0.851335  
      47Bu     0.851344    45Ag     0.862444    46Ag     0.862452  
      17Au     0.878918    18Au     0.878922    47Ag     0.887992  
      18Bg     0.897841    19Au     0.904375    48Ag     0.906807  
      49Ag     0.906820    19Bg     0.924027    20Au     0.952895  
      21Au     0.952901    22Au     0.959502    50Ag     0.959808  
      48Bu     0.983856    49Bu     0.983864    50Bu     0.984023  
      23Au     1.029885    24Au     1.029887    20Bg     1.032096  
      21Bg     1.032098    22Bg     1.064783    23Bg     1.064788  
      51Ag     1.078652    52Ag     1.080458    53Ag     1.080464  
      54Ag     1.090692    24Bg     1.095479    25Bg     1.099525  
      51Bu     1.101911    52Bu     1.101915    53Bu     1.107128  
      54Bu     1.135441    55Bu     1.135446    56Bu     1.147767  
      26Bg     1.174725    27Bg     1.174736    55Ag     1.175258  
      56Ag     1.175266    57Bu     1.202690    58Bu     1.202691  
      59Bu     1.210085    57Ag     1.217850    58Ag     1.217854  
      59Ag     1.230148    60Ag     1.230154    60Bu     1.255439  
      61Ag     1.257616    25Au     1.268705    26Au     1.268711  
      27Au     1.318498    62Ag     1.355646    63Ag     1.355649  
      28Au     1.359878    64Ag     1.381233    29Au     1.393743  
      30Au     1.393748    61Bu     1.394854    62Bu     1.394866  
      63Bu     1.420581    28Bg     1.467871    29Bg     1.467881  
      30Bg     1.478850    65Ag     1.506476    66Ag     1.506480  
      67Ag     1.514595    64Bu     1.515082    65Bu     1.515084  
      66Bu     1.532754    31Au     1.627523    32Au     1.672824  
      33Au     1.672825    31Bg     1.680533    32Bg     1.680545  
      68Ag     1.697729    67Bu     1.711470    68Bu     1.711475  
      69Bu     1.747638    70Bu     1.747649    33Bg     1.768811  
      71Bu     1.789807    34Au     1.807113    72Bu     1.813450  
      73Bu     1.813459    69Ag     1.832804    70Ag     1.832819  
      71Ag     1.853858    34Bg     1.880858    35Bg     1.883815  
      36Bg     1.883818    72Ag     1.907093    73Ag     1.907094  
      74Ag     1.920758    35Au     1.962877    36Au     1.983808  
      37Au     1.983821    74Bu     2.007180    75Bu     2.007187  
      75Ag     2.011424    76Ag     2.011425    76Bu     2.023241  
      77Ag     2.044342    78Ag     2.044345    77Bu     2.047053  
      37Bg     2.077058    38Bg     2.077090    78Bu     2.096556  
      79Bu     2.099986    80Bu     2.099997    39Bg     2.119344  
      38Au     2.241648    39Au     2.241669    79Ag     2.255450  
      80Ag     2.255459    40Au     2.328176    41Au     2.328195  
      81Ag     2.336547    81Bu     2.353167    82Bu     2.353171  
      40Bg     2.372302    41Bg     2.372312    83Bu     2.391626  
      42Bg     2.423336    82Ag     2.505073    83Ag     2.505125  
      84Bu     2.543622    85Bu     2.543629    86Bu     2.561321  
      84Ag     2.587638    85Ag     2.587712    42Au     2.685926  
      87Bu     2.723469    43Au     2.739316    86Ag     2.763974  
      87Ag     2.777254    88Ag     2.823584    89Ag     2.823607  
      90Ag     2.856319    88Bu     2.940206    89Bu     3.069869  
      90Bu     3.069893    91Ag     3.123262    43Bg     3.152264  
      44Bg     3.152304    44Au     3.214511    45Au     3.214541  
      92Ag     3.307305    93Ag     3.307328    45Bg     3.309984  
      46Au     3.332963    91Bu     3.361497    92Bu     3.361507  
      47Au     3.380361    46Bg     3.384934    47Bg     3.384967  
      94Ag     3.390387    93Bu     3.394544    95Ag     3.433065  
      96Ag     3.433078    48Au     3.521123    49Au     3.521150  
      94Bu     3.540360    95Bu     3.540387    48Bg     3.548932  
      49Bg     3.548934    50Au     3.561374    51Au     3.561380  
      52Au     3.578262    97Ag     3.605836    50Bg     3.631510  
      98Ag     3.645414    99Ag     3.645415    96Bu     3.656638  
      51Bg     3.733744    97Bu     3.764893    98Bu     3.766052  
     100Ag     3.807044    99Bu     3.817763   100Bu     3.817792  
     101Ag     3.827392   102Ag     3.827407    53Au     3.843112  
      54Au     3.843143    52Bg     3.863536    53Bg     3.863539  
     101Bu     3.944879   102Bu     3.944887   103Bu     3.971218  
     104Bu     3.971220   105Bu     3.985437    54Bg     4.027307  
     106Bu     4.031322   107Bu     4.031361   103Ag     4.035677  
     104Ag     4.035706    55Bg     4.099243    56Bg     4.099256  
     105Ag     4.099730   106Ag     4.118312   107Ag     4.118342  
      55Au     4.162667    57Bg     4.173650   108Bu     4.193471  
      56Au     4.234629    57Au     4.234634    58Bg     4.271121  
     108Ag     4.273900    59Bg     4.313968    60Bg     4.313973  
     109Bu     4.321631   110Bu     4.355876   111Bu     4.355894  
     109Ag     4.406785    58Au     4.418259    59Au     4.418265  
     110Ag     4.418745   111Ag     4.418750   112Bu     4.439131  
     113Bu     4.448480   114Bu     4.448489   112Ag     4.483912  
     113Ag     4.483932    60Au     4.591439   114Ag     4.692624  
      61Au     4.696447    62Au     4.696495   115Bu     4.703094  
     116Bu     4.703133    63Au     4.714698    61Bg     4.770230  
      62Bg     4.770271   115Ag     4.836848   116Ag     4.836856  
     117Bu     4.881709   117Ag     4.895026    63Bg     4.924216  
     118Bu     5.002465   119Bu     5.002501    64Bg     5.058661  
      65Bg     5.058709   118Ag     5.058901   119Ag     5.058919  
      64Au     5.087535   120Bu     5.097977    66Bg     5.134399  
      67Bg     5.134408    65Au     5.137275    66Au     5.137280  
     121Bu     5.150043   120Ag     5.152714   121Ag     5.215125  
     122Ag     5.215145    67Au     5.298241   123Ag     5.311997  
     124Ag     5.312059    68Bg     5.329107    68Au     5.392807  
      69Au     5.392816   122Bu     5.394002   123Bu     5.394009  
     125Ag     5.449067   124Bu     5.496271   125Bu     5.688422  
     126Bu     5.688460   126Ag     5.733766   127Ag     5.733780  
      69Bg     5.816260   128Ag     5.819597   129Ag     5.928847  
     127Bu     5.942545   128Bu     6.138980   129Bu     6.138995  
     130Ag     6.198314   131Ag     6.198350   130Bu     6.336736  
     131Bu     6.336766   132Bu     6.336992   133Bu     6.597915  
     134Bu     6.597995   132Ag     6.841559   133Ag     6.841595  
     134Ag     6.970135   135Bu     7.186260   135Ag     7.355632  
     136Ag    15.700933   137Ag    15.701384   138Ag    16.795207  
     136Bu    18.969555   137Bu    18.969574   138Bu    19.163184  

    Final Occupation by Irrep:
             Ag    Bg    Au    Bu 
    DOCC [     9,    2,    1,    9 ]

  @DF-RHF Final Energy:  -230.77765290633931

   => Energetics <=

    Nuclear Repulsion Energy =            202.0133089353801665
    One-Electron Energy =                -710.5043162448097291
    Two-Electron Energy =                 277.7133544030902499
    Total Energy =                       -230.7776529063393127

Computation Completed


Properties will be evaluated at   0.000000,   0.000000,   0.000000 [a0]

Properties computed using the SCF density matrix

  Nuclear Dipole Moment: [e a0]
     X:    -0.0000      Y:    -0.0000      Z:     0.0000

  Electronic Dipole Moment: [e a0]
     X:     0.0000      Y:     0.0000      Z:     0.0000

  Dipole Moment: [e a0]
     X:    -0.0000      Y:    -0.0000      Z:     0.0000     Total:     0.0000

  Dipole Moment: [D]
     X:    -0.0000      Y:    -0.0000      Z:     0.0000     Total:     0.0000


*** tstop() called on atlantis at Tue Apr 19 23:22:33 2022
Module time:
	user time   =      16.55 seconds =       0.28 minutes
	system time =       2.94 seconds =       0.05 minutes
	total time  =         20 seconds =       0.33 minutes
Total time:
	user time   =      36.47 seconds =       0.61 minutes
	system time =       5.45 seconds =       0.09 minutes
	total time  =         42 seconds =       0.70 minutes

*** tstart() called on atlantis
*** at Tue Apr 19 23:22:33 2022


  //>>>>>>>>>>>>>>>>>>>>>>>>>>>>>>>>>>>//
  //               DFMP2               //
  //<<<<<<<<<<<<<<<<<<<<<<<<<<<<<<<<<<<//

   => Loading Basis Set <=

    Name: (AUG-CC-PVTZ AUX)
    Role: RIFIT
    Keyword: DF_BASIS_MP2
    atoms 1-6  entry C          line   148 file /home/akrom/software/anaconda3/envs/ffpenv/share/psi4/basis/aug-cc-pvtz-ri.gbs 
    atoms 7-12 entry H          line    30 file /home/akrom/software/anaconda3/envs/ffpenv/share/psi4/basis/aug-cc-pvtz-ri.gbs 

	 --------------------------------------------------------
	                          DF-MP2                         
	      2nd-Order Density-Fitted Moller-Plesset Theory     
	              RMP2 Wavefunction,   1 Threads             
	                                                         
	        Rob Parrish, Justin Turney, Andy Simmonett,      
	           Ed Hohenstein, and C. David Sherrill          
	 --------------------------------------------------------

   => Auxiliary Basis Set <=

  Basis Set: (AUG-CC-PVTZ AUX)
    Blend: AUG-CC-PVTZ-RI
    Number of shells: 252
    Number of basis function: 912
    Number of Cartesian functions: 1146
    Spherical Harmonics?: true
    Max angular momentum: 4

	 --------------------------------------------------------
	                 NBF =   414, NAUX =   912
	 --------------------------------------------------------
	   CLASS    FOCC     OCC    AOCC    AVIR     VIR    FVIR
	   PAIRS       0      21      21     393     393       0
	 --------------------------------------------------------


         ------------------------------------------------------------
                                     CPHF                           
                                  Rob Parrish                       
         ------------------------------------------------------------

  ==> Geometry <==

    Molecular point group: c2h
    Full point group: C2h

    Geometry (in Angstrom), charge = 0, multiplicity = 1:

       Center              X                  Y                   Z               Mass       
    ------------   -----------------  -----------------  -----------------  -----------------
         C           -1.221510000000    -0.693250000000     0.000000000000    12.000000000000
         C           -1.211140000000     0.711220000000     0.000000000000    12.000000000000
         C           -0.010370000000    -1.404520000000     0.000000000000    12.000000000000
         C            0.010370000000     1.404520000000     0.000000000000    12.000000000000
         C            1.211140000000    -0.711220000000     0.000000000000    12.000000000000
         C            1.221510000000     0.693250000000     0.000000000000    12.000000000000
         H           -2.173110000000    -1.233320000000     0.000000000000     1.007825032230
         H           -2.154640000000     1.265330000000     0.000000000000     1.007825032230
         H           -0.018480000000    -2.498650000000     0.000000000000     1.007825032230
         H            0.018480000000     2.498650000000     0.000000000000     1.007825032230
         H            2.154640000000    -1.265330000000     0.000000000000     1.007825032230
         H            2.173110000000     1.233320000000     0.000000000000     1.007825032230

  Nuclear repulsion =  202.013308935380167
  Reference energy  = -230.777652906339313

  ==> Basis Set <==

  Basis Set: AUG-CC-PVTZ
    Blend: AUG-CC-PVTZ
    Number of shells: 138
    Number of basis function: 414
    Number of Cartesian functions: 480
    Spherical Harmonics?: true
    Max angular momentum: 3

  ==> CGRSolver (by Rob Parrish) <==

   Number of roots    =         1
   Preconditioning    =    JACOBI
   Convergence cutoff =     1E-06
   Maximum iterations =       100

  ==> CPHFRHamiltonian (by Rob Parrish) <== 

  ==> DiskDFJK: Density-Fitted J/K Matrices <==

    J tasked:                  Yes
    K tasked:                  Yes
    wK tasked:                  No
    OpenMP threads:              1
    Integrals threads:           1
    Memory [MiB]:              375
    Algorithm:                Disk
    Integral Cache:           NONE
    Schwarz Cutoff:          1E-12
    Fitting Condition:       1E-10

   => Auxiliary Basis Set <=

  Basis Set: (AUG-CC-PVTZ AUX)
    Blend: AUG-CC-PVTZ-JKFIT
    Number of shells: 264
    Number of basis function: 900
    Number of Cartesian functions: 1116
    Spherical Harmonics?: true
    Max angular momentum: 4

  ==> CPHF Iterations <==

  => Iterations <=

             Iter  Converged  Remaining    Residual
  CGR           1          0          1   7.747E-02
  CGR           2          0          1   1.279E-02
  CGR           3          0          1   2.578E-03
  CGR           4          0          1   5.096E-04
  CGR           5          0          1   7.465E-05
  CGR           6          0          1   6.851E-06
  CGR           7          1          0   8.541E-07

    CGRSolver converged.

  ==> DFCorrGrad: Density-Fitted Correlated Gradients <==

    OpenMP threads:              1
    Integrals threads:           1
    Memory [GiB]:            0.366
    Schwarz Cutoff:          0E+00
    Fitting Condition:       1E-10

   => Auxiliary Basis Set <=

  Basis Set: (AUG-CC-PVTZ AUX)
    Blend: AUG-CC-PVTZ-JKFIT
    Number of shells: 264
    Number of basis function: 900
    Number of Cartesian functions: 1116
    Spherical Harmonics?: true
    Max angular momentum: 4

	-----------------------------------------------------------
	 ==================> DF-MP2 Energies <==================== 
	-----------------------------------------------------------
	 Reference Energy          =    -230.7776529063393127 [Eh]
	 Singles Energy            =      -0.0000000000000000 [Eh]
	 Same-Spin Energy          =      -0.2555324272363554 [Eh]
	 Opposite-Spin Energy      =      -0.8196053650761664 [Eh]
	 Correlation Energy        =      -1.0751377923125218 [Eh]
	 Total Energy              =    -231.8527906986518303 [Eh]
	-----------------------------------------------------------
	 ================> DF-SCS-MP2 Energies <================== 
	-----------------------------------------------------------
	 SCS Same-Spin Scale       =       0.3333333333333333 [-]
	 SCS Opposite-Spin Scale   =       1.2000000000000000 [-]
	 SCS Same-Spin Energy      =      -0.0851774757454518 [Eh]
	 SCS Opposite-Spin Energy  =      -0.9835264380913997 [Eh]
	 SCS Correlation Energy    =      -1.0687039138368515 [Eh]
	 SCS Total Energy          =    -231.8463568201761689 [Eh]
	-----------------------------------------------------------


  -Total Gradient:
     Atom            X                  Y                   Z
    ------   -----------------  -----------------  -----------------
       1       -0.004248334721    -0.002380270366     0.000000000000
       2       -0.004212122245     0.002436747154     0.000000000000
       3       -0.000029367199    -0.004910659676     0.000000000000
       4        0.000029367199     0.004910659676     0.000000000000
       5        0.004212122245    -0.002436747154     0.000000000000
       6        0.004248334721     0.002380270366     0.000000000000
       7       -0.009140041857    -0.005188333883     0.000000000000
       8       -0.009063055014     0.005328423021     0.000000000000
       9       -0.000079956501    -0.010502683752     0.000000000000
      10        0.000079956501     0.010502683752     0.000000000000
      11        0.009063055014    -0.005328423021     0.000000000000
      12        0.009140041857     0.005188333883     0.000000000000


*** tstop() called on atlantis at Tue Apr 19 23:24:01 2022
Module time:
	user time   =      85.04 seconds =       1.42 minutes
	system time =       3.38 seconds =       0.06 minutes
	total time  =         88 seconds =       1.47 minutes
Total time:
	user time   =     121.51 seconds =       2.03 minutes
	system time =       8.83 seconds =       0.15 minutes
	total time  =        130 seconds =       2.17 minutes

  Based on options and gradient (rms=4.73E-03), recommend projecting translations and projecting rotations.
hessian() will perform frequency computation by finite difference of analytic gradients.

         ----------------------------------------------------------
                                   FINDIF
                     R. A. King and Jonathon Misiewicz
         ---------------------------------------------------------

  Using finite-differences of gradients to determine vibrational frequencies and 
  normal modes.  Resulting frequencies are only valid at stationary points.
    Generating geometries for use with 3-point formula.
    Displacement size will be 5.00e-03.
    Number of atoms is 12.
    Number of irreps is 4.
    Number of SALCs is 30.
    Translations projected? 1. Rotations projected? 1.
    Index of SALCs per irrep:
     1 :  0  1  2  3  4  5  6  7  8  9  10 
     2 :  11  12  13  14 
     3 :  15  16  17  18  19 
     4 :  20  21  22  23  24  25  26  27  28  29 
    Number of SALCs per irrep:
     Irrep 1: 11
     Irrep 2: 4
     Irrep 3: 5
     Irrep 4: 10
    Number of geometries (including reference) is 42.
    Number of displacements per irrep:
      Irrep 1: 22
      Irrep 2: 4
      Irrep 3: 5
      Irrep 4: 10

  //>>>>>>>>>>>>>>>>>>>>>>>>>>>>>>>>>>>//
  //    Loading displacement 1 of 42   //
  //<<<<<<<<<<<<<<<<<<<<<<<<<<<<<<<<<<<//
gradient() will perform analytic gradient computation.
    SCF Algorithm Type (re)set to DF.

*** tstart() called on atlantis
*** at Tue Apr 19 23:24:01 2022

   => Loading Basis Set <=

    Name: AUG-CC-PVTZ
    Role: ORBITAL
    Keyword: BASIS
    atoms 1-6  entry C          line   235 file /home/akrom/software/anaconda3/envs/ffpenv/share/psi4/basis/aug-cc-pvtz.gbs 
    atoms 7-12 entry H          line    36 file /home/akrom/software/anaconda3/envs/ffpenv/share/psi4/basis/aug-cc-pvtz.gbs 


         ---------------------------------------------------------
                                   SCF
               by Justin Turney, Rob Parrish, Andy Simmonett
                          and Daniel G. A. Smith
                              RHF Reference
                        1 Threads,    500 MiB Core
         ---------------------------------------------------------

  ==> Geometry <==

    Molecular point group: c2h
    Full point group: C2h

    Geometry (in Angstrom), charge = 0, multiplicity = 1:

       Center              X                  Y                   Z               Mass       
    ------------   -----------------  -----------------  -----------------  -----------------
         C           -1.221510000000    -0.693250000000     0.000000000000    12.000000000000
         C           -1.211140000000     0.711220000000     0.000000000000    12.000000000000
         C           -0.010370000000    -1.404520000000     0.000000000000    12.000000000000
         C            0.010370000000     1.404520000000     0.000000000000    12.000000000000
         C            1.211140000000    -0.711220000000     0.000000000000    12.000000000000
         C            1.221510000000     0.693250000000     0.000000000000    12.000000000000
         H           -2.173110000000    -1.233320000000     0.000000000000     1.007825032230
         H           -2.154640000000     1.265330000000     0.000000000000     1.007825032230
         H           -0.018480000000    -2.498650000000     0.000000000000     1.007825032230
         H            0.018480000000     2.498650000000     0.000000000000     1.007825032230
         H            2.154640000000    -1.265330000000     0.000000000000     1.007825032230
         H            2.173110000000     1.233320000000     0.000000000000     1.007825032230

  Running in c2h symmetry.

  Rotational constants: A =      0.18753  B =      0.18752  C =      0.09376 [cm^-1]
  Rotational constants: A =   5621.92707  B =   5621.82252  C =   2810.93740 [MHz]
  Nuclear repulsion =  202.013308935380167

  Charge       = 0
  Multiplicity = 1
  Electrons    = 42
  Nalpha       = 21
  Nbeta        = 21

  ==> Algorithm <==

  SCF Algorithm Type is DF.
  DIIS enabled.
  MOM disabled.
  Fractional occupation disabled.
  Guess Type is SAD.
  Energy threshold   = 1.00e-10
  Density threshold  = 1.00e-10
  Integral threshold = 0.00e+00

  ==> Primary Basis <==

  Basis Set: AUG-CC-PVTZ
    Blend: AUG-CC-PVTZ
    Number of shells: 138
    Number of basis function: 414
    Number of Cartesian functions: 480
    Spherical Harmonics?: true
    Max angular momentum: 3

   => Loading Basis Set <=

    Name: (AUG-CC-PVTZ AUX)
    Role: JKFIT
    Keyword: DF_BASIS_SCF
    atoms 1-6  entry C          line   162 file /home/akrom/software/anaconda3/envs/ffpenv/share/psi4/basis/aug-cc-pvtz-jkfit.gbs 
    atoms 7-12 entry H          line    70 file /home/akrom/software/anaconda3/envs/ffpenv/share/psi4/basis/aug-cc-pvtz-jkfit.gbs 

  ==> Pre-Iterations <==

   -------------------------------------------------------
    Irrep   Nso     Nmo     Nalpha   Nbeta   Ndocc  Nsocc
   -------------------------------------------------------
     Ag       138     138       0       0       0       0
     Bg        69      69       0       0       0       0
     Au        69      69       0       0       0       0
     Bu       138     138       0       0       0       0
   -------------------------------------------------------
    Total     414     414      21      21      21       0
   -------------------------------------------------------

  ==> Integral Setup <==

  ==> DiskDFJK: Density-Fitted J/K Matrices <==

    J tasked:                  Yes
    K tasked:                  Yes
    wK tasked:                  No
    OpenMP threads:              1
    Integrals threads:           1
    Memory [MiB]:              375
    Algorithm:                Disk
    Integral Cache:           NONE
    Schwarz Cutoff:          1E-12
    Fitting Condition:       1E-10

   => Auxiliary Basis Set <=

  Basis Set: (AUG-CC-PVTZ AUX)
    Blend: AUG-CC-PVTZ-JKFIT
    Number of shells: 264
    Number of basis function: 900
    Number of Cartesian functions: 1116
    Spherical Harmonics?: true
    Max angular momentum: 4

  Minimum eigenvalue in the overlap matrix is 3.6806800748E-07.
  Using Symmetric Orthogonalization.

  SCF Guess: Superposition of Atomic Densities via on-the-fly atomic UHF.

  ==> Iterations <==

                           Total Energy        Delta E     RMS |[F,P]|

   @DF-RHF iter SAD:  -230.05281910278450   -2.30053e+02   0.00000e+00 
   @DF-RHF iter   1:  -230.60212634170878   -5.49307e-01   2.45154e-03 DIIS
   @DF-RHF iter   2:  -230.74026599346240   -1.38140e-01   1.21849e-03 DIIS
   @DF-RHF iter   3:  -230.77607355210495   -3.58076e-02   1.97193e-04 DIIS
   @DF-RHF iter   4:  -230.77762389473725   -1.55034e-03   2.39987e-05 DIIS
   @DF-RHF iter   5:  -230.77765188797406   -2.79932e-05   4.42870e-06 DIIS
   @DF-RHF iter   6:  -230.77765289565383   -1.00768e-06   5.09119e-07 DIIS
   @DF-RHF iter   7:  -230.77765291173591   -1.60821e-08   6.67613e-08 DIIS
   @DF-RHF iter   8:  -230.77765291206001   -3.24093e-10   1.40515e-08 DIIS
   @DF-RHF iter   9:  -230.77765291207365   -1.36424e-11   3.95027e-09 DIIS
   @DF-RHF iter  10:  -230.77765291207385   -1.98952e-13   1.19620e-09 DIIS
   @DF-RHF iter  11:  -230.77765291207362    2.27374e-13   1.40642e-10 DIIS
   @DF-RHF iter  12:  -230.77765291207442   -7.95808e-13   1.60604e-11 DIIS
  Energy and wave function converged.


  ==> Post-Iterations <==

    Orbital Energies [Eh]
    ---------------------

    Doubly Occupied:                                                      

       1Ag   -11.241855     1Bu   -11.241310     2Bu   -11.241308  
       2Ag   -11.240127     3Ag   -11.240125     3Bu   -11.239549  
       4Ag    -1.144106     4Bu    -1.010738     5Bu    -1.010731  
       5Ag    -0.820709     6Ag    -0.820696     7Ag    -0.703500  
       6Bu    -0.642232     7Bu    -0.615532     8Bu    -0.584836  
       9Bu    -0.584833     1Au    -0.498494     8Ag    -0.493650  
       9Ag    -0.493621     1Bg    -0.335431     2Bg    -0.335420  

    Virtual:                                                              

      10Ag     0.029983    10Bu     0.034994    11Bu     0.034994  
      11Ag     0.048256    12Ag     0.048256    12Bu     0.064486  
       2Au     0.100252     3Au     0.101847     4Au     0.101855  
       3Bg     0.111016     4Bg     0.111017    13Ag     0.117747  
      13Bu     0.118435    14Bu     0.118436    15Bu     0.123925  
      14Ag     0.128567    15Ag     0.128567    16Ag     0.137311  
      16Bu     0.143326    17Bu     0.143327    18Bu     0.154329  
      17Ag     0.157924    18Ag     0.157924     5Au     0.161498  
       6Au     0.161504     5Bg     0.162510    19Ag     0.230764  
      19Bu     0.248662    20Bu     0.248664     7Au     0.254597  
      20Ag     0.256491    21Ag     0.256494    22Ag     0.269721  
      23Ag     0.294235    24Ag     0.294238    21Bu     0.300875  
      22Bu     0.306518     6Bg     0.308008     7Bg     0.308008  
       8Bg     0.314199    23Bu     0.323140    24Bu     0.323142  
      25Bu     0.330398    26Bu     0.344369    27Bu     0.344370  
      25Ag     0.347857    26Ag     0.347860    27Ag     0.365800  
       8Au     0.378615     9Au     0.378619    28Ag     0.396484  
       9Bg     0.420875    10Bg     0.435574    11Bg     0.435580  
      10Au     0.445713    11Au     0.445715    12Bg     0.455555  
      12Au     0.459170    28Bu     0.460848    29Bu     0.460851  
      30Bu     0.475289    31Bu     0.475297    32Bu     0.480664  
      29Ag     0.486990    30Ag     0.486991    31Ag     0.498949  
      32Ag     0.502703    33Bu     0.521357    34Bu     0.521366  
      33Ag     0.526116    34Ag     0.526121    35Bu     0.528801  
      35Ag     0.541067    36Ag     0.541073    13Bg     0.547848  
      13Au     0.581260    36Bu     0.614368    14Au     0.629767  
      15Au     0.629780    14Bg     0.634382    15Bg     0.634386  
      37Ag     0.649972    38Ag     0.649974    37Bu     0.662248  
      38Bu     0.662252    39Ag     0.697701    40Ag     0.697706  
      41Ag     0.700083    16Au     0.708866    42Ag     0.727817  
      39Bu     0.728067    40Bu     0.728083    41Bu     0.743754  
      16Bg     0.761451    17Bg     0.761456    42Bu     0.793571  
      43Bu     0.796398    44Bu     0.814374    45Bu     0.814389  
      43Ag     0.829900    44Ag     0.849609    46Bu     0.851336  
      47Bu     0.851344    45Ag     0.862444    46Ag     0.862452  
      17Au     0.878918    18Au     0.878922    47Ag     0.887992  
      18Bg     0.897841    19Au     0.904375    48Ag     0.906807  
      49Ag     0.906820    19Bg     0.924027    20Au     0.952895  
      21Au     0.952901    22Au     0.959502    50Ag     0.959808  
      48Bu     0.983856    49Bu     0.983864    50Bu     0.984023  
      23Au     1.029885    24Au     1.029887    20Bg     1.032096  
      21Bg     1.032098    22Bg     1.064783    23Bg     1.064788  
      51Ag     1.078652    52Ag     1.080458    53Ag     1.080463  
      54Ag     1.090693    24Bg     1.095479    25Bg     1.099525  
      51Bu     1.101911    52Bu     1.101915    53Bu     1.107128  
      54Bu     1.135441    55Bu     1.135446    56Bu     1.147769  
      26Bg     1.174725    27Bg     1.174736    55Ag     1.175258  
      56Ag     1.175266    57Bu     1.202690    58Bu     1.202691  
      59Bu     1.210085    57Ag     1.217850    58Ag     1.217854  
      59Ag     1.230148    60Ag     1.230154    60Bu     1.255439  
      61Ag     1.257616    25Au     1.268705    26Au     1.268711  
      27Au     1.318498    62Ag     1.355646    63Ag     1.355649  
      28Au     1.359878    64Ag     1.381239    29Au     1.393743  
      30Au     1.393748    61Bu     1.394854    62Bu     1.394866  
      63Bu     1.420581    28Bg     1.467871    29Bg     1.467881  
      30Bg     1.478850    65Ag     1.506476    66Ag     1.506480  
      67Ag     1.514595    64Bu     1.515082    65Bu     1.515084  
      66Bu     1.532756    31Au     1.627523    32Au     1.672824  
      33Au     1.672825    31Bg     1.680533    32Bg     1.680545  
      68Ag     1.697731    67Bu     1.711470    68Bu     1.711475  
      69Bu     1.747638    70Bu     1.747649    33Bg     1.768811  
      71Bu     1.789807    34Au     1.807113    72Bu     1.813450  
      73Bu     1.813459    69Ag     1.832804    70Ag     1.832819  
      71Ag     1.853858    34Bg     1.880858    35Bg     1.883815  
      36Bg     1.883818    72Ag     1.907092    73Ag     1.907095  
      74Ag     1.920758    35Au     1.962877    36Au     1.983808  
      37Au     1.983821    74Bu     2.007180    75Bu     2.007187  
      75Ag     2.011424    76Ag     2.011425    76Bu     2.023241  
      77Ag     2.044342    78Ag     2.044345    77Bu     2.047054  
      37Bg     2.077058    38Bg     2.077090    78Bu     2.096557  
      79Bu     2.099986    80Bu     2.099997    39Bg     2.119344  
      38Au     2.241648    39Au     2.241669    79Ag     2.255450  
      80Ag     2.255458    40Au     2.328176    41Au     2.328195  
      81Ag     2.336549    81Bu     2.353167    82Bu     2.353171  
      40Bg     2.372302    41Bg     2.372312    83Bu     2.391626  
      42Bg     2.423336    82Ag     2.505074    83Ag     2.505125  
      84Bu     2.543622    85Bu     2.543629    86Bu     2.561321  
      84Ag     2.587638    85Ag     2.587712    42Au     2.685926  
      87Bu     2.723469    43Au     2.739316    86Ag     2.763977  
      87Ag     2.777255    88Ag     2.823584    89Ag     2.823607  
      90Ag     2.856319    88Bu     2.940206    89Bu     3.069869  
      90Bu     3.069893    91Ag     3.123262    43Bg     3.152264  
      44Bg     3.152304    44Au     3.214511    45Au     3.214541  
      92Ag     3.307305    93Ag     3.307328    45Bg     3.309984  
      46Au     3.332963    91Bu     3.361498    92Bu     3.361507  
      47Au     3.380361    46Bg     3.384934    47Bg     3.384967  
      94Ag     3.390387    93Bu     3.394544    95Ag     3.433065  
      96Ag     3.433078    48Au     3.521123    49Au     3.521150  
      94Bu     3.540361    95Bu     3.540387    48Bg     3.548932  
      49Bg     3.548934    50Au     3.561374    51Au     3.561380  
      52Au     3.578262    97Ag     3.605836    50Bg     3.631510  
      98Ag     3.645414    99Ag     3.645415    96Bu     3.656638  
      51Bg     3.733744    97Bu     3.764893    98Bu     3.766052  
     100Ag     3.807044    99Bu     3.817763   100Bu     3.817792  
     101Ag     3.827392   102Ag     3.827407    53Au     3.843112  
      54Au     3.843143    52Bg     3.863536    53Bg     3.863539  
     101Bu     3.944879   102Bu     3.944887   103Bu     3.971218  
     104Bu     3.971220   105Bu     3.985437    54Bg     4.027307  
     106Bu     4.031322   107Bu     4.031361   103Ag     4.035677  
     104Ag     4.035706    55Bg     4.099243    56Bg     4.099256  
     105Ag     4.099730   106Ag     4.118312   107Ag     4.118342  
      55Au     4.162667    57Bg     4.173650   108Bu     4.193471  
      56Au     4.234629    57Au     4.234634    58Bg     4.271121  
     108Ag     4.273900    59Bg     4.313968    60Bg     4.313973  
     109Bu     4.321631   110Bu     4.355876   111Bu     4.355894  
     109Ag     4.406786    58Au     4.418259    59Au     4.418265  
     110Ag     4.418745   111Ag     4.418750   112Bu     4.439131  
     113Bu     4.448480   114Bu     4.448489   112Ag     4.483912  
     113Ag     4.483932    60Au     4.591439   114Ag     4.692625  
      61Au     4.696447    62Au     4.696495   115Bu     4.703094  
     116Bu     4.703133    63Au     4.714698    61Bg     4.770230  
      62Bg     4.770271   115Ag     4.836848   116Ag     4.836856  
     117Bu     4.881709   117Ag     4.895026    63Bg     4.924216  
     118Bu     5.002465   119Bu     5.002501    64Bg     5.058661  
      65Bg     5.058709   118Ag     5.058901   119Ag     5.058919  
      64Au     5.087535   120Bu     5.097977    66Bg     5.134399  
      67Bg     5.134408    65Au     5.137275    66Au     5.137280  
     121Bu     5.150043   120Ag     5.152715   121Ag     5.215125  
     122Ag     5.215145    67Au     5.298241   123Ag     5.311997  
     124Ag     5.312059    68Bg     5.329107    68Au     5.392807  
      69Au     5.392816   122Bu     5.394002   123Bu     5.394009  
     125Ag     5.449067   124Bu     5.496271   125Bu     5.688422  
     126Bu     5.688460   126Ag     5.733766   127Ag     5.733780  
      69Bg     5.816260   128Ag     5.819597   129Ag     5.928847  
     127Bu     5.942545   128Bu     6.138980   129Bu     6.138995  
     130Ag     6.198314   131Ag     6.198350   130Bu     6.336736  
     131Bu     6.336766   132Bu     6.336992   133Bu     6.597915  
     134Bu     6.597995   132Ag     6.841559   133Ag     6.841595  
     134Ag     6.970136   135Bu     7.186260   135Ag     7.355632  
     136Ag    15.700933   137Ag    15.701384   138Ag    16.795207  
     136Bu    18.969555   137Bu    18.969574   138Bu    19.163184  

    Final Occupation by Irrep:
             Ag    Bg    Au    Bu 
    DOCC [     9,    2,    1,    9 ]

  @DF-RHF Final Energy:  -230.77765291207442

   => Energetics <=

    Nuclear Repulsion Energy =            202.0133089353801665
    One-Electron Energy =                -710.5043162466549802
    Two-Electron Energy =                 277.7133543992003979
    Total Energy =                       -230.7776529120744158

Computation Completed


Properties will be evaluated at   0.000000,   0.000000,   0.000000 [a0]

Properties computed using the SCF density matrix

  Nuclear Dipole Moment: [e a0]
     X:    -0.0000      Y:    -0.0000      Z:     0.0000

  Electronic Dipole Moment: [e a0]
     X:     0.0000      Y:     0.0000      Z:     0.0000

  Dipole Moment: [e a0]
     X:    -0.0000      Y:    -0.0000      Z:     0.0000     Total:     0.0000

  Dipole Moment: [D]
     X:    -0.0000      Y:    -0.0000      Z:     0.0000     Total:     0.0000


*** tstop() called on atlantis at Tue Apr 19 23:24:21 2022
Module time:
	user time   =      16.66 seconds =       0.28 minutes
	system time =       2.77 seconds =       0.05 minutes
	total time  =         20 seconds =       0.33 minutes
Total time:
	user time   =     138.45 seconds =       2.31 minutes
	system time =      11.66 seconds =       0.19 minutes
	total time  =        150 seconds =       2.50 minutes

*** tstart() called on atlantis
*** at Tue Apr 19 23:24:21 2022


  //>>>>>>>>>>>>>>>>>>>>>>>>>>>>>>>>>>>//
  //               DFMP2               //
  //<<<<<<<<<<<<<<<<<<<<<<<<<<<<<<<<<<<//

   => Loading Basis Set <=

    Name: (AUG-CC-PVTZ AUX)
    Role: RIFIT
    Keyword: DF_BASIS_MP2
    atoms 1-6  entry C          line   148 file /home/akrom/software/anaconda3/envs/ffpenv/share/psi4/basis/aug-cc-pvtz-ri.gbs 
    atoms 7-12 entry H          line    30 file /home/akrom/software/anaconda3/envs/ffpenv/share/psi4/basis/aug-cc-pvtz-ri.gbs 

	 --------------------------------------------------------
	                          DF-MP2                         
	      2nd-Order Density-Fitted Moller-Plesset Theory     
	              RMP2 Wavefunction,   1 Threads             
	                                                         
	        Rob Parrish, Justin Turney, Andy Simmonett,      
	           Ed Hohenstein, and C. David Sherrill          
	 --------------------------------------------------------

   => Auxiliary Basis Set <=

  Basis Set: (AUG-CC-PVTZ AUX)
    Blend: AUG-CC-PVTZ-RI
    Number of shells: 252
    Number of basis function: 912
    Number of Cartesian functions: 1146
    Spherical Harmonics?: true
    Max angular momentum: 4

	 --------------------------------------------------------
	                 NBF =   414, NAUX =   912
	 --------------------------------------------------------
	   CLASS    FOCC     OCC    AOCC    AVIR     VIR    FVIR
	   PAIRS       0      21      21     393     393       0
	 --------------------------------------------------------


         ------------------------------------------------------------
                                     CPHF                           
                                  Rob Parrish                       
         ------------------------------------------------------------

  ==> Geometry <==

    Molecular point group: c2h
    Full point group: C2h

    Geometry (in Angstrom), charge = 0, multiplicity = 1:

       Center              X                  Y                   Z               Mass       
    ------------   -----------------  -----------------  -----------------  -----------------
         C           -1.221510000000    -0.693250000000     0.000000000000    12.000000000000
         C           -1.211140000000     0.711220000000     0.000000000000    12.000000000000
         C           -0.010370000000    -1.404520000000     0.000000000000    12.000000000000
         C            0.010370000000     1.404520000000     0.000000000000    12.000000000000
         C            1.211140000000    -0.711220000000     0.000000000000    12.000000000000
         C            1.221510000000     0.693250000000     0.000000000000    12.000000000000
         H           -2.173110000000    -1.233320000000     0.000000000000     1.007825032230
         H           -2.154640000000     1.265330000000     0.000000000000     1.007825032230
         H           -0.018480000000    -2.498650000000     0.000000000000     1.007825032230
         H            0.018480000000     2.498650000000     0.000000000000     1.007825032230
         H            2.154640000000    -1.265330000000     0.000000000000     1.007825032230
         H            2.173110000000     1.233320000000     0.000000000000     1.007825032230

  Nuclear repulsion =  202.013308935380167
  Reference energy  = -230.777652912074416

  ==> Basis Set <==

  Basis Set: AUG-CC-PVTZ
    Blend: AUG-CC-PVTZ
    Number of shells: 138
    Number of basis function: 414
    Number of Cartesian functions: 480
    Spherical Harmonics?: true
    Max angular momentum: 3

  ==> CGRSolver (by Rob Parrish) <==

   Number of roots    =         1
   Preconditioning    =    JACOBI
   Convergence cutoff =     1E-06
   Maximum iterations =       100

  ==> CPHFRHamiltonian (by Rob Parrish) <== 

  ==> DiskDFJK: Density-Fitted J/K Matrices <==

    J tasked:                  Yes
    K tasked:                  Yes
    wK tasked:                  No
    OpenMP threads:              1
    Integrals threads:           1
    Memory [MiB]:              375
    Algorithm:                Disk
    Integral Cache:           NONE
    Schwarz Cutoff:          1E-12
    Fitting Condition:       1E-10

   => Auxiliary Basis Set <=

  Basis Set: (AUG-CC-PVTZ AUX)
    Blend: AUG-CC-PVTZ-JKFIT
    Number of shells: 264
    Number of basis function: 900
    Number of Cartesian functions: 1116
    Spherical Harmonics?: true
    Max angular momentum: 4

  ==> CPHF Iterations <==

  => Iterations <=

             Iter  Converged  Remaining    Residual
  CGR           1          0          1   7.747E-02
  CGR           2          0          1   1.279E-02
  CGR           3          0          1   2.578E-03
  CGR           4          0          1   5.096E-04
  CGR           5          0          1   7.465E-05
  CGR           6          0          1   6.851E-06
  CGR           7          1          0   8.541E-07

    CGRSolver converged.

  ==> DFCorrGrad: Density-Fitted Correlated Gradients <==

    OpenMP threads:              1
    Integrals threads:           1
    Memory [GiB]:            0.366
    Schwarz Cutoff:          0E+00
    Fitting Condition:       1E-10

   => Auxiliary Basis Set <=

  Basis Set: (AUG-CC-PVTZ AUX)
    Blend: AUG-CC-PVTZ-JKFIT
    Number of shells: 264
    Number of basis function: 900
    Number of Cartesian functions: 1116
    Spherical Harmonics?: true
    Max angular momentum: 4

	-----------------------------------------------------------
	 ==================> DF-MP2 Energies <==================== 
	-----------------------------------------------------------
	 Reference Energy          =    -230.7776529120744158 [Eh]
	 Singles Energy            =      -0.0000000000000000 [Eh]
	 Same-Spin Energy          =      -0.2555324272366172 [Eh]
	 Opposite-Spin Energy      =      -0.8196053650611569 [Eh]
	 Correlation Energy        =      -1.0751377922977741 [Eh]
	 Total Energy              =    -231.8527907043721825 [Eh]
	-----------------------------------------------------------
	 ================> DF-SCS-MP2 Energies <================== 
	-----------------------------------------------------------
	 SCS Same-Spin Scale       =       0.3333333333333333 [-]
	 SCS Opposite-Spin Scale   =       1.2000000000000000 [-]
	 SCS Same-Spin Energy      =      -0.0851774757455390 [Eh]
	 SCS Opposite-Spin Energy  =      -0.9835264380733882 [Eh]
	 SCS Correlation Energy    =      -1.0687039138189274 [Eh]
	 SCS Total Energy          =    -231.8463568258933378 [Eh]
	-----------------------------------------------------------


  -Total Gradient:
     Atom            X                  Y                   Z
    ------   -----------------  -----------------  -----------------
       1       -0.004248056713    -0.002380116431     0.000000000000
       2       -0.004211850362     0.002436595496     0.000000000000
       3       -0.000029362247    -0.004910393145     0.000000000000
       4        0.000029362247     0.004910393145     0.000000000000
       5        0.004211850362    -0.002436595496     0.000000000000
       6        0.004248056713     0.002380116431     0.000000000000
       7       -0.009140335073    -0.005188535813     0.000000000000
       8       -0.009063341106     0.005328625818     0.000000000000
       9       -0.000079960783    -0.010502984924     0.000000000000
      10        0.000079960783     0.010502984924     0.000000000000
      11        0.009063341106    -0.005328625818     0.000000000000
      12        0.009140335073     0.005188535813     0.000000000000


*** tstop() called on atlantis at Tue Apr 19 23:25:49 2022
Module time:
	user time   =      84.91 seconds =       1.42 minutes
	system time =       3.29 seconds =       0.05 minutes
	total time  =         88 seconds =       1.47 minutes
Total time:
	user time   =     223.36 seconds =       3.72 minutes
	system time =      14.95 seconds =       0.25 minutes
	total time  =        238 seconds =       3.97 minutes

  //>>>>>>>>>>>>>>>>>>>>>>>>>>>>>>>>>>>//
  //    Loading displacement 2 of 42   //
  //<<<<<<<<<<<<<<<<<<<<<<<<<<<<<<<<<<<//
gradient() will perform analytic gradient computation.
    SCF Algorithm Type (re)set to DF.

*** tstart() called on atlantis
*** at Tue Apr 19 23:25:49 2022

   => Loading Basis Set <=

    Name: AUG-CC-PVTZ
    Role: ORBITAL
    Keyword: BASIS
    atoms 1-6  entry C          line   235 file /home/akrom/software/anaconda3/envs/ffpenv/share/psi4/basis/aug-cc-pvtz.gbs 
    atoms 7-12 entry H          line    36 file /home/akrom/software/anaconda3/envs/ffpenv/share/psi4/basis/aug-cc-pvtz.gbs 


         ---------------------------------------------------------
                                   SCF
               by Justin Turney, Rob Parrish, Andy Simmonett
                          and Daniel G. A. Smith
                              RHF Reference
                        1 Threads,    500 MiB Core
         ---------------------------------------------------------

  ==> Geometry <==

    Molecular point group: c2h
    Full point group: C2h

    Geometry (in Angstrom), charge = 0, multiplicity = 1:

       Center              X                  Y                   Z               Mass       
    ------------   -----------------  -----------------  -----------------  -----------------
         C           -1.222032477591    -0.693313109608     0.000000000000    12.000000000000
         C           -1.211176745353     0.711157426160     0.000000000000    12.000000000000
         C           -0.010297435136    -1.404520535769     0.000000000000    12.000000000000
         C            0.010297435136     1.404520535769     0.000000000000    12.000000000000
         C            1.211176745353    -0.711157426160     0.000000000000    12.000000000000
         C            1.222032477591     0.693313109608     0.000000000000    12.000000000000
         H           -2.173046280225    -1.233432274252     0.000000000000     1.007825032230
         H           -2.154705373579     1.265218680005     0.000000000000     1.007825032230
         H           -0.018350906646    -2.498650954774     0.000000000000     1.007825032230
         H            0.018350906646     2.498650954774     0.000000000000     1.007825032230
         H            2.154705373579    -1.265218680005     0.000000000000     1.007825032230
         H            2.173046280225     1.233432274252     0.000000000000     1.007825032230

  Running in c2h symmetry.

  Rotational constants: A =      0.18753  B =      0.18745  C =      0.09375 [cm^-1]
  Rotational constants: A =   5621.97670  B =   5619.72613  C =   2810.42560 [MHz]
  Nuclear repulsion =  201.998047561272216

  Charge       = 0
  Multiplicity = 1
  Electrons    = 42
  Nalpha       = 21
  Nbeta        = 21

  ==> Algorithm <==

  SCF Algorithm Type is DF.
  DIIS enabled.
  MOM disabled.
  Fractional occupation disabled.
  Guess Type is SAD.
  Energy threshold   = 1.00e-10
  Density threshold  = 1.00e-10
  Integral threshold = 0.00e+00

  ==> Primary Basis <==

  Basis Set: AUG-CC-PVTZ
    Blend: AUG-CC-PVTZ
    Number of shells: 138
    Number of basis function: 414
    Number of Cartesian functions: 480
    Spherical Harmonics?: true
    Max angular momentum: 3

   => Loading Basis Set <=

    Name: (AUG-CC-PVTZ AUX)
    Role: JKFIT
    Keyword: DF_BASIS_SCF
    atoms 1-6  entry C          line   162 file /home/akrom/software/anaconda3/envs/ffpenv/share/psi4/basis/aug-cc-pvtz-jkfit.gbs 
    atoms 7-12 entry H          line    70 file /home/akrom/software/anaconda3/envs/ffpenv/share/psi4/basis/aug-cc-pvtz-jkfit.gbs 

  ==> Pre-Iterations <==

   -------------------------------------------------------
    Irrep   Nso     Nmo     Nalpha   Nbeta   Ndocc  Nsocc
   -------------------------------------------------------
     Ag       138     138       0       0       0       0
     Bg        69      69       0       0       0       0
     Au        69      69       0       0       0       0
     Bu       138     138       0       0       0       0
   -------------------------------------------------------
    Total     414     414      21      21      21       0
   -------------------------------------------------------

  ==> Integral Setup <==

  ==> DiskDFJK: Density-Fitted J/K Matrices <==

    J tasked:                  Yes
    K tasked:                  Yes
    wK tasked:                  No
    OpenMP threads:              1
    Integrals threads:           1
    Memory [MiB]:              375
    Algorithm:                Disk
    Integral Cache:           NONE
    Schwarz Cutoff:          1E-12
    Fitting Condition:       1E-10

   => Auxiliary Basis Set <=

  Basis Set: (AUG-CC-PVTZ AUX)
    Blend: AUG-CC-PVTZ-JKFIT
    Number of shells: 264
    Number of basis function: 900
    Number of Cartesian functions: 1116
    Spherical Harmonics?: true
    Max angular momentum: 4

  Minimum eigenvalue in the overlap matrix is 3.6798908661E-07.
  Using Symmetric Orthogonalization.

  SCF Guess: Superposition of Atomic Densities via on-the-fly atomic UHF.

  ==> Iterations <==

                           Total Energy        Delta E     RMS |[F,P]|

   @DF-RHF iter SAD:  -230.05160136657727   -2.30052e+02   0.00000e+00 
   @DF-RHF iter   1:  -230.60223165214393   -5.50630e-01   2.45051e-03 DIIS
   @DF-RHF iter   2:  -230.74030493285750   -1.38073e-01   1.21756e-03 DIIS
   @DF-RHF iter   3:  -230.77605980027116   -3.57549e-02   1.97159e-04 DIIS
   @DF-RHF iter   4:  -230.77760969432515   -1.54989e-03   2.39944e-05 DIIS
   @DF-RHF iter   5:  -230.77763767938188   -2.79851e-05   4.42747e-06 DIIS
   @DF-RHF iter   6:  -230.77763868622736   -1.00685e-06   5.11601e-07 DIIS
   @DF-RHF iter   7:  -230.77763870228574   -1.60584e-08   8.21869e-08 DIIS
   @DF-RHF iter   8:  -230.77763870262839   -3.42652e-10   3.54801e-08 DIIS
   @DF-RHF iter   9:  -230.77763870267330   -4.49063e-11   7.17301e-09 DIIS
   @DF-RHF iter  10:  -230.77763870267808   -4.77485e-12   1.01461e-09 DIIS
   @DF-RHF iter  11:  -230.77763870267762    4.54747e-13   1.39726e-10 DIIS
   @DF-RHF iter  12:  -230.77763870267722    3.97904e-13   1.63177e-11 DIIS
  Energy and wave function converged.


  ==> Post-Iterations <==

    Orbital Energies [Eh]
    ---------------------

[...]
      5   C                0.13 -0.22 -0.00    0.30 -0.06 -0.00    0.00 -0.00 -0.03   
      6   C               -0.30 -0.20  0.00    0.13 -0.11 -0.00    0.00 -0.00 -0.03   
      7   H                0.33  0.15  0.00    0.05 -0.21 -0.00   -0.00  0.00  0.41   
      8   H               -0.28 -0.03  0.00   -0.18  0.26  0.00    0.00 -0.00  0.41   
      9   H               -0.20 -0.13 -0.00   -0.07  0.34 -0.00    0.00  0.00  0.41   
     10   H                0.20  0.13 -0.00    0.07 -0.34 -0.00   -0.00 -0.00  0.41   
     11   H                0.28  0.03  0.00    0.18 -0.26  0.00   -0.00 -0.00  0.41   
     12   H               -0.33 -0.15  0.00   -0.05  0.21  0.00   -0.00  0.00  0.41   

  Vibration                       13                  14                  15          
  Freq [cm^-1]                 838.3330            925.1302            925.1632       
  Irrep                           Bg                  Bg                  Bg          
  Reduced mass [u]              1.4545              1.2479              1.2479        
  Force const [mDyne/A]         0.6023              0.6292              0.6293        
  Turning point v=0 [a0]        0.3142              0.3229              0.3229        
  RMS dev v=0 [a0 u^1/2]        0.2680              0.2551              0.2551        
  Char temp [K]               1206.1746           1331.0564           1331.1038       
  ----------------------------------------------------------------------------------
      1   C               -0.00 -0.00 -0.08   -0.00  0.00 -0.07   -0.00  0.00 -0.04   
      2   C               -0.00 -0.00  0.08    0.00 -0.00 -0.07    0.00 -0.00  0.04   
      3   C               -0.00 -0.00  0.08   -0.00  0.00  0.00   -0.00  0.00 -0.09   
      4   C               -0.00 -0.00 -0.08   -0.00 -0.00 -0.00   -0.00 -0.00  0.09   
      5   C                0.00  0.00 -0.08    0.00 -0.00  0.07    0.00 -0.00 -0.04   
      6   C                0.00  0.00  0.08   -0.00 -0.00  0.07   -0.00 -0.00  0.04   
      7   H               -0.00 -0.00  0.40   -0.00  0.00  0.49   -0.00  0.00  0.29   
      8   H               -0.00  0.00 -0.40    0.00 -0.00  0.50    0.00  0.00 -0.28   
      9   H               -0.00 -0.00 -0.40    0.00  0.00 -0.01   -0.00  0.00  0.57   
     10   H               -0.00 -0.00  0.40   -0.00 -0.00  0.01   -0.00 -0.00 -0.57   
     11   H                0.00  0.00  0.40   -0.00 -0.00 -0.50   -0.00 -0.00  0.28   
     12   H               -0.00  0.00 -0.40   -0.00  0.00 -0.49   -0.00  0.00 -0.29   

  Vibration                       16                  17                  18          
  Freq [cm^-1]                 979.7669           1011.4669           1011.5132       
  Irrep                           Ag                  Au                  Au          
  Reduced mass [u]              6.0425              1.3436              1.3435        
  Force const [mDyne/A]         3.4175              0.8099              0.8099        
  Turning point v=0 [a0]        0.1426              0.2977              0.2977        
  RMS dev v=0 [a0 u^1/2]        0.2479              0.2440              0.2440        
  Char temp [K]               1409.6664           1455.2757           1455.3423       
  ----------------------------------------------------------------------------------
      1   C                0.24  0.14  0.00    0.00 -0.00 -0.09    0.00 -0.00  0.05   
      2   C                0.24 -0.14 -0.00    0.00  0.00  0.00   -0.00  0.00 -0.10   
      3   C                0.00  0.28  0.00    0.00 -0.00  0.09    0.00 -0.00  0.05   
      4   C               -0.00 -0.28 -0.00   -0.00 -0.00  0.09   -0.00 -0.00  0.05   
      5   C               -0.24  0.14 -0.00   -0.00  0.00  0.00   -0.00  0.00 -0.10   
      6   C               -0.24 -0.14  0.00    0.00 -0.00 -0.09    0.00 -0.00  0.05   
      7   H                0.26  0.15 -0.00   -0.00  0.00  0.50   -0.00  0.00 -0.28   
      8   H                0.26 -0.15  0.00    0.00  0.00 -0.01    0.00  0.00  0.57   
      9   H                0.00  0.30 -0.00   -0.00 -0.00 -0.49   -0.00 -0.00 -0.29   
     10   H               -0.00 -0.30  0.00   -0.00 -0.00 -0.49   -0.00 -0.00 -0.29   
     11   H               -0.26  0.15  0.00    0.00  0.00 -0.01    0.00  0.00  0.57   
     12   H               -0.26 -0.15 -0.00    0.00 -0.00  0.50    0.00 -0.00 -0.28   

  Vibration                       19                  20                  21          
  Freq [cm^-1]                1019.4881           1049.4560           1049.9683       
  Irrep                           Bu                  Bu                  Bu          
  Reduced mass [u]              6.5422              1.8620              1.8641        
  Force const [mDyne/A]         4.0062              1.2083              1.2108        
  Turning point v=0 [a0]        0.1344              0.2482              0.2480        
  RMS dev v=0 [a0 u^1/2]        0.2430              0.2395              0.2394        
  Char temp [K]               1466.8164           1509.9336           1510.6706       
  ----------------------------------------------------------------------------------
      1   C               -0.25 -0.14  0.00   -0.02  0.10  0.00   -0.12 -0.04  0.00   
      2   C                0.25 -0.15 -0.00    0.12 -0.04  0.00    0.01  0.10  0.00   
      3   C                0.00  0.29  0.00   -0.07 -0.09 -0.00    0.07 -0.09 -0.00   
      4   C                0.00  0.29  0.00   -0.07 -0.09 -0.00    0.07 -0.09 -0.00   
      5   C                0.25 -0.15 -0.00    0.12 -0.04  0.00    0.01  0.10  0.00   
      6   C               -0.25 -0.14 -0.00   -0.02  0.10  0.00   -0.12 -0.04  0.00   
      7   H               -0.25 -0.14 -0.00   -0.23  0.47 -0.00   -0.18  0.04 -0.00   
      8   H                0.25 -0.14  0.00    0.20  0.07 -0.00    0.22  0.46 -0.00   
      9   H                0.01  0.29 -0.00   -0.36 -0.10  0.00    0.39 -0.10  0.00   
     10   H                0.01  0.29 -0.00   -0.36 -0.10  0.00    0.39 -0.10  0.00   
     11   H                0.25 -0.14  0.00    0.20  0.07 -0.00    0.22  0.46 -0.00   
     12   H               -0.25 -0.14  0.00   -0.23  0.47 -0.00   -0.18  0.04 -0.00   

  Vibration                       22                  23                  24          
  Freq [cm^-1]                1171.6003           1189.6927           1189.8198       
  Irrep                           Bu                  Ag                  Ag          
  Reduced mass [u]              1.0767              1.1617              1.1619        
  Force const [mDyne/A]         0.8707              0.9688              0.9692        
  Turning point v=0 [a0]        0.3089              0.2951              0.2951        
  RMS dev v=0 [a0 u^1/2]        0.2267              0.2249              0.2249        
  Char temp [K]               1685.6719           1711.7029           1711.8858       
  ----------------------------------------------------------------------------------
      1   C               -0.02  0.03 -0.00    0.00 -0.01  0.00   -0.03  0.06  0.00   
      2   C               -0.02 -0.03 -0.00    0.03  0.05 -0.00   -0.01 -0.03  0.00   
      3   C                0.03 -0.00  0.00    0.06  0.00  0.00    0.04 -0.00 -0.00   
      4   C                0.03 -0.00  0.00   -0.06 -0.00 -0.00   -0.04  0.00 -0.00   
      5   C               -0.02 -0.03 -0.00   -0.03 -0.05 -0.00    0.01  0.03  0.00   
      6   C               -0.02  0.03 -0.00   -0.00  0.01  0.00    0.03 -0.06  0.00   
      7   H               -0.20  0.35  0.00    0.02 -0.04 -0.00   -0.28  0.50 -0.00   
      8   H               -0.21 -0.35  0.00    0.26  0.45  0.00   -0.12 -0.21 -0.00   
      9   H                0.41 -0.00 -0.00    0.47 -0.00 -0.00    0.33 -0.00  0.00   
     10   H                0.41 -0.00 -0.00   -0.47  0.00  0.00   -0.33  0.00  0.00   
     11   H               -0.21 -0.35  0.00   -0.26 -0.45  0.00    0.12  0.21 -0.00   
     12   H               -0.20  0.35  0.00   -0.02  0.04 -0.00    0.28 -0.50 -0.00   

  Vibration                       25                  26                  27          
  Freq [cm^-1]                1243.1118           1399.0356           1482.7202       
  Irrep                           Ag                  Bu                  Bu          
  Reduced mass [u]              1.2479              6.8132              1.8234        
  Force const [mDyne/A]         1.1361              7.8570              2.3618        
  Turning point v=0 [a0]        0.2786              0.1124              0.2110        
  RMS dev v=0 [a0 u^1/2]        0.2201              0.2074              0.2015        
  Char temp [K]               1788.5610           2012.9007           2133.3042       
  ----------------------------------------------------------------------------------
      1   C               -0.03  0.05 -0.00   -0.15  0.26 -0.00    0.09 -0.01 -0.00   
      2   C                0.03  0.05  0.00   -0.15 -0.26  0.00   -0.06 -0.12 -0.00   
      3   C               -0.06  0.00  0.00    0.30 -0.00  0.00   -0.08  0.07  0.00   
      4   C                0.06 -0.00  0.00    0.30 -0.00 -0.00   -0.08  0.07  0.00   
      5   C               -0.03 -0.05 -0.00   -0.15 -0.26  0.00   -0.06 -0.12 -0.00   
      6   C                0.03 -0.05 -0.00   -0.15  0.26 -0.00    0.09 -0.01 -0.00   
      7   H                0.20 -0.35  0.00    0.14 -0.24  0.00   -0.03  0.24  0.00   
      8   H               -0.20 -0.35  0.00    0.14  0.24 -0.00    0.28  0.46  0.00   
      9   H                0.40 -0.00 -0.00   -0.28  0.00 -0.00    0.32  0.08 -0.00   
     10   H               -0.40  0.00 -0.00   -0.28  0.00  0.00    0.32  0.08 -0.00   
     11   H                0.20  0.35  0.00    0.14  0.24 -0.00    0.28  0.46  0.00   
     12   H               -0.20  0.35  0.00    0.14 -0.24  0.00   -0.03  0.24  0.00   

  Vibration                       28                  29                  30          
  Freq [cm^-1]                1483.0531           1577.0309           1577.1651       
  Irrep                           Bu                  Ag                  Ag          
  Reduced mass [u]              1.8247              4.7559              4.7544        
  Force const [mDyne/A]         2.3646              6.9689              6.9679        
  Turning point v=0 [a0]        0.2109              0.1267              0.1267        
  RMS dev v=0 [a0 u^1/2]        0.2015              0.1954              0.1954        
  Char temp [K]               2133.7832           2268.9963           2269.1894       
  ----------------------------------------------------------------------------------
      1   C               -0.03  0.12 -0.00   -0.16  0.01  0.00   -0.11  0.27  0.00   
      2   C                0.08 -0.03 -0.00    0.20  0.13  0.00   -0.03 -0.24 -0.00   
      3   C               -0.11 -0.05  0.00    0.30  0.03 -0.00    0.07 -0.14  0.00   
      4   C               -0.11 -0.05  0.00   -0.30 -0.03 -0.00   -0.07  0.14  0.00   
      5   C                0.08 -0.03 -0.00   -0.20 -0.13  0.00    0.03  0.24 -0.00   
      6   C               -0.03  0.12 -0.00    0.16 -0.01  0.00    0.11 -0.27 -0.00   
      7   H                0.28 -0.41  0.00   -0.08 -0.18 -0.00    0.25 -0.35  0.00   
      8   H                0.06 -0.10  0.00   -0.05 -0.32 -0.00    0.26  0.22  0.00   
      9   H                0.44 -0.06 -0.00   -0.43  0.04  0.00   -0.11 -0.16 -0.00   
     10   H                0.44 -0.06 -0.00    0.43 -0.04  0.00    0.11  0.16 -0.00   
     11   H                0.06 -0.10  0.00    0.05  0.32 -0.00   -0.26 -0.22  0.00   
     12   H                0.28 -0.41  0.00    0.08  0.18 -0.00   -0.25  0.35  0.00   

  Vibration                       31                  32                  33          
  Freq [cm^-1]                3019.5938           3056.1812           3056.2938       
  Irrep                           Bu                  Ag                  Ag          
  Reduced mass [u]              1.0837              1.0875              1.0875        
  Force const [mDyne/A]         5.8220              5.9844              5.9849        
  Turning point v=0 [a0]        0.1918              0.1903              0.1903        
  RMS dev v=0 [a0 u^1/2]        0.1412              0.1403              0.1403        
  Char temp [K]               4344.5232           4397.1642           4397.3263       
  ----------------------------------------------------------------------------------
      1   C                0.03  0.02  0.00    0.03  0.02  0.00    0.03  0.02 -0.00   
      2   C               -0.03  0.02  0.00   -0.04  0.02 -0.00    0.01 -0.01 -0.00   
      3   C               -0.00 -0.03 -0.00   -0.00  0.01  0.00   -0.00 -0.05  0.00   
      4   C               -0.00 -0.03 -0.00    0.00 -0.01  0.00    0.00  0.05  0.00   
      5   C               -0.03  0.02 -0.00    0.04 -0.02  0.00   -0.01  0.01  0.00   
      6   C                0.03  0.02 -0.00   -0.03 -0.02 -0.00   -0.03 -0.02 -0.00   
      7   H               -0.35 -0.20 -0.00   -0.35 -0.20 -0.00   -0.36 -0.21  0.00   
      8   H                0.35 -0.21 -0.00    0.48 -0.28  0.00   -0.14  0.09  0.00   
      9   H                0.00  0.41  0.00    0.00 -0.14 -0.00    0.00  0.55 -0.00   
     10   H                0.00  0.41  0.00   -0.00  0.14  0.00   -0.00 -0.55 -0.00   
     11   H                0.35 -0.21 -0.00   -0.48  0.28 -0.00    0.14 -0.09  0.00   
     12   H               -0.35 -0.20 -0.00    0.35  0.20 -0.00    0.36  0.21  0.00   

  Vibration                       34                  35                  36          
  Freq [cm^-1]                3083.8580           3084.0658           3104.2817       
  Irrep                           Bu                  Bu                  Ag          
  Reduced mass [u]              1.0961              1.0959              1.0988        
  Force const [mDyne/A]         6.1416              6.1417              6.2387        
  Turning point v=0 [a0]        0.1887              0.1887              0.1879        
  RMS dev v=0 [a0 u^1/2]        0.1397              0.1397              0.1393        
  Char temp [K]               4436.9851           4437.2840           4466.3702       
  ----------------------------------------------------------------------------------
      1   C               -0.00  0.00 -0.00   -0.04 -0.03  0.00   -0.03 -0.02 -0.00   
      2   C                0.04 -0.02 -0.00   -0.02  0.02 -0.00   -0.03  0.02 -0.00   
      3   C               -0.00 -0.04 -0.00    0.00 -0.03  0.00    0.00 -0.04 -0.00   
      4   C               -0.00 -0.04 -0.00    0.00 -0.03 -0.00   -0.00  0.04 -0.00   
      5   C                0.04 -0.02 -0.00   -0.02  0.02  0.00    0.03 -0.02  0.00   
      6   C               -0.00  0.00  0.00   -0.04 -0.03 -0.00    0.03  0.02 -0.00   
      7   H                0.00 -0.00 -0.00    0.50  0.28 -0.00    0.35  0.20  0.00   
      8   H               -0.43  0.25 -0.00    0.25 -0.15  0.00    0.34 -0.20  0.00   
      9   H                0.01  0.50  0.00   -0.00  0.29 -0.00    0.00  0.42  0.00   
     10   H                0.01  0.50 -0.00   -0.00  0.29  0.00   -0.00 -0.42 -0.00   
     11   H               -0.43  0.25  0.00    0.25 -0.15  0.00   -0.34  0.20 -0.00   
     12   H                0.00 -0.00  0.00    0.50  0.28  0.00   -0.35 -0.20 -0.00   

  ==> Thermochemistry Components <==

  Entropy, S
    Electronic S            0.000 [cal/(mol K)]        0.000 [J/(mol K)]       0.00000000 [mEh/K] (multiplicity = 1)
    Translational S        38.979 [cal/(mol K)]      163.089 [J/(mol K)]       0.06211726 [mEh/K] (mol. weight = 78.0470 [u], P = 101325.00 [Pa])
    Rotational S           24.318 [cal/(mol K)]      101.746 [J/(mol K)]       0.03875307 [mEh/K] (symmetry no. = 2)
    Vibrational S           4.012 [cal/(mol K)]       16.785 [J/(mol K)]       0.00639303 [mEh/K]
  Total S                  67.309 [cal/(mol K)]      281.620 [J/(mol K)]       0.10726336 [mEh/K]
  Correction S              0.000 [cal/(mol K)]        0.000 [J/(mol K)]       0.00000000 [mEh/K]

  Constant volume heat capacity, Cv
    Electronic Cv           0.000 [cal/(mol K)]        0.000 [J/(mol K)]       0.00000000 [mEh/K]
    Translational Cv        2.981 [cal/(mol K)]       12.472 [J/(mol K)]       0.00475022 [mEh/K]
    Rotational Cv           2.981 [cal/(mol K)]       12.472 [J/(mol K)]       0.00475022 [mEh/K]
    Vibrational Cv         10.411 [cal/(mol K)]       43.558 [J/(mol K)]       0.01659027 [mEh/K]
  Total Cv                 16.372 [cal/(mol K)]       68.501 [J/(mol K)]       0.02609071 [mEh/K]
  Correction Cv             0.000 [cal/(mol K)]        0.000 [J/(mol K)]       0.00000000 [mEh/K]

  Constant pressure heat capacity, Cp
    Electronic Cp           0.000 [cal/(mol K)]        0.000 [J/(mol K)]       0.00000000 [mEh/K]
    Translational Cp        4.968 [cal/(mol K)]       20.786 [J/(mol K)]       0.00791703 [mEh/K]
    Rotational Cp           2.981 [cal/(mol K)]       12.472 [J/(mol K)]       0.00475022 [mEh/K]
    Vibrational Cp         10.411 [cal/(mol K)]       43.558 [J/(mol K)]       0.01659027 [mEh/K]
  Total Cp                 18.359 [cal/(mol K)]       76.816 [J/(mol K)]       0.02925752 [mEh/K]
  Correction Cp             0.000 [cal/(mol K)]        0.000 [J/(mol K)]       0.00000000 [mEh/K]

  ==> Thermochemistry Energy Analysis <==

  Raw electronic energy, E0
  Total E0, Electronic energy at well bottom at 0 [K]                 -231.85279070 [Eh]

  Zero-point energy, ZPE_vib = Sum_i nu_i / 2
    Electronic ZPE          0.000 [kcal/mol]        0.000 [kJ/mol]       0.00000000 [Eh]
    Translational ZPE       0.000 [kcal/mol]        0.000 [kJ/mol]       0.00000000 [Eh]
    Rotational ZPE          0.000 [kcal/mol]        0.000 [kJ/mol]       0.00000000 [Eh]
    Vibrational ZPE        60.579 [kcal/mol]      253.462 [kJ/mol]       0.09653863 [Eh]       21187.781 [cm^-1]
  Correction ZPE           60.579 [kcal/mol]      253.462 [kJ/mol]       0.09653863 [Eh]       21187.781 [cm^-1]
  Total ZPE, Electronic energy at 0 [K]                               -231.75625207 [Eh]

  Thermal Energy, E (includes ZPE)
    Electronic E            0.000 [kcal/mol]        0.000 [kJ/mol]       0.00000000 [Eh]
    Translational E         0.889 [kcal/mol]        3.718 [kJ/mol]       0.00141628 [Eh]
    Rotational E            0.889 [kcal/mol]        3.718 [kJ/mol]       0.00141628 [Eh]
    Vibrational E          61.475 [kcal/mol]      257.213 [kJ/mol]       0.09796733 [Eh]
  Correction E             63.253 [kcal/mol]      264.650 [kJ/mol]       0.10079988 [Eh]
  Total E, Electronic energy at  298.15 [K]                           -231.75199082 [Eh]

  Enthalpy, H_trans = E_trans + k_B * T
    Electronic H            0.000 [kcal/mol]        0.000 [kJ/mol]       0.00000000 [Eh]
    Translational H         1.481 [kcal/mol]        6.197 [kJ/mol]       0.00236046 [Eh]
    Rotational H            0.889 [kcal/mol]        3.718 [kJ/mol]       0.00141628 [Eh]
    Vibrational H          61.475 [kcal/mol]      257.213 [kJ/mol]       0.09796733 [Eh]
  Correction H             63.845 [kcal/mol]      267.129 [kJ/mol]       0.10174407 [Eh]
  Total H, Enthalpy at  298.15 [K]                                    -231.75104664 [Eh]

  Gibbs free energy, G = H - T * S
    Electronic G            0.000 [kcal/mol]        0.000 [kJ/mol]       0.00000000 [Eh]
    Translational G       -10.140 [kcal/mol]      -42.428 [kJ/mol]      -0.01615980 [Eh]
    Rotational G           -6.362 [kcal/mol]      -26.617 [kJ/mol]      -0.01013795 [Eh]
    Vibrational G          60.279 [kcal/mol]      252.209 [kJ/mol]       0.09606125 [Eh]
  Correction G             43.777 [kcal/mol]      183.164 [kJ/mol]       0.06976350 [Eh]
  Total G, Free enthalpy at  298.15 [K]                               -231.78302721 [Eh]

    Psi4 stopped on: Wednesday, 20 April 2022 12:40AM
    Psi4 wall time for execution: 1:18:53.17

*** Psi4 exiting successfully. Buy a developer a beer!
