
    -----------------------------------------------------------------------
          Psi4: An Open-Source Ab Initio Electronic Structure Package
                               Psi4 1.3.2 release

                         Git: Rev {HEAD} ecbda83 


    R. M. Parrish, L. A. Burns, D. G. A. Smith, A. C. Simmonett,
    A. E. DePrince III, E. G. Hohenstein, U. Bozkaya, A. Yu. Sokolov,
    R. Di Remigio, R. M. Richard, J. F. Gonthier, A. M. James,
    H. R. McAlexander, A. Kumar, M. Saitow, X. Wang, B. P. Pritchard,
    P. Verma, H. F. Schaefer III, K. Patkowski, R. A. King, E. F. Valeev,
    F. A. Evangelista, J. M. Turney, T. D. Crawford, and C. D. Sherrill,
    J. Chem. Theory Comput. 13(7) pp 3185--3197 (2017).
    (doi: 10.1021/acs.jctc.7b00174)


                         Additional Contributions by
    P. Kraus, H. Kruse, M. H. Lechner, M. C. Schieber, R. A. Shaw,
    A. Alenaizan, R. Galvelis, Z. L. Glick, S. Lehtola, and J. P. Misiewicz

    -----------------------------------------------------------------------


    Psi4 started on: Wednesday, 20 April 2022 01:31AM

    Process ID: 12538
    Host:       atlantis
    PSIDATADIR: /home/akrom/software/anaconda3/envs/ffpenv/share/psi4
    Memory:     500.0 MiB
    Threads:    1
    
  ==> Input File <==

--------------------------------------------------------------------------
set basis  6-31++G**
molecule {
0 1
   C       -1.22151       -0.69325        0.00000
   C       -1.21114        0.71122        0.00000
   C       -0.01037       -1.40452        0.00000
   C        0.01037        1.40452        0.00000
   C        1.21114       -0.71122        0.00000
   C        1.22151        0.69325        0.00000
   H       -2.17311       -1.23332        0.00000
   H       -2.15464        1.26533        0.00000
   H       -0.01848       -2.49865        0.00000
   H        0.01848        2.49865        0.00000
   H        2.15464       -1.26533        0.00000
   H        2.17311        1.23332        0.00000
}
energy('B3LYP')
frequencies('B3LYP')
--------------------------------------------------------------------------

*** tstart() called on atlantis
*** at Wed Apr 20 01:31:05 2022

   => Loading Basis Set <=

    Name: 6-31++G**
    Role: ORBITAL
    Keyword: BASIS
    atoms 1-6  entry C          line   115 file /home/akrom/software/anaconda3/envs/ffpenv/share/psi4/basis/6-31ppgss.gbs 
    atoms 7-12 entry H          line    46 file /home/akrom/software/anaconda3/envs/ffpenv/share/psi4/basis/6-31ppgss.gbs 


         ---------------------------------------------------------
                                   SCF
               by Justin Turney, Rob Parrish, Andy Simmonett
                          and Daniel G. A. Smith
                              RKS Reference
                        1 Threads,    500 MiB Core
         ---------------------------------------------------------

  ==> Geometry <==

    Molecular point group: c2h
    Full point group: C2h

    Geometry (in Angstrom), charge = 0, multiplicity = 1:

       Center              X                  Y                   Z               Mass       
    ------------   -----------------  -----------------  -----------------  -----------------
         C           -1.221510000000    -0.693250000000     0.000000000000    12.000000000000
         C           -1.211140000000     0.711220000000     0.000000000000    12.000000000000
         C           -0.010370000000    -1.404520000000     0.000000000000    12.000000000000
         C            0.010370000000     1.404520000000     0.000000000000    12.000000000000
         C            1.211140000000    -0.711220000000     0.000000000000    12.000000000000
         C            1.221510000000     0.693250000000     0.000000000000    12.000000000000
         H           -2.173110000000    -1.233320000000     0.000000000000     1.007825032230
         H           -2.154640000000     1.265330000000     0.000000000000     1.007825032230
         H           -0.018480000000    -2.498650000000     0.000000000000     1.007825032230
         H            0.018480000000     2.498650000000     0.000000000000     1.007825032230
         H            2.154640000000    -1.265330000000     0.000000000000     1.007825032230
         H            2.173110000000     1.233320000000     0.000000000000     1.007825032230

  Running in c2h symmetry.

  Rotational constants: A =      0.18753  B =      0.18752  C =      0.09376 [cm^-1]
  Rotational constants: A =   5621.92707  B =   5621.82252  C =   2810.93740 [MHz]
  Nuclear repulsion =  202.013308935380167

  Charge       = 0
  Multiplicity = 1
  Electrons    = 42
  Nalpha       = 21
  Nbeta        = 21

  ==> Algorithm <==

  SCF Algorithm Type is DF.
  DIIS enabled.
  MOM disabled.
  Fractional occupation disabled.
  Guess Type is SAD.
  Energy threshold   = 1.00e-06
  Density threshold  = 1.00e-06
  Integral threshold = 0.00e+00

  ==> Primary Basis <==

  Basis Set: 6-31++G**
    Blend: 6-31++G**
    Number of shells: 72
    Number of basis function: 150
    Number of Cartesian functions: 150
    Spherical Harmonics?: false
    Max angular momentum: 2

  ==> DFT Potential <==

   => Composite Functional: B3LYP <= 

    B3LYP Hyb-GGA Exchange-Correlation Functional

    P. J. Stephens, F. J. Devlin, C. F. Chabalowski, and M. J. Frisch, J. Phys. Chem. 98, 11623 (1994)

    Deriv               =              1
    GGA                 =           TRUE
    Meta                =          FALSE

    Exchange Hybrid     =           TRUE
    MP2 Hybrid          =          FALSE

   => Exchange Functionals <=

    0.0800   Slater exchange
    0.7200         Becke 88

   => Exact (HF) Exchange <=

    0.2000               HF 

   => Correlation Functionals <=

    0.1900   Vosko, Wilk & Nusair (VWN5_RPA)
    0.8100   Lee, Yang & Parr

   => Molecular Quadrature <=

    Radial Scheme          =       TREUTLER
    Pruning Scheme         =           FLAT
    Nuclear Scheme         =       TREUTLER

    BS radius alpha        =              1
    Pruning alpha          =              1
    Radial Points          =             75
    Spherical Points       =            302
    Total Points           =         271800
    Total Blocks           =           2142
    Max Points             =            256
    Max Functions          =            150

   => Loading Basis Set <=

    Name: (6-31++G** AUX)
    Role: JKFIT
    Keyword: DF_BASIS_SCF
    atoms 1-6  entry C          line   154 file /home/akrom/software/anaconda3/envs/ffpenv/share/psi4/basis/aug-cc-pvdz-jkfit.gbs 
    atoms 7-12 entry H          line    70 file /home/akrom/software/anaconda3/envs/ffpenv/share/psi4/basis/aug-cc-pvdz-jkfit.gbs 

  ==> Pre-Iterations <==

   -------------------------------------------------------
    Irrep   Nso     Nmo     Nalpha   Nbeta   Ndocc  Nsocc
   -------------------------------------------------------
     Ag        57      57       0       0       0       0
     Bg        18      18       0       0       0       0
     Au        18      18       0       0       0       0
     Bu        57      57       0       0       0       0
   -------------------------------------------------------
    Total     150     150      21      21      21       0
   -------------------------------------------------------

  ==> Integral Setup <==

  DFHelper Memory: AOs need 0.145 GiB; user supplied 0.145 GiB. Using in-core AOs.

  ==> MemDFJK: Density-Fitted J/K Matrices <==

    J tasked:                   Yes
    K tasked:                   Yes
    wK tasked:                   No
    OpenMP threads:               1
    Memory [MiB]:               148
    Algorithm:                 Core
    Schwarz Cutoff:           1E-12
    Mask sparsity (%):       1.5200
    Fitting Condition:        1E-10

   => Auxiliary Basis Set <=

  Basis Set: (6-31++G** AUX)
    Blend: AUG-CC-PVDZ-JKFIT
    Number of shells: 240
    Number of basis function: 816
    Number of Cartesian functions: 816
    Spherical Harmonics?: false
    Max angular momentum: 3

  Cached 25.0% of DFT collocation blocks in 0.234 [GiB].

  Minimum eigenvalue in the overlap matrix is 1.5878528850E-06.
  Using Symmetric Orthogonalization.

  SCF Guess: Superposition of Atomic Densities via on-the-fly atomic UHF.

  ==> Iterations <==

                           Total Energy        Delta E     RMS |[F,P]|

   @DF-RKS iter SAD:  -231.54134300301413   -2.31541e+02   0.00000e+00 
   @DF-RKS iter   1:  -231.71638943858653   -1.75046e-01   1.13932e-02 DIIS
   @DF-RKS iter   2:  -231.26273441624500    4.53655e-01   1.56893e-02 DIIS
   @DF-RKS iter   3:  -232.26539831274525   -1.00266e+00   8.79833e-04 DIIS
   @DF-RKS iter   4:  -232.26781812524308   -2.41981e-03   2.05832e-04 DIIS
   @DF-RKS iter   5:  -232.26795882093720   -1.40696e-04   1.99083e-05 DIIS
   @DF-RKS iter   6:  -232.26796055438032   -1.73344e-06   5.48543e-07 DIIS
   @DF-RKS iter   7:  -232.26796055559197   -1.21165e-09   2.79774e-07 DIIS
  Energy and wave function converged.


  ==> Post-Iterations <==

    Orbital Energies [Eh]
    ---------------------

    Doubly Occupied:                                                      

       1Ag   -10.201496     1Bu   -10.201244     2Bu   -10.201239  
       2Ag   -10.200714     3Ag   -10.200709     3Bu   -10.200458  
       4Ag    -0.854205     4Bu    -0.748169     5Bu    -0.748166  
       5Ag    -0.605279     6Ag    -0.605270     7Ag    -0.523919  
       6Bu    -0.465841     7Bu    -0.447477     8Bu    -0.424613  
       9Bu    -0.424607     1Au    -0.368058     8Ag    -0.348763  
       9Ag    -0.348740     1Bg    -0.257139     2Bg    -0.257134  

    Virtual:                                                              

       2Au    -0.016913     3Au    -0.016900    10Ag    -0.008085  
      10Bu     0.010434    11Bu     0.010435    11Ag     0.033230  
      12Ag     0.033231    12Bu     0.061621     4Au     0.066717  
      13Ag     0.078944     3Bg     0.092014     4Bg     0.092020  
      13Bu     0.098600    14Ag     0.120021    15Ag     0.121514  
      16Ag     0.121516     5Bg     0.122707    14Bu     0.127825  
      15Bu     0.127826     5Au     0.142325     6Au     0.142335  
      16Bu     0.153722    17Bu     0.155024    18Bu     0.155029  
      17Ag     0.158325    18Ag     0.158326    19Bu     0.197293  
      20Bu     0.197296     6Bg     0.203244    19Ag     0.231126  
      20Ag     0.231136    21Ag     0.254295    22Ag     0.265370  
      21Bu     0.290845    22Bu     0.290862    23Bu     0.297328  
      23Ag     0.309400    24Ag     0.309406    24Bu     0.341685  
      25Ag     0.383254    26Ag     0.383263    25Bu     0.394959  
      26Bu     0.394971    27Ag     0.556193    27Bu     0.569518  
      28Bu     0.611273     7Au     0.658779    28Ag     0.669032  
       7Bg     0.717161     8Bg     0.717168    29Ag     0.719986  
      30Ag     0.719995     8Au     0.745347     9Au     0.745352  
      29Bu     0.783862    30Bu     0.783870     9Bg     0.798710  
      31Ag     0.886443    31Bu     0.953485    32Ag     0.970460  
      33Ag     0.986953    34Ag     0.986960    32Bu     0.998205  
      33Bu     0.998229    35Ag     1.027498    34Bu     1.090528  
      35Bu     1.090536    36Bu     1.128428    37Bu     1.128474  
      36Ag     1.181128    37Ag     1.181130    10Bg     1.250665  
      10Au     1.297287    38Bu     1.314388    11Bg     1.396822  
      12Bg     1.396830    11Au     1.416969    12Au     1.416991  
      38Ag     1.428281    39Ag     1.428314    40Ag     1.742193  
      39Bu     1.778915    41Ag     1.867838    40Bu     1.882865  
      41Bu     1.944679    42Bu     1.944683    13Au     1.977139  
      14Au     1.977145    42Ag     1.993940    43Ag     1.993960  
      13Bg     2.023295    43Bu     2.065041    44Bu     2.065070  
      14Bg     2.281031    15Bg     2.281072    15Au     2.357194  
      44Ag     2.369101    45Ag     2.369155    45Bu     2.394239  
      16Bg     2.400891    17Bg     2.400928    46Bu     2.477871  
      47Bu     2.477885    46Ag     2.507277    47Ag     2.507304  
      16Au     2.579959    17Au     2.579965    48Ag     2.621032  
      48Bu     2.622500    18Au     2.630871    18Bg     2.745342  
      49Ag     2.803734    50Ag     2.803755    49Bu     3.029600  
      50Bu     3.029632    51Bu     3.167776    51Ag     3.241424  
      52Bu     3.283927    53Bu     3.283946    52Ag     3.358193  
      53Ag     3.525934    54Ag     3.525945    54Bu     3.930543  
      55Ag     4.265882    55Bu     4.289266    56Bu     4.289282  
      56Ag     4.486603    57Ag     4.486612    57Bu     4.836512  

    Final Occupation by Irrep:
             Ag    Bg    Au    Bu 
    DOCC [     9,    2,    1,    9 ]

  @DF-RKS Final Energy:  -232.26796055559197

   => Energetics <=

    Nuclear Repulsion Energy =            202.0133089353801665
    One-Electron Energy =                -711.0986800086679978
    Two-Electron Energy =                 304.8969857231982701
    DFT Exchange-Correlation Energy =     -28.0795752055024224
    Empirical Dispersion Energy =           0.0000000000000000
    VV10 Nonlocal Energy =                  0.0000000000000000
    Total Energy =                       -232.2679605555919693

Computation Completed


Properties will be evaluated at   0.000000,   0.000000,   0.000000 [a0]

Properties computed using the SCF density matrix

  Nuclear Dipole Moment: [e a0]
     X:    -0.0000      Y:    -0.0000      Z:     0.0000

  Electronic Dipole Moment: [e a0]
     X:     0.0000      Y:     0.0000      Z:     0.0000

  Dipole Moment: [e a0]
     X:    -0.0000      Y:    -0.0000      Z:     0.0000     Total:     0.0000

  Dipole Moment: [D]
     X:    -0.0000      Y:    -0.0000      Z:     0.0000     Total:     0.0000


*** tstop() called on atlantis at Wed Apr 20 01:31:16 2022
Module time:
	user time   =      10.77 seconds =       0.18 minutes
	system time =       0.13 seconds =       0.00 minutes
	total time  =         11 seconds =       0.18 minutes
Total time:
	user time   =      10.77 seconds =       0.18 minutes
	system time =       0.13 seconds =       0.00 minutes
	total time  =         11 seconds =       0.18 minutes
gradient() will perform analytic gradient computation.

*** tstart() called on atlantis
*** at Wed Apr 20 01:31:16 2022

   => Loading Basis Set <=

    Name: 6-31++G**
    Role: ORBITAL
    Keyword: BASIS
    atoms 1-6  entry C          line   115 file /home/akrom/software/anaconda3/envs/ffpenv/share/psi4/basis/6-31ppgss.gbs 
    atoms 7-12 entry H          line    46 file /home/akrom/software/anaconda3/envs/ffpenv/share/psi4/basis/6-31ppgss.gbs 


         ---------------------------------------------------------
                                   SCF
               by Justin Turney, Rob Parrish, Andy Simmonett
                          and Daniel G. A. Smith
                              RKS Reference
                        1 Threads,    500 MiB Core
         ---------------------------------------------------------

  ==> Geometry <==

    Molecular point group: c2h
    Full point group: C2h

    Geometry (in Angstrom), charge = 0, multiplicity = 1:

       Center              X                  Y                   Z               Mass       
    ------------   -----------------  -----------------  -----------------  -----------------
         C           -1.221510000000    -0.693250000000     0.000000000000    12.000000000000
         C           -1.211140000000     0.711220000000     0.000000000000    12.000000000000
         C           -0.010370000000    -1.404520000000     0.000000000000    12.000000000000
         C            0.010370000000     1.404520000000     0.000000000000    12.000000000000
         C            1.211140000000    -0.711220000000     0.000000000000    12.000000000000
         C            1.221510000000     0.693250000000     0.000000000000    12.000000000000
         H           -2.173110000000    -1.233320000000     0.000000000000     1.007825032230
         H           -2.154640000000     1.265330000000     0.000000000000     1.007825032230
         H           -0.018480000000    -2.498650000000     0.000000000000     1.007825032230
         H            0.018480000000     2.498650000000     0.000000000000     1.007825032230
         H            2.154640000000    -1.265330000000     0.000000000000     1.007825032230
         H            2.173110000000     1.233320000000     0.000000000000     1.007825032230

  Running in c2h symmetry.

  Rotational constants: A =      0.18753  B =      0.18752  C =      0.09376 [cm^-1]
  Rotational constants: A =   5621.92707  B =   5621.82252  C =   2810.93740 [MHz]
  Nuclear repulsion =  202.013308935380167

  Charge       = 0
  Multiplicity = 1
  Electrons    = 42
  Nalpha       = 21
  Nbeta        = 21

  ==> Algorithm <==

  SCF Algorithm Type is DF.
  DIIS enabled.
  MOM disabled.
  Fractional occupation disabled.
  Guess Type is SAD.
  Energy threshold   = 1.00e-08
  Density threshold  = 1.00e-08
  Integral threshold = 0.00e+00

  ==> Primary Basis <==

  Basis Set: 6-31++G**
    Blend: 6-31++G**
    Number of shells: 72
    Number of basis function: 150
    Number of Cartesian functions: 150
    Spherical Harmonics?: false
    Max angular momentum: 2

  ==> DFT Potential <==

   => Composite Functional: B3LYP <= 

    B3LYP Hyb-GGA Exchange-Correlation Functional

    P. J. Stephens, F. J. Devlin, C. F. Chabalowski, and M. J. Frisch, J. Phys. Chem. 98, 11623 (1994)

    Deriv               =              1
    GGA                 =           TRUE
    Meta                =          FALSE

    Exchange Hybrid     =           TRUE
    MP2 Hybrid          =          FALSE

   => Exchange Functionals <=

    0.0800   Slater exchange
    0.7200         Becke 88

   => Exact (HF) Exchange <=

    0.2000               HF 

   => Correlation Functionals <=

    0.1900   Vosko, Wilk & Nusair (VWN5_RPA)
    0.8100   Lee, Yang & Parr

   => Molecular Quadrature <=

    Radial Scheme          =       TREUTLER
    Pruning Scheme         =           FLAT
    Nuclear Scheme         =       TREUTLER

    BS radius alpha        =              1
    Pruning alpha          =              1
    Radial Points          =             75
    Spherical Points       =            302
    Total Points           =         271800
    Total Blocks           =           2142
    Max Points             =            256
    Max Functions          =            150

   => Loading Basis Set <=

    Name: (6-31++G** AUX)
    Role: JKFIT
    Keyword: DF_BASIS_SCF
    atoms 1-6  entry C          line   154 file /home/akrom/software/anaconda3/envs/ffpenv/share/psi4/basis/aug-cc-pvdz-jkfit.gbs 
    atoms 7-12 entry H          line    70 file /home/akrom/software/anaconda3/envs/ffpenv/share/psi4/basis/aug-cc-pvdz-jkfit.gbs 

  ==> Pre-Iterations <==

   -------------------------------------------------------
    Irrep   Nso     Nmo     Nalpha   Nbeta   Ndocc  Nsocc
   -------------------------------------------------------
     Ag        57      57       0       0       0       0
     Bg        18      18       0       0       0       0
     Au        18      18       0       0       0       0
     Bu        57      57       0       0       0       0
   -------------------------------------------------------
    Total     150     150      21      21      21       0
   -------------------------------------------------------

  ==> Integral Setup <==

  DFHelper Memory: AOs need 0.145 GiB; user supplied 0.145 GiB. Using in-core AOs.

  ==> MemDFJK: Density-Fitted J/K Matrices <==

    J tasked:                   Yes
    K tasked:                   Yes
    wK tasked:                   No
    OpenMP threads:               1
    Memory [MiB]:               148
    Algorithm:                 Core
    Schwarz Cutoff:           1E-12
    Mask sparsity (%):       1.5200
    Fitting Condition:        1E-10

   => Auxiliary Basis Set <=

  Basis Set: (6-31++G** AUX)
    Blend: AUG-CC-PVDZ-JKFIT
    Number of shells: 240
    Number of basis function: 816
    Number of Cartesian functions: 816
    Spherical Harmonics?: false
    Max angular momentum: 3

  Cached 25.0% of DFT collocation blocks in 0.234 [GiB].

  Minimum eigenvalue in the overlap matrix is 1.5878528851E-06.
  Using Symmetric Orthogonalization.

  SCF Guess: Superposition of Atomic Densities via on-the-fly atomic UHF.

  ==> Iterations <==

                           Total Energy        Delta E     RMS |[F,P]|

   @DF-RKS iter SAD:  -231.54134300655861   -2.31541e+02   0.00000e+00 
   @DF-RKS iter   1:  -231.71638944244302   -1.75046e-01   1.13932e-02 DIIS
   @DF-RKS iter   2:  -231.26273442024112    4.53655e-01   1.56893e-02 DIIS
   @DF-RKS iter   3:  -232.26539831646534   -1.00266e+00   8.79833e-04 DIIS
   @DF-RKS iter   4:  -232.26781812896627   -2.41981e-03   2.05832e-04 DIIS
   @DF-RKS iter   5:  -232.26795882466064   -1.40696e-04   1.99083e-05 DIIS
   @DF-RKS iter   6:  -232.26796055810286   -1.73344e-06   5.48543e-07 DIIS
   @DF-RKS iter   7:  -232.26796055931530   -1.21244e-09   2.79774e-07 DIIS
   @DF-RKS iter   8:  -232.26796055954156   -2.26265e-10   1.18765e-07 DIIS
   @DF-RKS iter   9:  -232.26796055959142   -4.98517e-11   2.76556e-09 DIIS
  Energy and wave function converged.


  ==> Post-Iterations <==

    Orbital Energies [Eh]
    ---------------------

    Doubly Occupied:                                                      

       1Ag   -10.201495     1Bu   -10.201242     2Bu   -10.201241  
       2Ag   -10.200712     3Ag   -10.200711     3Bu   -10.200458  
       4Ag    -0.854205     4Bu    -0.748170     5Bu    -0.748166  
       5Ag    -0.605279     6Ag    -0.605270     7Ag    -0.523918  
       6Bu    -0.465841     7Bu    -0.447477     8Bu    -0.424612  
       9Bu    -0.424607     1Au    -0.368058     8Ag    -0.348763  
       9Ag    -0.348739     1Bg    -0.257140     2Bg    -0.257133  

    Virtual:                                                              

       2Au    -0.016913     3Au    -0.016901    10Ag    -0.008085  
      10Bu     0.010434    11Bu     0.010435    11Ag     0.033230  
      12Ag     0.033231    12Bu     0.061621     4Au     0.066717  
      13Ag     0.078944     3Bg     0.092014     4Bg     0.092020  
      13Bu     0.098600    14Ag     0.120021    15Ag     0.121514  
      16Ag     0.121516     5Bg     0.122707    14Bu     0.127825  
      15Bu     0.127826     5Au     0.142325     6Au     0.142335  
      16Bu     0.153719    17Bu     0.155024    18Bu     0.155029  
      17Ag     0.158325    18Ag     0.158326    19Bu     0.197293  
      20Bu     0.197296     6Bg     0.203244    19Ag     0.231127  
      20Ag     0.231137    21Ag     0.254295    22Ag     0.265369  
      21Bu     0.290845    22Bu     0.290862    23Bu     0.297319  
      23Ag     0.309400    24Ag     0.309406    24Bu     0.341684  
      25Ag     0.383255    26Ag     0.383264    25Bu     0.394960  
      26Bu     0.394971    27Ag     0.556193    27Bu     0.569518  
      28Bu     0.611273     7Au     0.658779    28Ag     0.669032  
       7Bg     0.717161     8Bg     0.717168    29Ag     0.719986  
      30Ag     0.719995     8Au     0.745348     9Au     0.745352  
      29Bu     0.783862    30Bu     0.783870     9Bg     0.798710  
      31Ag     0.886443    31Bu     0.953484    32Ag     0.970460  
      33Ag     0.986954    34Ag     0.986960    32Bu     0.998205  
      33Bu     0.998229    35Ag     1.027498    34Bu     1.090528  
      35Bu     1.090537    36Bu     1.128428    37Bu     1.128474  
      36Ag     1.181128    37Ag     1.181131    10Bg     1.250665  
      10Au     1.297287    38Bu     1.314387    11Bg     1.396823  
      12Bg     1.396830    11Au     1.416968    12Au     1.416991  
      38Ag     1.428281    39Ag     1.428314    40Ag     1.742193  
      39Bu     1.778916    41Ag     1.867838    40Bu     1.882865  
      41Bu     1.944680    42Bu     1.944683    13Au     1.977139  
      14Au     1.977145    42Ag     1.993940    43Ag     1.993960  
      13Bg     2.023295    43Bu     2.065042    44Bu     2.065070  
      14Bg     2.281032    15Bg     2.281071    15Au     2.357195  
      44Ag     2.369102    45Ag     2.369156    45Bu     2.394240  
      16Bg     2.400891    17Bg     2.400929    46Bu     2.477872  
      47Bu     2.477885    46Ag     2.507277    47Ag     2.507304  
      16Au     2.579960    17Au     2.579965    48Ag     2.621032  
      48Bu     2.622500    18Au     2.630871    18Bg     2.745342  
      49Ag     2.803734    50Ag     2.803756    49Bu     3.029600  
      50Bu     3.029632    51Bu     3.167776    51Ag     3.241425  
      52Bu     3.283927    53Bu     3.283947    52Ag     3.358193  
      53Ag     3.525935    54Ag     3.525945    54Bu     3.930543  
      55Ag     4.265883    55Bu     4.289267    56Bu     4.289282  
      56Ag     4.486604    57Ag     4.486611    57Bu     4.836513  

    Final Occupation by Irrep:
             Ag    Bg    Au    Bu 
    DOCC [     9,    2,    1,    9 ]

  @DF-RKS Final Energy:  -232.26796055959142

   => Energetics <=

    Nuclear Repulsion Energy =            202.0133089353801665
    One-Electron Energy =                -711.0986911122845413
    Two-Electron Energy =                 304.8969963992917656
    DFT Exchange-Correlation Energy =     -28.0795747819787849
    Empirical Dispersion Energy =           0.0000000000000000
    VV10 Nonlocal Energy =                  0.0000000000000000
    Total Energy =                       -232.2679605595913870

Computation Completed


Properties will be evaluated at   0.000000,   0.000000,   0.000000 [a0]

Properties computed using the SCF density matrix

  Nuclear Dipole Moment: [e a0]
     X:    -0.0000      Y:    -0.0000      Z:     0.0000

  Electronic Dipole Moment: [e a0]
     X:     0.0000      Y:     0.0000      Z:     0.0000

  Dipole Moment: [e a0]
     X:    -0.0000      Y:    -0.0000      Z:     0.0000     Total:     0.0000

  Dipole Moment: [D]
     X:    -0.0000      Y:    -0.0000      Z:     0.0000     Total:     0.0000


*** tstop() called on atlantis at Wed Apr 20 01:31:29 2022
Module time:
	user time   =      12.92 seconds =       0.22 minutes
	system time =       0.11 seconds =       0.00 minutes
	total time  =         13 seconds =       0.22 minutes
Total time:
	user time   =      23.70 seconds =       0.39 minutes
	system time =       0.24 seconds =       0.00 minutes
	total time  =         24 seconds =       0.40 minutes

*** tstart() called on atlantis
*** at Wed Apr 20 01:31:29 2022


         ------------------------------------------------------------
                                   SCF GRAD                          
                          Rob Parrish, Justin Turney,                
                       Andy Simmonett, and Alex Sokolov              
         ------------------------------------------------------------

  ==> Geometry <==

    Molecular point group: c2h
    Full point group: C2h

    Geometry (in Angstrom), charge = 0, multiplicity = 1:

       Center              X                  Y                   Z               Mass       
    ------------   -----------------  -----------------  -----------------  -----------------
         C           -1.221510000000    -0.693250000000     0.000000000000    12.000000000000
         C           -1.211140000000     0.711220000000     0.000000000000    12.000000000000
         C           -0.010370000000    -1.404520000000     0.000000000000    12.000000000000
         C            0.010370000000     1.404520000000     0.000000000000    12.000000000000
         C            1.211140000000    -0.711220000000     0.000000000000    12.000000000000
         C            1.221510000000     0.693250000000     0.000000000000    12.000000000000
         H           -2.173110000000    -1.233320000000     0.000000000000     1.007825032230
         H           -2.154640000000     1.265330000000     0.000000000000     1.007825032230
         H           -0.018480000000    -2.498650000000     0.000000000000     1.007825032230
         H            0.018480000000     2.498650000000     0.000000000000     1.007825032230
         H            2.154640000000    -1.265330000000     0.000000000000     1.007825032230
         H            2.173110000000     1.233320000000     0.000000000000     1.007825032230

  Nuclear repulsion =  202.013308935380167

  ==> Basis Set <==

  Basis Set: 6-31++G**
    Blend: 6-31++G**
    Number of shells: 72
    Number of basis function: 150
    Number of Cartesian functions: 150
    Spherical Harmonics?: false
    Max angular momentum: 2

  ==> DFJKGrad: Density-Fitted SCF Gradients <==

    Gradient:                    1
    J tasked:                  Yes
    K tasked:                  Yes
    wK tasked:                  No
    OpenMP threads:              1
    Integrals threads:           1
    Memory [MiB]:              375
    Schwarz Cutoff:          0E+00
    Fitting Condition:       1E-10

   => Auxiliary Basis Set <=

  Basis Set: (6-31++G** AUX)
    Blend: AUG-CC-PVDZ-JKFIT
    Number of shells: 240
    Number of basis function: 816
    Number of Cartesian functions: 816
    Spherical Harmonics?: false
    Max angular momentum: 3

  ==> DFT Potential <==

   => Composite Functional: B3LYP <= 

    B3LYP Hyb-GGA Exchange-Correlation Functional

    P. J. Stephens, F. J. Devlin, C. F. Chabalowski, and M. J. Frisch, J. Phys. Chem. 98, 11623 (1994)

    Deriv               =              1
    GGA                 =           TRUE
    Meta                =          FALSE

    Exchange Hybrid     =           TRUE
    MP2 Hybrid          =          FALSE

   => Exchange Functionals <=

    0.0800   Slater exchange
    0.7200         Becke 88

   => Exact (HF) Exchange <=

    0.2000               HF 

   => Correlation Functionals <=

    0.1900   Vosko, Wilk & Nusair (VWN5_RPA)
    0.8100   Lee, Yang & Parr

   => Molecular Quadrature <=

    Radial Scheme          =       TREUTLER
    Pruning Scheme         =           FLAT
    Nuclear Scheme         =       TREUTLER

    BS radius alpha        =              1
    Pruning alpha          =              1
    Radial Points          =             75
    Spherical Points       =            302
    Total Points           =         271800
    Total Blocks           =           2142
    Max Points             =            256
    Max Functions          =            150


  -Total Gradient:
     Atom            X                  Y                   Z
    ------   -----------------  -----------------  -----------------
       1       -0.000613970968    -0.000308931644     0.000000000000
       2       -0.000593072233     0.000304080187     0.000000000000
       3        0.000000403172    -0.000746035494     0.000000000000
       4       -0.000000403172     0.000746035494     0.000000000000
       5        0.000593072233    -0.000304080187     0.000000000000
       6        0.000613970968     0.000308931644     0.000000000000
       7       -0.004602968954    -0.002613482911     0.000000000000
       8       -0.004564287297     0.002686947564     0.000000000000
       9       -0.000042643723    -0.005285689553     0.000000000000
      10        0.000042643723     0.005285689553     0.000000000000
      11        0.004564287297    -0.002686947564     0.000000000000
      12        0.004602968954     0.002613482911     0.000000000000


*** tstop() called on atlantis at Wed Apr 20 01:31:34 2022
Module time:
	user time   =       4.08 seconds =       0.07 minutes
	system time =       0.06 seconds =       0.00 minutes
	total time  =          5 seconds =       0.08 minutes
Total time:
	user time   =      27.78 seconds =       0.46 minutes
	system time =       0.30 seconds =       0.01 minutes
	total time  =         29 seconds =       0.48 minutes

  Based on options and gradient (rms=2.18E-03), recommend projecting translations and projecting rotations.
hessian() will perform frequency computation by finite difference of analytic gradients.

         ----------------------------------------------------------
                                   FINDIF
                     R. A. King and Jonathon Misiewicz
         ---------------------------------------------------------

  Using finite-differences of gradients to determine vibrational frequencies and 
  normal modes.  Resulting frequencies are only valid at stationary points.
    Generating geometries for use with 3-point formula.
    Displacement size will be 5.00e-03.
    Number of atoms is 12.
    Number of irreps is 4.
    Number of SALCs is 30.
    Translations projected? 1. Rotations projected? 1.
    Index of SALCs per irrep:
     1 :  0  1  2  3  4  5  6  7  8  9  10 
     2 :  11  12  13  14 
     3 :  15  16  17  18  19 
     4 :  20  21  22  23  24  25  26  27  28  29 
    Number of SALCs per irrep:
     Irrep 1: 11
     Irrep 2: 4
     Irrep 3: 5
     Irrep 4: 10
    Number of geometries (including reference) is 42.
    Number of displacements per irrep:
      Irrep 1: 22
      Irrep 2: 4
      Irrep 3: 5
      Irrep 4: 10

  //>>>>>>>>>>>>>>>>>>>>>>>>>>>>>>>>>>>//
  //    Loading displacement 1 of 42   //
  //<<<<<<<<<<<<<<<<<<<<<<<<<<<<<<<<<<<//
gradient() will perform analytic gradient computation.

*** tstart() called on atlantis
*** at Wed Apr 20 01:31:34 2022

   => Loading Basis Set <=

    Name: 6-31++G**
    Role: ORBITAL
    Keyword: BASIS
    atoms 1-6  entry C          line   115 file /home/akrom/software/anaconda3/envs/ffpenv/share/psi4/basis/6-31ppgss.gbs 
    atoms 7-12 entry H          line    46 file /home/akrom/software/anaconda3/envs/ffpenv/share/psi4/basis/6-31ppgss.gbs 


         ---------------------------------------------------------
                                   SCF
               by Justin Turney, Rob Parrish, Andy Simmonett
                          and Daniel G. A. Smith
                              RKS Reference
                        1 Threads,    500 MiB Core
         ---------------------------------------------------------

  ==> Geometry <==

    Molecular point group: c2h
    Full point group: C2h

    Geometry (in Angstrom), charge = 0, multiplicity = 1:

       Center              X                  Y                   Z               Mass       
    ------------   -----------------  -----------------  -----------------  -----------------
         C           -1.221510000000    -0.693250000000     0.000000000000    12.000000000000
         C           -1.211140000000     0.711220000000     0.000000000000    12.000000000000
         C           -0.010370000000    -1.404520000000     0.000000000000    12.000000000000
         C            0.010370000000     1.404520000000     0.000000000000    12.000000000000
         C            1.211140000000    -0.711220000000     0.000000000000    12.000000000000
         C            1.221510000000     0.693250000000     0.000000000000    12.000000000000
         H           -2.173110000000    -1.233320000000     0.000000000000     1.007825032230
         H           -2.154640000000     1.265330000000     0.000000000000     1.007825032230
         H           -0.018480000000    -2.498650000000     0.000000000000     1.007825032230
         H            0.018480000000     2.498650000000     0.000000000000     1.007825032230
         H            2.154640000000    -1.265330000000     0.000000000000     1.007825032230
         H            2.173110000000     1.233320000000     0.000000000000     1.007825032230

  Running in c2h symmetry.

  Rotational constants: A =      0.18753  B =      0.18752  C =      0.09376 [cm^-1]
  Rotational constants: A =   5621.92707  B =   5621.82252  C =   2810.93740 [MHz]
  Nuclear repulsion =  202.013308935380167

  Charge       = 0
  Multiplicity = 1
  Electrons    = 42
  Nalpha       = 21
  Nbeta        = 21

  ==> Algorithm <==

  SCF Algorithm Type is DF.
  DIIS enabled.
  MOM disabled.
  Fractional occupation disabled.
  Guess Type is SAD.
  Energy threshold   = 1.00e-08
  Density threshold  = 1.00e-08
  Integral threshold = 0.00e+00

  ==> Primary Basis <==

  Basis Set: 6-31++G**
    Blend: 6-31++G**
    Number of shells: 72
    Number of basis function: 150
    Number of Cartesian functions: 150
    Spherical Harmonics?: false
    Max angular momentum: 2

  ==> DFT Potential <==

   => Composite Functional: B3LYP <= 

    B3LYP Hyb-GGA Exchange-Correlation Functional

    P. J. Stephens, F. J. Devlin, C. F. Chabalowski, and M. J. Frisch, J. Phys. Chem. 98, 11623 (1994)

    Deriv               =              1
    GGA                 =           TRUE
    Meta                =          FALSE

    Exchange Hybrid     =           TRUE
    MP2 Hybrid          =          FALSE

   => Exchange Functionals <=

    0.0800   Slater exchange
    0.7200         Becke 88

   => Exact (HF) Exchange <=

    0.2000               HF 

   => Correlation Functionals <=

    0.1900   Vosko, Wilk & Nusair (VWN5_RPA)
    0.8100   Lee, Yang & Parr

   => Molecular Quadrature <=

    Radial Scheme          =       TREUTLER
    Pruning Scheme         =           FLAT
    Nuclear Scheme         =       TREUTLER

    BS radius alpha        =              1
    Pruning alpha          =              1
    Radial Points          =             75
    Spherical Points       =            302
    Total Points           =         271800
    Total Blocks           =           2142
    Max Points             =            256
    Max Functions          =            150

   => Loading Basis Set <=

    Name: (6-31++G** AUX)
    Role: JKFIT
    Keyword: DF_BASIS_SCF
    atoms 1-6  entry C          line   154 file /home/akrom/software/anaconda3/envs/ffpenv/share/psi4/basis/aug-cc-pvdz-jkfit.gbs 
    atoms 7-12 entry H          line    70 file /home/akrom/software/anaconda3/envs/ffpenv/share/psi4/basis/aug-cc-pvdz-jkfit.gbs 

  ==> Pre-Iterations <==

   -------------------------------------------------------
    Irrep   Nso     Nmo     Nalpha   Nbeta   Ndocc  Nsocc
   -------------------------------------------------------
     Ag        57      57       0       0       0       0
     Bg        18      18       0       0       0       0
     Au        18      18       0       0       0       0
     Bu        57      57       0       0       0       0
   -------------------------------------------------------
    Total     150     150      21      21      21       0
   -------------------------------------------------------

  ==> Integral Setup <==

  DFHelper Memory: AOs need 0.145 GiB; user supplied 0.145 GiB. Using in-core AOs.

  ==> MemDFJK: Density-Fitted J/K Matrices <==

    J tasked:                   Yes
    K tasked:                   Yes
    wK tasked:                   No
    OpenMP threads:               1
    Memory [MiB]:               148
    Algorithm:                 Core
    Schwarz Cutoff:           1E-12
    Mask sparsity (%):       1.5200
    Fitting Condition:        1E-10

   => Auxiliary Basis Set <=

  Basis Set: (6-31++G** AUX)
    Blend: AUG-CC-PVDZ-JKFIT
    Number of shells: 240
    Number of basis function: 816
    Number of Cartesian functions: 816
    Spherical Harmonics?: false
    Max angular momentum: 3

  Cached 25.0% of DFT collocation blocks in 0.234 [GiB].

  Minimum eigenvalue in the overlap matrix is 1.5878528850E-06.
  Using Symmetric Orthogonalization.

  SCF Guess: Superposition of Atomic Densities via on-the-fly atomic UHF.

  ==> Iterations <==

                           Total Energy        Delta E     RMS |[F,P]|

   @DF-RKS iter SAD:  -231.54134300165191   -2.31541e+02   0.00000e+00 
   @DF-RKS iter   1:  -231.71638943709385   -1.75046e-01   1.13932e-02 DIIS
   @DF-RKS iter   2:  -231.26273441469056    4.53655e-01   1.56893e-02 DIIS
   @DF-RKS iter   3:  -232.26539831137845   -1.00266e+00   8.79833e-04 DIIS
   @DF-RKS iter   4:  -232.26781812387287   -2.41981e-03   2.05832e-04 DIIS
   @DF-RKS iter   5:  -232.26795881956676   -1.40696e-04   1.99083e-05 DIIS
   @DF-RKS iter   6:  -232.26796055300954   -1.73344e-06   5.48543e-07 DIIS
   @DF-RKS iter   7:  -232.26796055422164   -1.21210e-09   2.79773e-07 DIIS
   @DF-RKS iter   8:  -232.26796055444817   -2.26521e-10   1.18766e-07 DIIS
   @DF-RKS iter   9:  -232.26796055449762   -4.94538e-11   2.76556e-09 DIIS
  Energy and wave function converged.


  ==> Post-Iterations <==

    Orbital Energies [Eh]
    ---------------------

    Doubly Occupied:                                                      

       1Ag   -10.201495     1Bu   -10.201242     2Bu   -10.201241  
       2Ag   -10.200712     3Ag   -10.200711     3Bu   -10.200458  
       4Ag    -0.854205     4Bu    -0.748170     5Bu    -0.748166  
       5Ag    -0.605279     6Ag    -0.605270     7Ag    -0.523918  
       6Bu    -0.465841     7Bu    -0.447477     8Bu    -0.424612  
       9Bu    -0.424607     1Au    -0.368058     8Ag    -0.348763  
       9Ag    -0.348739     1Bg    -0.257140     2Bg    -0.257133  

    Virtual:                                                              

       2Au    -0.016913     3Au    -0.016901    10Ag    -0.008085  
      10Bu     0.010434    11Bu     0.010435    11Ag     0.033230  
      12Ag     0.033231    12Bu     0.061621     4Au     0.066717  
      13Ag     0.078944     3Bg     0.092014     4Bg     0.092020  
      13Bu     0.098600    14Ag     0.120021    15Ag     0.121514  
      16Ag     0.121516     5Bg     0.122707    14Bu     0.127825  
      15Bu     0.127826     5Au     0.142325     6Au     0.142335  
      16Bu     0.153724    17Bu     0.155024    18Bu     0.155029  
      17Ag     0.158325    18Ag     0.158326    19Bu     0.197293  
      20Bu     0.197296     6Bg     0.203244    19Ag     0.231126  
      20Ag     0.231137    21Ag     0.254295    22Ag     0.265369  
      21Bu     0.290845    22Bu     0.290862    23Bu     0.297336  
      23Ag     0.309400    24Ag     0.309406    24Bu     0.341686  
      25Ag     0.383255    26Ag     0.383263    25Bu     0.394960  
      26Bu     0.394971    27Ag     0.556193    27Bu     0.569518  
      28Bu     0.611274     7Au     0.658779    28Ag     0.669032  
       7Bg     0.717161     8Bg     0.717168    29Ag     0.719986  
      30Ag     0.719995     8Au     0.745348     9Au     0.745352  
      29Bu     0.783862    30Bu     0.783870     9Bg     0.798710  
      31Ag     0.886443    31Bu     0.953487    32Ag     0.970460  
      33Ag     0.986954    34Ag     0.986960    32Bu     0.998205  
      33Bu     0.998229    35Ag     1.027498    34Bu     1.090528  
      35Bu     1.090537    36Bu     1.128428    37Bu     1.128474  
      36Ag     1.181128    37Ag     1.181131    10Bg     1.250665  
      10Au     1.297287    38Bu     1.314389    11Bg     1.396823  
      12Bg     1.396830    11Au     1.416968    12Au     1.416991  
      38Ag     1.428281    39Ag     1.428314    40Ag     1.742193  
      39Bu     1.778916    41Ag     1.867838    40Bu     1.882866  
      41Bu     1.944680    42Bu     1.944683    13Au     1.977139  
      14Au     1.977145    42Ag     1.993940    43Ag     1.993960  
      13Bg     2.023295    43Bu     2.065042    44Bu     2.065070  
      14Bg     2.281032    15Bg     2.281071    15Au     2.357195  
      44Ag     2.369102    45Ag     2.369156    45Bu     2.394240  
      16Bg     2.400891    17Bg     2.400929    46Bu     2.477872  
      47Bu     2.477885    46Ag     2.507277    47Ag     2.507304  
      16Au     2.579960    17Au     2.579965    48Ag     2.621032  
      48Bu     2.622500    18Au     2.630871    18Bg     2.745342  
      49Ag     2.803734    50Ag     2.803756    49Bu     3.029600  
      50Bu     3.029632    51Bu     3.167776    51Ag     3.241425  
      52Bu     3.283927    53Bu     3.283947    52Ag     3.358193  
      53Ag     3.525935    54Ag     3.525945    54Bu     3.930544  
      55Ag     4.265883    55Bu     4.289267    56Bu     4.289282  
      56Ag     4.486604    57Ag     4.486611    57Bu     4.836513  

    Final Occupation by Irrep:
             Ag    Bg    Au    Bu 
    DOCC [     9,    2,    1,    9 ]

  @DF-RKS Final Energy:  -232.26796055449762

   => Energetics <=

    Nuclear Repulsion Energy =            202.0133089353801665
    One-Electron Energy =                -711.0986911099034842
    Two-Electron Energy =                 304.8969964017845200
    DFT Exchange-Correlation Energy =     -28.0795747817588008
    Empirical Dispersion Energy =           0.0000000000000000
    VV10 Nonlocal Energy =                  0.0000000000000000
    Total Energy =                       -232.2679605544975914

Computation Completed


Properties will be evaluated at   0.000000,   0.000000,   0.000000 [a0]

Properties computed using the SCF density matrix

  Nuclear Dipole Moment: [e a0]
     X:    -0.0000      Y:    -0.0000      Z:     0.0000

  Electronic Dipole Moment: [e a0]
     X:     0.0000      Y:     0.0000      Z:     0.0000

  Dipole Moment: [e a0]
     X:    -0.0000      Y:    -0.0000      Z:     0.0000     Total:     0.0000

  Dipole Moment: [D]
     X:    -0.0000      Y:    -0.0000      Z:     0.0000     Total:     0.0000


*** tstop() called on atlantis at Wed Apr 20 01:31:47 2022
Module time:
	user time   =      12.93 seconds =       0.22 minutes
	system time =       0.07 seconds =       0.00 minutes
	total time  =         13 seconds =       0.22 minutes
Total time:
	user time   =      40.99 seconds =       0.68 minutes
	system time =       0.38 seconds =       0.01 minutes
	total time  =         42 seconds =       0.70 minutes

*** tstart() called on atlantis
*** at Wed Apr 20 01:31:47 2022


         ------------------------------------------------------------
                                   SCF GRAD                          
                          Rob Parrish, Justin Turney,                
                       Andy Simmonett, and Alex Sokolov              
         ------------------------------------------------------------

  ==> Geometry <==

    Molecular point group: c2h
    Full point group: C2h

    Geometry (in Angstrom), charge = 0, multiplicity = 1:

       Center              X                  Y                   Z               Mass       
    ------------   -----------------  -----------------  -----------------  -----------------
         C           -1.221510000000    -0.693250000000     0.000000000000    12.000000000000
         C           -1.211140000000     0.711220000000     0.000000000000    12.000000000000
         C           -0.010370000000    -1.404520000000     0.000000000000    12.000000000000
         C            0.010370000000     1.404520000000     0.000000000000    12.000000000000
         C            1.211140000000    -0.711220000000     0.000000000000    12.000000000000
         C            1.221510000000     0.693250000000     0.000000000000    12.000000000000
         H           -2.173110000000    -1.233320000000     0.000000000000     1.007825032230
         H           -2.154640000000     1.265330000000     0.000000000000     1.007825032230
         H           -0.018480000000    -2.498650000000     0.000000000000     1.007825032230
         H            0.018480000000     2.498650000000     0.000000000000     1.007825032230
         H            2.154640000000    -1.265330000000     0.000000000000     1.007825032230
         H            2.173110000000     1.233320000000     0.000000000000     1.007825032230

  Nuclear repulsion =  202.013308935380167

  ==> Basis Set <==

  Basis Set: 6-31++G**
    Blend: 6-31++G**
    Number of shells: 72
    Number of basis function: 150
    Number of Cartesian functions: 150
    Spherical Harmonics?: false
    Max angular momentum: 2

  ==> DFJKGrad: Density-Fitted SCF Gradients <==

    Gradient:                    1
    J tasked:                  Yes
    K tasked:                  Yes
    wK tasked:                  No
    OpenMP threads:              1
    Integrals threads:           1
    Memory [MiB]:              375
    Schwarz Cutoff:          0E+00
    Fitting Condition:       1E-10

   => Auxiliary Basis Set <=

  Basis Set: (6-31++G** AUX)
    Blend: AUG-CC-PVDZ-JKFIT
    Number of shells: 240
    Number of basis function: 816
    Number of Cartesian functions: 816
    Spherical Harmonics?: false
    Max angular momentum: 3

  ==> DFT Potential <==

   => Composite Functional: B3LYP <= 

    B3LYP Hyb-GGA Exchange-Correlation Functional

    P. J. Stephens, F. J. Devlin, C. F. Chabalowski, and M. J. Frisch, J. Phys. Chem. 98, 11623 (1994)

    Deriv               =              1
    GGA                 =           TRUE
    Meta                =          FALSE

    Exchange Hybrid     =           TRUE
    MP2 Hybrid          =          FALSE

   => Exchange Functionals <=

    0.0800   Slater exchange
    0.7200         Becke 88

   => Exact (HF) Exchange <=

    0.2000               HF 

   => Correlation Functionals <=

    0.1900   Vosko, Wilk & Nusair (VWN5_RPA)
    0.8100   Lee, Yang & Parr

   => Molecular Quadrature <=

    Radial Scheme          =       TREUTLER
    Pruning Scheme         =           FLAT
    Nuclear Scheme         =       TREUTLER

    BS radius alpha        =              1
    Pruning alpha          =              1
    Radial Points          =             75
    Spherical Points       =            302
    Total Points           =         271800
    Total Blocks           =           2142
    Max Points             =            256
    Max Functions          =            150


  -Total Gradient:
     Atom            X                  Y                   Z
    ------   -----------------  -----------------  -----------------
       1       -0.000612916284    -0.000308276431     0.000000000000
       2       -0.000591992258     0.000303472993     0.000000000000
       3        0.000000483302    -0.000744799121     0.000000000000
       4       -0.000000483302     0.000744799121     0.000000000000
       5        0.000591992258    -0.000303472993     0.000000000000
       6        0.000612916284     0.000308276431     0.000000000000
       7       -0.004603045320    -0.002613585427     0.000000000000
       8       -0.004564369079     0.002687002858     0.000000000000
       9       -0.000042686807    -0.005285775852     0.000000000000
      10        0.000042686807     0.005285775852     0.000000000000
      11        0.004564369079    -0.002687002858     0.000000000000
      12        0.004603045320     0.002613585427     0.000000000000


*** tstop() called on atlantis at Wed Apr 20 01:31:51 2022
Module time:
	user time   =       4.07 seconds =       0.07 minutes
	system time =       0.08 seconds =       0.00 minutes
	total time  =          4 seconds =       0.07 minutes
Total time:
	user time   =      45.06 seconds =       0.75 minutes
	system time =       0.46 seconds =       0.01 minutes
	total time  =         46 seconds =       0.77 minutes

  //>>>>>>>>>>>>>>>>>>>>>>>>>>>>>>>>>>>//
  //    Loading displacement 2 of 42   //
  //<<<<<<<<<<<<<<<<<<<<<<<<<<<<<<<<<<<//
gradient() will perform analytic gradient computation.

*** tstart() called on atlantis
*** at Wed Apr 20 01:31:51 2022

   => Loading Basis Set <=

    Name: 6-31++G**
    Role: ORBITAL
    Keyword: BASIS
    atoms 1-6  entry C          line   115 file /home/akrom/software/anaconda3/envs/ffpenv/share/psi4/basis/6-31ppgss.gbs 
    atoms 7-12 entry H          line    46 file /home/akrom/software/anaconda3/envs/ffpenv/share/psi4/basis/6-31ppgss.gbs 


         ---------------------------------------------------------
                                   SCF
               by Justin Turney, Rob Parrish, Andy Simmonett
                          and Daniel G. A. Smith
                              RKS Reference
                        1 Threads,    500 MiB Core
         ---------------------------------------------------------

  ==> Geometry <==

    Molecular point group: c2h
    Full point group: C2h

    Geometry (in Angstrom), charge = 0, multiplicity = 1:

       Center              X                  Y                   Z               Mass       
    ------------   -----------------  -----------------  -----------------  -----------------
         C           -1.222032477591    -0.693313109608     0.000000000000    12.000000000000
         C           -1.211176745353     0.711157426160     0.000000000000    12.000000000000
         C           -0.010297435136    -1.404520535769     0.000000000000    12.000000000000
         C            0.010297435136     1.404520535769     0.000000000000    12.000000000000
         C            1.211176745353    -0.711157426160     0.000000000000    12.000000000000
         C            1.222032477591     0.693313109608     0.000000000000    12.000000000000
         H           -2.173046280225    -1.233432274252     0.000000000000     1.007825032230
         H           -2.154705373579     1.265218680005     0.000000000000     1.007825032230
         H           -0.018350906646    -2.498650954774     0.000000000000     1.007825032230
         H            0.018350906646     2.498650954774     0.000000000000     1.007825032230
         H            2.154705373579    -1.265218680005     0.000000000000     1.007825032230
         H            2.173046280225     1.233432274252     0.000000000000     1.007825032230

  Running in c2h symmetry.

  Rotational constants: A =      0.18753  B =      0.18745  C =      0.09375 [cm^-1]
  Rotational constants: A =   5621.97670  B =   5619.72613  C =   2810.42560 [MHz]
  Nuclear repulsion =  201.998047561272216

  Charge       = 0
  Multiplicity = 1
  Electrons    = 42
  Nalpha       = 21
  Nbeta        = 21

  ==> Algorithm <==

  SCF Algorithm Type is DF.
  DIIS enabled.
  MOM disabled.
  Fractional occupation disabled.
  Guess Type is SAD.
  Energy threshold   = 1.00e-08
  Density threshold  = 1.00e-08
  Integral threshold = 0.00e+00

  ==> Primary Basis <==

  Basis Set: 6-31++G**
    Blend: 6-31++G**
    Number of shells: 72
    Number of basis function: 150
    Number of Cartesian functions: 150
    Spherical Harmonics?: false
    Max angular momentum: 2

  ==> DFT Potential <==

   => Composite Functional: B3LYP <= 

    B3LYP Hyb-GGA Exchange-Correlation Functional

    P. J. Stephens, F. J. Devlin, C. F. Chabalowski, and M. J. Frisch, J. Phys. Chem. 98, 11623 (1994)

    Deriv               =              1
    GGA                 =           TRUE
    Meta                =          FALSE

    Exchange Hybrid     =           TRUE
    MP2 Hybrid          =          FALSE

   => Exchange Functionals <=

    0.0800   Slater exchange
    0.7200         Becke 88

   => Exact (HF) Exchange <=

    0.2000               HF 

   => Correlation Functionals <=

    0.1900   Vosko, Wilk & Nusair (VWN5_RPA)
    0.8100   Lee, Yang & Parr

   => Molecular Quadrature <=

    Radial Scheme          =       TREUTLER
    Pruning Scheme         =           FLAT
    Nuclear Scheme         =       TREUTLER

    BS radius alpha        =              1
    Pruning alpha          =              1
    Radial Points          =             75
    Spherical Points       =            302
    Total Points           =         271800
    Total Blocks           =           2142
    Max Points             =            256
    Max Functions          =            150

   => Loading Basis Set <=

    Name: (6-31++G** AUX)
    Role: JKFIT
    Keyword: DF_BASIS_SCF
    atoms 1-6  entry C          line   154 file /home/akrom/software/anaconda3/envs/ffpenv/share/psi4/basis/aug-cc-pvdz-jkfit.gbs 
    atoms 7-12 entry H          line    70 file /home/akrom/software/anaconda3/envs/ffpenv/share/psi4/basis/aug-cc-pvdz-jkfit.gbs 

  ==> Pre-Iterations <==

   -------------------------------------------------------
    Irrep   Nso     Nmo     Nalpha   Nbeta   Ndocc  Nsocc
   -------------------------------------------------------
     Ag        57      57       0       0       0       0
     Bg        18      18       0       0       0       0
     Au        18      18       0       0       0       0
     Bu        57      57       0       0       0       0
   -------------------------------------------------------
    Total     150     150      21      21      21       0
   -------------------------------------------------------

  ==> Integral Setup <==

  DFHelper Memory: AOs need 0.145 GiB; user supplied 0.145 GiB. Using in-core AOs.

  ==> MemDFJK: Density-Fitted J/K Matrices <==

    J tasked:                   Yes
    K tasked:                   Yes
    wK tasked:                   No
    OpenMP threads:               1
    Memory [MiB]:               148
    Algorithm:                 Core
    Schwarz Cutoff:           1E-12
    Mask sparsity (%):       1.5200
    Fitting Condition:        1E-10

   => Auxiliary Basis Set <=

  Basis Set: (6-31++G** AUX)
    Blend: AUG-CC-PVDZ-JKFIT
    Number of shells: 240
    Number of basis function: 816
    Number of Cartesian functions: 816
    Spherical Harmonics?: false
    Max angular momentum: 3

  Cached 25.0% of DFT collocation blocks in 0.231 [GiB].

  Minimum eigenvalue in the overlap matrix is 1.5897966732E-06.
  Using Symmetric Orthogonalization.

  SCF Guess: Superposition of Atomic Densities via on-the-fly atomic UHF.

  ==> Iterations <==

                           Total Energy        Delta E     RMS |[F,P]|

   @DF-RKS iter SAD:  -231.54063582982718   -2.31541e+02   0.00000e+00 
   @DF-RKS iter   1:  -231.71675882009794   -1.76123e-01   1.13893e-02 DIIS
   @DF-RKS iter   2:  -231.26421154419731    4.52547e-01   1.56776e-02 DIIS
   @DF-RKS iter   3:  -232.26540750965688   -1.00120e+00   8.79843e-04 DIIS
   @DF-RKS iter   4:  -232.26782776787337   -2.42026e-03   2.05695e-04 DIIS
   @DF-RKS iter   5:  -232.26796828664030   -1.40519e-04   2.00079e-05 DIIS
   @DF-RKS iter   6:  -232.26797000529797   -1.71866e-06   2.87094e-06 DIIS
   @DF-RKS iter   7:  -232.26797001262290   -7.32493e-09   2.49983e-06 DIIS
   @DF-RKS iter   8:  -232.26797003434893   -2.17260e-08   2.51859e-08 DIIS
   @DF-RKS iter   9:  -232.26797003435311   -4.17799e-12   2.69090e-09 DIIS
  Energy and wave function converged.


  ==> Post-Iterations <==

    Orbital Energies [Eh]
    ---------------------

    Doubly Occupied:                                                      

       1Ag   -10.201522     1Bu   -10.201280     2Bu   -10.201257  
       2Ag   -10.200750     3Ag   -10.200727     3Bu   -10.200485  
       4Ag    -0.854138     4Bu    -0.748196     5Bu    -0.748084  
       5Ag    -0.605351     6Ag    -0.605215     7Ag    -0.523924  
       6Bu    -0.465926     7Bu    -0.447433     8Bu    -0.424685  
       9Bu    -0.424548     1Au    -0.368011     8Ag    -0.348905  
       9Ag    -0.348645     1Bg    -0.257166     2Bg    -0.257060  

    Virtual:                                                              

       2Au    -0.017008     3Au    -0.016872    10Ag    -0.008078  
      10Bu     0.010437    11Bu     0.010441    11Ag     0.033226  
      12Ag     0.033232    12Bu     0.061622     4Au     0.066705  
      13Ag     0.078933     3Bg     0.092023     4Bg     0.092028  
      13Bu     0.098605    14Ag     0.120037    15Ag     0.121503  
      16Ag     0.121517     5Bg     0.122656    14Bu     0.127830  
      15Bu     0.127862     5Au     0.142323     6Au     0.142332  
      16Bu     0.153728    17Bu     0.155023    18Bu     0.155039  
      17Ag     0.158324    18Ag     0.158335    19Bu     0.197270  
      20Bu     0.197304     6Bg     0.203207    19Ag     0.231123  
      20Ag     0.231131    21Ag     0.254254    22Ag     0.265365  
      21Bu     0.290751    22Bu     0.290957    23Bu     0.297325  
      23Ag     0.309243    24Ag     0.309390    24Bu     0.341688  
      25Ag     0.383253    26Ag     0.383330    25Bu     0.394840  
      26Bu     0.395004    27Ag     0.556032    27Bu     0.569565  
      28Bu     0.611067     7Au     0.658744    28Ag     0.668779  
       7Bg     0.717158     8Bg     0.717218    29Ag     0.719830  
      30Ag     0.720034     8Au     0.745332     9Au     0.745354  
      29Bu     0.783766    30Bu     0.783903     9Bg     0.798699  
      31Ag     0.886387    31Bu     0.953546    32Ag     0.970364  
      33Ag     0.986988    34Ag     0.987100    32Bu     0.998206  
      33Bu     0.998461    35Ag     1.027540    34Bu     1.090466  
      35Bu     1.090568    36Bu     1.128322    37Bu     1.128454  
      36Ag     1.181059    37Ag     1.181102    10Bg     1.250672  
      10Au     1.297325    38Bu     1.314284    11Bg     1.396711  
      12Bg     1.396867    11Au     1.416802    12Au     1.417048  
      38Ag     1.428214    39Ag     1.428354    40Ag     1.742259  
      39Bu     1.778730    41Ag     1.867860    40Bu     1.882781  
      41Bu     1.944727    42Bu     1.944943    13Au     1.976953  
      14Au     1.977125    42Ag     1.993573    43Ag     1.993826  
      13Bg     2.023132    43Bu     2.064725    44Bu     2.064931  
      14Bg     2.280646    15Bg     2.281144    15Au     2.357355  
      44Ag     2.368929    45Ag     2.369350    45Bu     2.394314  
      16Bg     2.400813    17Bg     2.401310    46Bu     2.477712  
      47Bu     2.477884    46Ag     2.507210    47Ag     2.507436  
      16Au     2.579896    17Au     2.580268    48Ag     2.620870  
      48Bu     2.622646    18Au     2.630555    18Bg     2.745396  
      49Ag     2.803573    50Ag     2.803707    49Bu     3.029470  
      50Bu     3.029775    51Bu     3.167630    51Ag     3.241761  
      52Bu     3.283977    53Bu     3.284554    52Ag     3.358235  
      53Ag     3.525859    54Ag     3.526393    54Bu     3.930429  
      55Ag     4.265617    55Bu     4.289213    56Bu     4.289344  
      56Ag     4.486530    57Ag     4.486613    57Bu     4.836351  

    Final Occupation by Irrep:
             Ag    Bg    Au    Bu 
    DOCC [     9,    2,    1,    9 ]

  @DF-RKS Final Energy:  -232.26797003435311

   => Energetics <=

    Nuclear Repulsion Energy =            201.9980475612722159
    One-Electron Energy =                -711.0681596451026962
    Two-Electron Energy =                 304.8815492366087483
    DFT Exchange-Correlation Energy =     -28.0794071871313626
    Empirical Dispersion Energy =           0.0000000000000000
    VV10 Nonlocal Energy =                  0.0000000000000000
    Total Energy =                       -232.2679700343531124

Computation Completed


Properties will be evaluated at   0.000000,   0.000000,   0.000000 [a0]

Properties computed using the SCF density matrix

  Nuclear Dipole Moment: [e a0]
     X:     0.0000      Y:     0.0000      Z:     0.0000

  Electronic Dipole Moment: [e a0]
     X:     0.0000      Y:     0.0000      Z:     0.0000

  Dipole Moment: [e a0]
     X:     0.0000      Y:     0.0000      Z:     0.0000     Total:     0.0000

  Dipole Moment: [D]
     X:     0.0000      Y:     0.0000      Z:     0.0000     Total:     0.0000


*** tstop() called on atlantis at Wed Apr 20 01:32:04 2022
Module time:
	user time   =      12.93 seconds =       0.22 minutes
	system time =       0.07 seconds =       0.00 minutes
	total time  =         13 seconds =       0.22 minutes
Total time:
	user time   =      57.99 seconds =       0.97 minutes
	system time =       0.53 seconds =       0.01 minutes
	total time  =         59 seconds =       0.98 minutes

*** tstart() called on atlantis
*** at Wed Apr 20 01:32:04 2022


         ------------------------------------------------------------
                                   SCF GRAD                          
                          Rob Parrish, Justin Turney,                
                       Andy Simmonett, and Alex Sokolov              
         ------------------------------------------------------------

  ==> Geometry <==

    Molecular point group: c2h
    Full point group: C2h

    Geometry (in Angstrom), charge = 0, multiplicity = 1:

       Center              X                  Y                   Z               Mass       
    ------------   -----------------  -----------------  -----------------  -----------------
         C           -1.222032477591    -0.693313109608     0.000000000000    12.000000000000
         C           -1.211176745353     0.711157426160     0.000000000000    12.000000000000
         C           -0.010297435136    -1.404520535769     0.000000000000    12.000000000000
         C            0.010297435136     1.404520535769     0.000000000000    12.000000000000
         C            1.211176745353    -0.711157426160     0.000000000000    12.000000000000
         C            1.222032477591     0.693313109608     0.000000000000    12.000000000000
         H           -2.173046280225    -1.233432274252     0.000000000000     1.007825032230
         H           -2.154705373579     1.265218680005     0.000000000000     1.007825032230
         H           -0.018350906646    -2.498650954774     0.000000000000     1.007825032230
         H            0.018350906646     2.498650954774     0.000000000000     1.007825032230
         H            2.154705373579    -1.265218680005     0.000000000000     1.007825032230
         H            2.173046280225     1.233432274252     0.000000000000     1.007825032230

  Nuclear repulsion =  201.998047561272216

  ==> Basis Set <==

  Basis Set: 6-31++G**
    Blend: 6-31++G**
    Number of shells: 72
    Number of basis function: 150
    Number of Cartesian functions: 150
    Spherical Harmonics?: false
    Max angular momentum: 2

  ==> DFJKGrad: Density-Fitted SCF Gradients <==

    Gradient:                    1
    J tasked:                  Yes
    K tasked:                  Yes
    wK tasked:                  No
    OpenMP threads:              1
    Integrals threads:           1
    Memory [MiB]:              375
    Schwarz Cutoff:          0E+00
    Fitting Condition:       1E-10

   => Auxiliary Basis Set <=

  Basis Set: (6-31++G** AUX)
    Blend: AUG-CC-PVDZ-JKFIT
    Number of shells: 240
    Number of basis function: 816
    Number of Cartesian functions: 816
    Spherical Harmonics?: false
    Max angular momentum: 3

  ==> DFT Potential <==

   => Composite Functional: B3LYP <= 

    B3LYP Hyb-GGA Exchange-Correlation Functional

    P. J. Stephens, F. J. Devlin, C. F. Chabalowski, and M. J. Frisch, J. Phys. Chem. 98, 11623 (1994)

    Deriv               =              1
    GGA                 =           TRUE
    Meta                =          FALSE

    Exchange Hybrid     =           TRUE
    MP2 Hybrid          =          FALSE

   => Exchange Functionals <=

    0.0800   Slater exchange
    0.7200         Becke 88

   => Exact (HF) Exchange <=

    0.2000               HF 

   => Correlation Functionals <=

    0.1900   Vosko, Wilk & Nusair (VWN5_RPA)
    0.8100   Lee, Yang & Parr

   => Molecular Quadrature <=

    Radial Scheme          =       TREUTLER
    Pruning Scheme         =           FLAT
    Nuclear Scheme         =       TREUTLER

    BS radius alpha        =              1
    Pruning alpha          =              1
    Radial Points          =             75
    Spherical Points       =            302
    Total Points           =         271800
    Total Blocks           =           2142
    Max Points             =            256
    Max Functions          =            150


  -Total Gradient:
     Atom            X                  Y                   Z
    ------   -----------------  -----------------  -----------------
       1       -0.001346119768    -0.000326982833     0.000000000000
       2       -0.000549406976     0.000339525367     0.000000000000
       3        0.000309653974    -0.000865605635     0.000000000000
       4       -0.000309653974     0.000865605635     0.000000000000
       5        0.000549406976    -0.000339525367     0.000000000000
       6        0.001346119768     0.000326982833     0.000000000000
       7       -0.004329096127    -0.002493342975     0.000000000000
       8       -0.004571265527     0.002654041690     0.000000000000
       9       -0.000051589196    -0.005286339849     0.000000000000
      10        0.000051589196     0.005286339849     0.000000000000
      11        0.004571265527    -0.002654041690     0.000000000000
      12        0.004329096127     0.002493342975     0.000000000000


*** tstop() called on atlantis at Wed Apr 20 01:32:08 2022
Module time:
	user time   =       4.05 seconds =       0.07 minutes
	system time =       0.07 seconds =       0.00 minutes
	total time  =          4 seconds =       0.07 minutes
Total time:
	user time   =      62.04 seconds =       1.03 minutes
	system time =       0.60 seconds =       0.01 minutes
	total time  =         63 seconds =       1.05 minutes

  //>>>>>>>>>>>>>>>>>>>>>>>>>>>>>>>>>>>//
  //    Loading displacement 3 of 42   //
  //<<<<<<<<<<<<<<<<<<<<<<<<<<<<<<<<<<<//
gradient() will perform analytic gradient computation.

*** tstart() called on atlantis
*** at Wed Apr 20 01:32:08 2022

   => Loading Basis Set <=

    Name: 6-31++G**
    Role: ORBITAL
    Keyword: BASIS
    atoms 1-6  entry C          line   115 file /home/akrom/software/anaconda3/envs/ffpenv/share/psi4/basis/6-31ppgss.gbs 
    atoms 7-12 entry H          line    46 file /home/akrom/software/anaconda3/envs/ffpenv/share/psi4/basis/6-31ppgss.gbs 


         ---------------------------------------------------------
                                   SCF
               by Justin Turney, Rob Parrish, Andy Simmonett
                          and Daniel G. A. Smith
                              RKS Reference
                        1 Threads,    500 MiB Core
         ---------------------------------------------------------

  ==> Geometry <==

    Molecular point group: c2h
    Full point group: C2h

    Geometry (in Angstrom), charge = 0, multiplicity = 1:

       Center              X                  Y                   Z               Mass       
    ------------   -----------------  -----------------  -----------------  -----------------
         C           -1.220987522409    -0.693186890392     0.000000000000    12.000000000000
         C           -1.211103254647     0.711282573840     0.000000000000    12.000000000000
         C           -0.010442564864    -1.404519464231     0.000000000000    12.000000000000
         C            0.010442564864     1.404519464231     0.000000000000    12.000000000000
         C            1.211103254647    -0.711282573840     0.000000000000    12.000000000000
         C            1.220987522409     0.693186890392     0.000000000000    12.000000000000
         H           -2.173173719775    -1.233207725748     0.000000000000     1.007825032230
         H           -2.154574626421     1.265441319995     0.000000000000     1.007825032230
         H           -0.018609093354    -2.498649045226     0.000000000000     1.007825032230
         H            0.018609093354     2.498649045226     0.000000000000     1.007825032230
         H            2.154574626421    -1.265441319995     0.000000000000     1.007825032230
         H            2.173173719775     1.233207725748     0.000000000000     1.007825032230

  Running in c2h symmetry.

  Rotational constants: A =      0.18760  B =      0.18752  C =      0.09378 [cm^-1]
  Rotational constants: A =   5624.12726  B =   5621.66993  C =   2811.44916 [MHz]
  Nuclear repulsion =  202.028576396706484

  Charge       = 0
  Multiplicity = 1
  Electrons    = 42
  Nalpha       = 21
  Nbeta        = 21

  ==> Algorithm <==

  SCF Algorithm Type is DF.
  DIIS enabled.
  MOM disabled.
  Fractional occupation disabled.
  Guess Type is SAD.
  Energy threshold   = 1.00e-08
  Density threshold  = 1.00e-08
  Integral threshold = 0.00e+00

  ==> Primary Basis <==

  Basis Set: 6-31++G**
    Blend: 6-31++G**
    Number of shells: 72
    Number of basis function: 150
    Number of Cartesian functions: 150
    Spherical Harmonics?: false
    Max angular momentum: 2

  ==> DFT Potential <==

   => Composite Functional: B3LYP <= 

    B3LYP Hyb-GGA Exchange-Correlation Functional

    P. J. Stephens, F. J. Devlin, C. F. Chabalowski, and M. J. Frisch, J. Phys. Chem. 98, 11623 (1994)

    Deriv               =              1
    GGA                 =           TRUE
    Meta                =          FALSE

    Exchange Hybrid     =           TRUE
    MP2 Hybrid          =          FALSE

   => Exchange Functionals <=

    0.0800   Slater exchange
    0.7200         Becke 88

   => Exact (HF) Exchange <=

    0.2000               HF 

   => Correlation Functionals <=

    0.1900   Vosko, Wilk & Nusair (VWN5_RPA)
    0.8100   Lee, Yang & Parr

   => Molecular Quadrature <=

    Radial Scheme          =       TREUTLER
    Pruning Scheme         =           FLAT
    Nuclear Scheme         =       TREUTLER

    BS radius alpha        =              1
    Pruning alpha          =              1
    Radial Points          =             75
    Spherical Points       =            302
    Total Points           =         271800
    Total Blocks           =           2140
    Max Points             =            256
    Max Functions          =            150

   => Loading Basis Set <=

    Name: (6-31++G** AUX)
    Role: JKFIT
    Keyword: DF_BASIS_SCF
    atoms 1-6  entry C          line   154 file /home/akrom/software/anaconda3/envs/ffpenv/share/psi4/basis/aug-cc-pvdz-jkfit.gbs 
    atoms 7-12 entry H          line    70 file /home/akrom/software/anaconda3/envs/ffpenv/share/psi4/basis/aug-cc-pvdz-jkfit.gbs 

  ==> Pre-Iterations <==

   -------------------------------------------------------
    Irrep   Nso     Nmo     Nalpha   Nbeta   Ndocc  Nsocc
   -------------------------------------------------------
     Ag        57      57       0       0       0       0
     Bg        18      18       0       0       0       0
     Au        18      18       0       0       0       0
     Bu        57      57       0       0       0       0
   -------------------------------------------------------
    Total     150     150      21      21      21       0
   -------------------------------------------------------

  ==> Integral Setup <==

  DFHelper Memory: AOs need 0.145 GiB; user supplied 0.145 GiB. Using in-core AOs.

  ==> MemDFJK: Density-Fitted J/K Matrices <==

    J tasked:                   Yes
    K tasked:                   Yes
    wK tasked:                   No
    OpenMP threads:               1
    Memory [MiB]:               148
    Algorithm:                 Core
    Schwarz Cutoff:           1E-12
    Mask sparsity (%):       1.5200
    Fitting Condition:        1E-10

   => Auxiliary Basis Set <=

  Basis Set: (6-31++G** AUX)
    Blend: AUG-CC-PVDZ-JKFIT
    Number of shells: 240
    Number of basis function: 816
    Number of Cartesian functions: 816
    Spherical Harmonics?: false
    Max angular momentum: 3

  Cached 25.0% of DFT collocation blocks in 0.232 [GiB].

  Minimum eigenvalue in the overlap matrix is 1.5859160305E-06.
  Using Symmetric Orthogonalization.

  SCF Guess: Superposition of Atomic Densities via on-the-fly atomic UHF.

  ==> Iterations <==

                           Total Energy        Delta E     RMS |[F,P]|

   @DF-RKS iter SAD:  -231.54237286456362   -2.31542e+02   0.00000e+00 
   @DF-RKS iter   1:  -231.71606523060936   -1.73692e-01   1.13969e-02 DIIS
   @DF-RKS iter   2:  -231.26131292627599    4.54752e-01   1.57008e-02 DIIS
   @DF-RKS iter   3:  -232.26541135387242   -1.00410e+00   8.79735e-04 DIIS
   @DF-RKS iter   4:  -232.26783017651496   -2.41882e-03   2.05988e-04 DIIS
   @DF-RKS iter   5:  -232.26797104064599   -1.40864e-04   2.00819e-05 DIIS
   @DF-RKS iter   6:  -232.26797276649921   -1.72585e-06   3.11253e-06 DIIS
   @DF-RKS iter   7:  -232.26797277826145   -1.17622e-08   2.53279e-06 DIIS
   @DF-RKS iter   8:  -232.26797280056388   -2.23024e-08   2.48769e-08 DIIS
   @DF-RKS iter   9:  -232.26797280056817   -4.29168e-12   2.64614e-09 DIIS
  Energy and wave function converged.


  ==> Post-Iterations <==

    Orbital Energies [Eh]
    ---------------------

    Doubly Occupied:                                                      

       1Ag   -10.201480     1Bu   -10.201236     2Bu   -10.201216  
       2Ag   -10.200706     3Ag   -10.200684     3Bu   -10.200441  
       4Ag    -0.854294     4Bu    -0.748244     5Bu    -0.748146  
       5Ag    -0.605338     6Ag    -0.605203     7Ag    -0.523936  
       6Bu    -0.465758     7Bu    -0.447528     8Bu    -0.424666  
       9Bu    -0.424524     1Au    -0.368122     8Ag    -0.348862  
       9Ag    -0.348600     1Bg    -0.257201     2Bg    -0.257116  

    Virtual:                                                              

       2Au    -0.016942     3Au    -0.016811    10Ag    -0.008101  
      10Bu     0.010430    11Bu     0.010434    11Ag     0.033230  
      12Ag     0.033235    12Bu     0.061619     4Au     0.066687  
      13Ag     0.078886     3Bg     0.092012     4Bg     0.092021  
      13Bu     0.098599    14Ag     0.119984    15Ag     0.121514  
      16Ag     0.121529     5Bg     0.122757    14Bu     0.127794  
      15Bu     0.127823     5Au     0.142318     6Au     0.142355  
      16Bu     0.153714    17Bu     0.155021    18Bu     0.155042  
      17Ag     0.158315    18Ag     0.158326    19Bu     0.197288  
      20Bu     0.197319     6Bg     0.203279    19Ag     0.231119  
      20Ag     0.231153    21Ag     0.254227    22Ag     0.265370  
      21Bu     0.290772    22Bu     0.290952    23Bu     0.297339  
      23Ag     0.309415    24Ag     0.309553    24Bu     0.341681  
      25Ag     0.383189    26Ag     0.383255    25Bu     0.394931  
      26Bu     0.395092    27Ag     0.556357    27Bu     0.569455  
      28Bu     0.611474     7Au     0.658715    28Ag     0.668908  
       7Bg     0.717141     8Bg     0.717162    29Ag     0.719946  
      30Ag     0.720129     8Au     0.745338     9Au     0.745365  
      29Bu     0.783833    30Bu     0.783952     9Bg     0.798725  
      31Ag     0.886435    31Bu     0.953424    32Ag     0.970559  
      33Ag     0.986812    34Ag     0.986922    32Bu     0.998045  
      33Bu     0.998245    35Ag     1.027332    34Bu     1.090506  
      35Bu     1.090604    36Bu     1.128507    37Bu     1.128678  
      36Ag     1.181166    37Ag     1.181207    10Bg     1.250655  
      10Au     1.297247    38Bu     1.314502    11Bg     1.396778  
      12Bg     1.396947    11Au     1.416905    12Au     1.417158  
      38Ag     1.428221    39Ag     1.428402    40Ag     1.742112  
      39Bu     1.779093    41Ag     1.867688    40Bu     1.882941  
      41Bu     1.944433    42Bu     1.944634    13Au     1.977157  
      14Au     1.977323    42Ag     1.994074    43Ag     1.994312  
      13Bg     2.023457    43Bu     2.065196    44Bu     2.065449  
      14Bg     2.280965    15Bg     2.281442    15Au     2.357028  
      44Ag     2.368914    45Ag     2.369311    45Bu     2.394161  
      16Bg     2.400507    17Bg     2.401005    46Bu     2.477900  
      47Bu     2.478045    46Ag     2.507141    47Ag     2.507356  
      16Au     2.579658    17Au     2.580020    48Ag     2.621200  
      48Bu     2.622344    18Au     2.631185    18Bg     2.745285  
      49Ag     2.803788    50Ag     2.803908    49Bu     3.029481  
      50Bu     3.029733    51Bu     3.167914    51Ag     3.241054  
      52Bu     3.283321    53Bu     3.283898    52Ag     3.358148  
      53Ag     3.525490    54Ag     3.526008    54Bu     3.930647  
      55Ag     4.266032    55Bu     4.289215    56Bu     4.289355  
      56Ag     4.486586    57Ag     4.486675    57Bu     4.836655  

    Final Occupation by Irrep:
             Ag    Bg    Au    Bu 
    DOCC [     9,    2,    1,    9 ]

  @DF-RKS Final Energy:  -232.26797280056817

   => Energetics <=

    Nuclear Repulsion Energy =            202.0285763967064838
    One-Electron Energy =                -711.1290341214216824
    Two-Electron Energy =                 304.9122062308971977
[...]
      5   C                0.10  0.12  0.00   -0.00  0.00  0.21    0.00  0.00 -0.03   
      6   C                0.31  0.07 -0.00   -0.00  0.00 -0.21   -0.00 -0.00 -0.03   
      7   H               -0.21 -0.25  0.00   -0.00  0.00  0.35    0.00  0.00  0.41   
      8   H                0.09  0.20 -0.00    0.00 -0.00 -0.35    0.00 -0.00  0.41   
      9   H                0.10  0.32  0.00    0.00 -0.00 -0.35   -0.00  0.00  0.41   
     10   H               -0.10 -0.32  0.00   -0.00  0.00  0.35   -0.00  0.00  0.41   
     11   H               -0.09 -0.20  0.00   -0.00  0.00  0.35    0.00  0.00  0.41   
     12   H                0.21  0.25 -0.00    0.00  0.00 -0.35    0.00 -0.00  0.41   

  Vibration                       13                  14                  15          
  Freq [cm^-1]                 893.1679            893.2530            996.4712       
  Irrep                           Bg                  Bg                  Ag          
  Reduced mass [u]              1.2479              1.2479              6.0157        
  Force const [mDyne/A]         0.5865              0.5866              3.5194        
  Turning point v=0 [a0]        0.3287              0.3287              0.1417        
  RMS dev v=0 [a0 u^1/2]        0.2596              0.2596              0.2458        
  Char temp [K]               1285.0698           1285.1922           1433.7002       
  ----------------------------------------------------------------------------------
      1   C                0.00  0.00 -0.05    0.00  0.00 -0.07    0.24  0.13  0.00   
      2   C                0.00 -0.00  0.03    0.00 -0.00 -0.08    0.24 -0.14  0.00   
      3   C               -0.00  0.00 -0.08   -0.00  0.00  0.01    0.00  0.28 -0.00   
      4   C               -0.00  0.00  0.08   -0.00  0.00 -0.01   -0.00 -0.28 -0.00   
      5   C                0.00 -0.00 -0.03    0.00  0.00  0.08   -0.24  0.14 -0.00   
      6   C               -0.00 -0.00  0.05   -0.00 -0.00  0.07   -0.24 -0.13 -0.00   
      7   H               -0.00  0.00  0.35    0.00  0.00  0.45    0.25  0.16 -0.00   
      8   H                0.00 -0.00 -0.22    0.00 -0.00  0.53    0.27 -0.14 -0.00   
      9   H               -0.00  0.00  0.57   -0.00  0.00 -0.07    0.02  0.30  0.00   
     10   H               -0.00  0.00 -0.57   -0.00  0.00  0.07   -0.02 -0.30 -0.00   
     11   H                0.00  0.00  0.22    0.00  0.00 -0.53   -0.27  0.14  0.00   
     12   H                0.00 -0.00 -0.35    0.00 -0.00 -0.45   -0.25 -0.16  0.00   

  Vibration                       16                  17                  18          
  Freq [cm^-1]                1005.9109           1005.9782           1014.0074       
  Irrep                           Au                  Au                  Bu          
  Reduced mass [u]              1.3504              1.3503              6.5426        
  Force const [mDyne/A]         0.8051              0.8051              3.9636        
  Turning point v=0 [a0]        0.2977              0.2977              0.1347        
  RMS dev v=0 [a0 u^1/2]        0.2446              0.2446              0.2437        
  Char temp [K]               1447.2819           1447.3786           1458.9309       
  ----------------------------------------------------------------------------------
      1   C                0.00 -0.00  0.05    0.00  0.00 -0.09   -0.25 -0.14  0.00   
      2   C               -0.00  0.00  0.05    0.00 -0.00  0.09    0.25 -0.15 -0.00   
      3   C                0.00 -0.00 -0.10   -0.00  0.00  0.00    0.00  0.29 -0.00   
      4   C                0.00 -0.00 -0.10   -0.00  0.00  0.00    0.00  0.29  0.00   
      5   C               -0.00  0.00  0.05    0.00 -0.00  0.09    0.25 -0.15 -0.00   
      6   C                0.00  0.00  0.05   -0.00 -0.00 -0.09   -0.25 -0.14 -0.00   
      7   H               -0.00  0.00 -0.27   -0.00  0.00  0.50   -0.25 -0.14 -0.00   
      8   H               -0.00  0.00 -0.29    0.00 -0.00 -0.49    0.24 -0.16 -0.00   
      9   H                0.00 -0.00  0.57   -0.00  0.00 -0.01   -0.01  0.29  0.00   
     10   H                0.00 -0.00  0.57   -0.00  0.00 -0.01   -0.01  0.29 -0.00   
     11   H                0.00  0.00 -0.29   -0.00 -0.00 -0.49    0.24 -0.16  0.00   
     12   H                0.00  0.00 -0.27   -0.00  0.00  0.50   -0.25 -0.14  0.00   

  Vibration                       19                  20                  21          
  Freq [cm^-1]                1030.7932           1058.6399           1058.7859       
  Irrep                           Bg                  Bu                  Bu          
  Reduced mass [u]              1.2114              1.7943              1.7925        
  Force const [mDyne/A]         0.7584              1.1848              1.1839        
  Turning point v=0 [a0]        0.3105              0.2518              0.2519        
  RMS dev v=0 [a0 u^1/2]        0.2417              0.2385              0.2384        
  Char temp [K]               1483.0820           1523.1471           1523.3572       
  ----------------------------------------------------------------------------------
      1   C                0.00  0.00 -0.06    0.08 -0.05 -0.00   -0.09 -0.09 -0.00   
      2   C                0.00 -0.00  0.06   -0.11 -0.02  0.00   -0.05  0.10  0.00   
      3   C               -0.00  0.00  0.06    0.02  0.12  0.00    0.09 -0.02  0.00   
      4   C               -0.00 -0.00 -0.06    0.02  0.12 -0.00    0.09 -0.02 -0.00   
      5   C                0.00 -0.00 -0.06   -0.11 -0.02 -0.00   -0.05  0.10  0.00   
      6   C               -0.00  0.00  0.06    0.08 -0.05 -0.00   -0.09 -0.09  0.00   
      7   H               -0.00  0.00  0.40    0.29 -0.42  0.00   -0.02 -0.22  0.00   
      8   H                0.00 -0.00 -0.40   -0.28 -0.31 -0.00    0.09  0.35 -0.00   
      9   H               -0.00  0.00 -0.40    0.10  0.13 -0.00    0.53 -0.03 -0.00   
     10   H               -0.00 -0.00  0.40    0.10  0.13  0.00    0.53 -0.03  0.00   
     11   H               -0.00 -0.00  0.40   -0.28 -0.31  0.00    0.09  0.35  0.00   
     12   H               -0.00  0.00 -0.40    0.29 -0.42 -0.00   -0.02 -0.22 -0.00   

  Vibration                       22                  23                  24          
  Freq [cm^-1]                1181.5184           1200.9760           1206.5620       
  Irrep                           Bu                  Ag                  Ag          
  Reduced mass [u]              1.1744              1.1634              1.1499        
  Force const [mDyne/A]         0.9659              0.9887              0.9863        
  Turning point v=0 [a0]        0.2946              0.2935              0.2946        
  RMS dev v=0 [a0 u^1/2]        0.2257              0.2239              0.2234        
  Char temp [K]               1699.9419           1727.9371           1735.9741       
  ----------------------------------------------------------------------------------
      1   C               -0.03  0.04 -0.00   -0.00 -0.00  0.00   -0.03  0.06  0.00   
      2   C               -0.02 -0.04 -0.00    0.03  0.05  0.00   -0.02 -0.03  0.00   
      3   C                0.05 -0.00 -0.00    0.06 -0.00 -0.00    0.03 -0.00  0.00   
      4   C                0.05 -0.00 -0.00   -0.06  0.00 -0.00   -0.03  0.00  0.00   
      5   C               -0.02 -0.04  0.00   -0.03 -0.05 -0.00    0.02  0.03 -0.00   
      6   C               -0.03  0.04  0.00    0.00  0.00 -0.00    0.03 -0.06 -0.00   
      7   H               -0.20  0.35  0.00   -0.01  0.01 -0.00   -0.28  0.50 -0.00   
      8   H               -0.20 -0.35  0.00    0.25  0.42 -0.00   -0.15 -0.26 -0.00   
      9   H                0.40 -0.00  0.00    0.51 -0.01  0.00    0.28 -0.00 -0.00   
     10   H                0.40 -0.00  0.00   -0.51  0.01  0.00   -0.28  0.00 -0.00   
     11   H               -0.20 -0.35 -0.00   -0.25 -0.42 -0.00    0.15  0.26  0.00   
     12   H               -0.20  0.35 -0.00    0.01 -0.01  0.00    0.28 -0.50  0.00   

  Vibration                       25                  26                  27          
  Freq [cm^-1]                1328.7306           1386.7192           1512.4057       
  Irrep                           Bu                  Ag                  Bu          
  Reduced mass [u]              4.4629              1.2479              1.8993        
  Force const [mDyne/A]         4.6424              1.4138              2.5597        
  Turning point v=0 [a0]        0.1425              0.2638              0.2047        
  RMS dev v=0 [a0 u^1/2]        0.2129              0.2084              0.1995        
  Char temp [K]               1911.7475           1995.1802           2176.0151       
  ----------------------------------------------------------------------------------
      1   C               -0.11  0.20 -0.00   -0.03  0.05  0.00   -0.01  0.12  0.00   
      2   C               -0.12 -0.20 -0.00    0.03  0.05  0.00    0.07 -0.05  0.00   
      3   C                0.23 -0.00 -0.00   -0.06  0.00  0.00   -0.13 -0.03  0.00   
      4   C                0.23 -0.00 -0.00    0.06 -0.00  0.00   -0.13 -0.03  0.00   
      5   C               -0.12 -0.20  0.00   -0.03 -0.05 -0.00    0.07 -0.05 -0.00   
      6   C               -0.11  0.20  0.00    0.03 -0.05 -0.00   -0.01  0.12 -0.00   
      7   H                0.17 -0.29  0.00    0.20 -0.35 -0.00    0.27 -0.35 -0.00   
      8   H                0.18  0.29  0.00   -0.21 -0.35 -0.00    0.12 -0.01 -0.00   
      9   H               -0.33  0.00  0.00    0.40 -0.00 -0.00    0.50 -0.05 -0.00   
     10   H               -0.33  0.00  0.00   -0.40  0.00 -0.00    0.50 -0.05 -0.00   
     11   H                0.18  0.29 -0.00    0.21  0.35  0.00    0.12 -0.01  0.00   
     12   H                0.17 -0.29 -0.00   -0.20  0.35  0.00    0.27 -0.35  0.00   

  Vibration                       28                  29                  30          
  Freq [cm^-1]                1514.1095           1619.1121           1628.5173       
  Irrep                           Bu                  Ag                  Ag          
  Reduced mass [u]              1.8983              4.7360              4.9653        
  Force const [mDyne/A]         2.5641              7.3150              7.7585        
  Turning point v=0 [a0]        0.2047              0.1253              0.1220        
  RMS dev v=0 [a0 u^1/2]        0.1994              0.1928              0.1923        
  Char temp [K]               2178.4664           2329.5419           2343.0738       
  ----------------------------------------------------------------------------------
      1   C                0.10 -0.04 -0.00   -0.04 -0.18  0.00   -0.19  0.21  0.00   
      2   C               -0.08 -0.12 -0.00    0.16  0.26 -0.00    0.11 -0.09 -0.00   
      3   C               -0.06  0.08  0.00    0.17  0.11 -0.00    0.26 -0.08  0.00   
      4   C               -0.06  0.08  0.00   -0.17 -0.11 -0.00   -0.26  0.08 -0.00   
      5   C               -0.08 -0.12 -0.00   -0.16 -0.26 -0.00   -0.11  0.09  0.00   
      6   C                0.10 -0.04 -0.00    0.04  0.18  0.00    0.19 -0.21 -0.00   
      7   H               -0.08  0.32 -0.00   -0.22  0.10 -0.00    0.13 -0.37  0.00   
      8   H                0.26  0.47 -0.00   -0.21 -0.38 -0.00    0.16 -0.06  0.00   
      9   H                0.23  0.09 -0.00   -0.25  0.13 -0.00   -0.37 -0.09  0.00   
     10   H                0.23  0.09 -0.00    0.25 -0.13 -0.00    0.37  0.09  0.00   
     11   H                0.26  0.47  0.00    0.21  0.38  0.00   -0.16  0.06 -0.00   
     12   H               -0.08  0.32  0.00    0.22 -0.10  0.00   -0.13  0.37 -0.00   

  Vibration                       31                  32                  33          
  Freq [cm^-1]                3100.7573           3110.2405           3110.6936       
  Irrep                           Bu                  Ag                  Ag          
  Reduced mass [u]              1.0837              1.0877              1.0879        
  Force const [mDyne/A]         6.1387              6.1992              6.2022        
  Turning point v=0 [a0]        0.1893              0.1887              0.1886        
  RMS dev v=0 [a0 u^1/2]        0.1393              0.1391              0.1391        
  Char temp [K]               4461.2994           4474.9436           4475.5955       
  ----------------------------------------------------------------------------------
      1   C                0.03  0.02 -0.00    0.02  0.01  0.00   -0.04 -0.02  0.00   
      2   C               -0.03  0.02  0.00    0.02 -0.01 -0.00    0.04 -0.02  0.00   
      3   C               -0.00 -0.03  0.00   -0.00 -0.05 -0.00    0.00 -0.00 -0.00   
      4   C               -0.00 -0.03 -0.00    0.00  0.05  0.00   -0.00  0.00  0.00   
      5   C               -0.03  0.02  0.00   -0.02  0.01  0.00   -0.04  0.02 -0.00   
      6   C                0.03  0.02  0.00   -0.02 -0.01  0.00    0.04  0.02 -0.00   
      7   H               -0.35 -0.20 -0.00   -0.26 -0.15 -0.00    0.43  0.24 -0.00   
      8   H                0.35 -0.21 -0.00   -0.24  0.14 -0.00   -0.44  0.25 -0.00   
      9   H                0.00  0.41  0.00    0.00  0.57 -0.00   -0.00  0.01 -0.00   
     10   H                0.00  0.41  0.00   -0.00 -0.57 -0.00    0.00 -0.01 -0.00   
     11   H                0.35 -0.21  0.00    0.24 -0.14 -0.00    0.44 -0.25 -0.00   
     12   H               -0.35 -0.20  0.00    0.26  0.15  0.00   -0.43 -0.24  0.00   

  Vibration                       34                  35                  36          
  Freq [cm^-1]                3126.0795           3127.0887           3136.1713       
  Irrep                           Bu                  Bu                  Ag          
  Reduced mass [u]              1.0953              1.0951              1.0995        
  Force const [mDyne/A]         6.3062              6.3093              6.3714        
  Turning point v=0 [a0]        0.1875              0.1875              0.1869        
  RMS dev v=0 [a0 u^1/2]        0.1388              0.1387              0.1385        
  Char temp [K]               4497.7324           4499.1844           4512.2522       
  ----------------------------------------------------------------------------------
      1   C               -0.02 -0.02  0.00   -0.04 -0.02  0.00   -0.03 -0.02 -0.00   
      2   C               -0.04  0.03 -0.00    0.01  0.00  0.00   -0.03  0.02  0.00   
      3   C                0.00  0.02  0.00    0.00 -0.05  0.00   -0.00 -0.04 -0.00   
      4   C                0.00  0.02  0.00    0.00 -0.05 -0.00    0.00  0.04 -0.00   
      5   C               -0.04  0.03  0.00    0.01  0.00 -0.00    0.03 -0.02  0.00   
      6   C               -0.02 -0.02  0.00   -0.04 -0.02 -0.00    0.03  0.02  0.00   
      7   H                0.28  0.16  0.00    0.42  0.24 -0.00    0.35  0.20  0.00   
      8   H                0.49 -0.29  0.00   -0.04  0.02 -0.00    0.35 -0.20 -0.00   
      9   H               -0.01 -0.25  0.00    0.00  0.51 -0.00    0.00  0.41  0.00   
     10   H               -0.01 -0.25  0.00    0.00  0.51 -0.00   -0.00 -0.41 -0.00   
     11   H                0.49 -0.29  0.00   -0.04  0.02  0.00   -0.35  0.20 -0.00   
     12   H                0.28  0.16 -0.00    0.42  0.24  0.00   -0.35 -0.20 -0.00   

  ==> Thermochemistry Components <==

  Entropy, S
    Electronic S            0.000 [cal/(mol K)]        0.000 [J/(mol K)]       0.00000000 [mEh/K] (multiplicity = 1)
    Translational S        38.979 [cal/(mol K)]      163.089 [J/(mol K)]       0.06211726 [mEh/K] (mol. weight = 78.0470 [u], P = 101325.00 [Pa])
    Rotational S           24.318 [cal/(mol K)]      101.746 [J/(mol K)]       0.03875307 [mEh/K] (symmetry no. = 2)
    Vibrational S           4.220 [cal/(mol K)]       17.656 [J/(mol K)]       0.00672474 [mEh/K]
  Total S                  67.517 [cal/(mol K)]      282.491 [J/(mol K)]       0.10759508 [mEh/K]
  Correction S              0.000 [cal/(mol K)]        0.000 [J/(mol K)]       0.00000000 [mEh/K]

  Constant volume heat capacity, Cv
    Electronic Cv           0.000 [cal/(mol K)]        0.000 [J/(mol K)]       0.00000000 [mEh/K]
    Translational Cv        2.981 [cal/(mol K)]       12.472 [J/(mol K)]       0.00475022 [mEh/K]
    Rotational Cv           2.981 [cal/(mol K)]       12.472 [J/(mol K)]       0.00475022 [mEh/K]
    Vibrational Cv         10.965 [cal/(mol K)]       45.876 [J/(mol K)]       0.01747309 [mEh/K]
  Total Cv                 16.926 [cal/(mol K)]       70.819 [J/(mol K)]       0.02697352 [mEh/K]
  Correction Cv             0.000 [cal/(mol K)]        0.000 [J/(mol K)]       0.00000000 [mEh/K]

  Constant pressure heat capacity, Cp
    Electronic Cp           0.000 [cal/(mol K)]        0.000 [J/(mol K)]       0.00000000 [mEh/K]
    Translational Cp        4.968 [cal/(mol K)]       20.786 [J/(mol K)]       0.00791703 [mEh/K]
    Rotational Cp           2.981 [cal/(mol K)]       12.472 [J/(mol K)]       0.00475022 [mEh/K]
    Vibrational Cp         10.965 [cal/(mol K)]       45.876 [J/(mol K)]       0.01747309 [mEh/K]
  Total Cp                 18.913 [cal/(mol K)]       79.133 [J/(mol K)]       0.03014033 [mEh/K]
  Correction Cp             0.000 [cal/(mol K)]        0.000 [J/(mol K)]       0.00000000 [mEh/K]

  ==> Thermochemistry Energy Analysis <==

  Raw electronic energy, E0
  Total E0, Electronic energy at well bottom at 0 [K]                 -232.26796055 [Eh]

  Zero-point energy, ZPE_vib = Sum_i nu_i / 2
    Electronic ZPE          0.000 [kcal/mol]        0.000 [kJ/mol]       0.00000000 [Eh]
    Translational ZPE       0.000 [kcal/mol]        0.000 [kJ/mol]       0.00000000 [Eh]
    Rotational ZPE          0.000 [kcal/mol]        0.000 [kJ/mol]       0.00000000 [Eh]
    Vibrational ZPE        62.596 [kcal/mol]      261.902 [kJ/mol]       0.09975334 [Eh]       21893.328 [cm^-1]
  Correction ZPE           62.596 [kcal/mol]      261.902 [kJ/mol]       0.09975334 [Eh]       21893.328 [cm^-1]
  Total ZPE, Electronic energy at 0 [K]                               -232.16820721 [Eh]

  Thermal Energy, E (includes ZPE)
    Electronic E            0.000 [kcal/mol]        0.000 [kJ/mol]       0.00000000 [Eh]
    Translational E         0.889 [kcal/mol]        3.718 [kJ/mol]       0.00141628 [Eh]
    Rotational E            0.889 [kcal/mol]        3.718 [kJ/mol]       0.00141628 [Eh]
    Vibrational E          63.540 [kcal/mol]      265.853 [kJ/mol]       0.10125817 [Eh]
  Correction E             65.318 [kcal/mol]      273.290 [kJ/mol]       0.10409072 [Eh]
  Total E, Electronic energy at  298.15 [K]                           -232.16386983 [Eh]

  Enthalpy, H_trans = E_trans + k_B * T
    Electronic H            0.000 [kcal/mol]        0.000 [kJ/mol]       0.00000000 [Eh]
    Translational H         1.481 [kcal/mol]        6.197 [kJ/mol]       0.00236046 [Eh]
    Rotational H            0.889 [kcal/mol]        3.718 [kJ/mol]       0.00141628 [Eh]
    Vibrational H          63.540 [kcal/mol]      265.853 [kJ/mol]       0.10125817 [Eh]
  Correction H             65.910 [kcal/mol]      275.769 [kJ/mol]       0.10503490 [Eh]
  Total H, Enthalpy at  298.15 [K]                                    -232.16292565 [Eh]

  Gibbs free energy, G = H - T * S
    Electronic G            0.000 [kcal/mol]        0.000 [kJ/mol]       0.00000000 [Eh]
    Translational G       -10.140 [kcal/mol]      -42.428 [kJ/mol]      -0.01615980 [Eh]
    Rotational G           -6.362 [kcal/mol]      -26.617 [kJ/mol]      -0.01013795 [Eh]
    Vibrational G          62.282 [kcal/mol]      260.589 [kJ/mol]       0.09925318 [Eh]
  Correction G             45.780 [kcal/mol]      191.544 [kJ/mol]       0.07295543 [Eh]
  Total G, Free enthalpy at  298.15 [K]                               -232.19500512 [Eh]

    Psi4 stopped on: Wednesday, 20 April 2022 01:43AM
    Psi4 wall time for execution: 0:12:40.22

*** Psi4 exiting successfully. Buy a developer a beer!
