
    -----------------------------------------------------------------------
          Psi4: An Open-Source Ab Initio Electronic Structure Package
                               Psi4 1.3.2 release

                         Git: Rev {HEAD} ecbda83 


    R. M. Parrish, L. A. Burns, D. G. A. Smith, A. C. Simmonett,
    A. E. DePrince III, E. G. Hohenstein, U. Bozkaya, A. Yu. Sokolov,
    R. Di Remigio, R. M. Richard, J. F. Gonthier, A. M. James,
    H. R. McAlexander, A. Kumar, M. Saitow, X. Wang, B. P. Pritchard,
    P. Verma, H. F. Schaefer III, K. Patkowski, R. A. King, E. F. Valeev,
    F. A. Evangelista, J. M. Turney, T. D. Crawford, and C. D. Sherrill,
    J. Chem. Theory Comput. 13(7) pp 3185--3197 (2017).
    (doi: 10.1021/acs.jctc.7b00174)


                         Additional Contributions by
    P. Kraus, H. Kruse, M. H. Lechner, M. C. Schieber, R. A. Shaw,
    A. Alenaizan, R. Galvelis, Z. L. Glick, S. Lehtola, and J. P. Misiewicz

    -----------------------------------------------------------------------


    Psi4 started on: Tuesday, 19 April 2022 10:22AM

    Process ID: 28488
    Host:       atlantis
    PSIDATADIR: /home/akrom/software/anaconda3/envs/ffpenv/share/psi4
    Memory:     500.0 MiB
    Threads:    1
    
  ==> Input File <==

--------------------------------------------------------------------------
set basis  6-31G
molecule {
0 1
   C        0.32153        0.81326        0.00000
   C       -0.86505       -0.12817        0.00000
   C        0.54353       -0.68508        0.00000
   H        0.53795        1.36069       -0.92039
   H        0.53795        1.36069        0.92039
   H       -1.44742       -0.21449        0.92034
   H       -1.44742       -0.21449       -0.92034
   H        0.90937       -1.14629       -0.92037
   H        0.90937       -1.14629        0.92037
}
energy('m06-2x')
frequencies('m06-2x')
--------------------------------------------------------------------------

*** tstart() called on atlantis
*** at Tue Apr 19 10:22:32 2022

   => Loading Basis Set <=

    Name: 6-31G
    Role: ORBITAL
    Keyword: BASIS
    atoms 1-3 entry C          line    87 file /home/akrom/software/anaconda3/envs/ffpenv/share/psi4/basis/6-31g.gbs 
    atoms 4-9 entry H          line    26 file /home/akrom/software/anaconda3/envs/ffpenv/share/psi4/basis/6-31g.gbs 


         ---------------------------------------------------------
                                   SCF
               by Justin Turney, Rob Parrish, Andy Simmonett
                          and Daniel G. A. Smith
                              RKS Reference
                        1 Threads,    500 MiB Core
         ---------------------------------------------------------

  ==> Geometry <==

    Molecular point group: cs
    Full point group: Cs

    Geometry (in Angstrom), charge = 0, multiplicity = 1:

       Center              X                  Y                   Z               Mass       
    ------------   -----------------  -----------------  -----------------  -----------------
         C            0.321531939855     0.813261460475     0.000000000000    12.000000000000
         C           -0.865048060145    -0.128168539525     0.000000000000    12.000000000000
         C            0.543531939855    -0.685078539525     0.000000000000    12.000000000000
         H            0.537951939855     1.360691460475    -0.920390000000     1.007825032230
         H            0.537951939855     1.360691460475     0.920390000000     1.007825032230
         H           -1.447418060145    -0.214488539525     0.920340000000     1.007825032230
         H           -1.447418060145    -0.214488539525    -0.920340000000     1.007825032230
         H            0.909371939855    -1.146288539525    -0.920370000000     1.007825032230
         H            0.909371939855    -1.146288539525     0.920370000000     1.007825032230

  Running in cs symmetry.

  Rotational constants: A =      0.66472  B =      0.66470  C =      0.41647 [cm^-1]
  Rotational constants: A =  19927.70596  B =  19927.20236  C =  12485.44714 [MHz]
  Nuclear repulsion =   75.281464809014025

  Charge       = 0
  Multiplicity = 1
  Electrons    = 24
  Nalpha       = 12
  Nbeta        = 12

  ==> Algorithm <==

  SCF Algorithm Type is DF.
  DIIS enabled.
  MOM disabled.
  Fractional occupation disabled.
  Guess Type is SAD.
  Energy threshold   = 1.00e-06
  Density threshold  = 1.00e-06
  Integral threshold = 0.00e+00

  ==> Primary Basis <==

  Basis Set: 6-31G
    Blend: 6-31G
    Number of shells: 27
    Number of basis function: 39
    Number of Cartesian functions: 39
    Spherical Harmonics?: false
    Max angular momentum: 1

  ==> DFT Potential <==

   => Composite Functional: M06-2X <= 

    Hybrid M06-2X Meta-GGA XC Functional

    Y. Zhao and D. G. Truhlar,  Theor. Chem. Acc., 120, 215, 2008


    Deriv               =              1
    GGA                 =           TRUE
    Meta                =           TRUE

    Exchange Hybrid     =           TRUE
    MP2 Hybrid          =          FALSE

   => Exchange Functionals <=

    1.0000   XC_HYB_MGGA_X_M06_2X

   => Exact (HF) Exchange <=

    0.5400               HF 

   => Correlation Functionals <=

    1.0000   XC_MGGA_C_M06_2X

   => Molecular Quadrature <=

    Radial Scheme          =       TREUTLER
    Pruning Scheme         =           FLAT
    Nuclear Scheme         =       TREUTLER

    BS radius alpha        =              1
    Pruning alpha          =              1
    Radial Points          =             75
    Spherical Points       =            302
    Total Points           =         198448
    Total Blocks           =           1570
    Max Points             =            256
    Max Functions          =             39

   => Loading Basis Set <=

    Name: (6-31G AUX)
    Role: JKFIT
    Keyword: DF_BASIS_SCF
    atoms 1-3 entry C          line   121 file /home/akrom/software/anaconda3/envs/ffpenv/share/psi4/basis/cc-pvdz-jkfit.gbs 
    atoms 4-9 entry H          line    51 file /home/akrom/software/anaconda3/envs/ffpenv/share/psi4/basis/cc-pvdz-jkfit.gbs 

  ==> Pre-Iterations <==

   -------------------------------------------------------
    Irrep   Nso     Nmo     Nalpha   Nbeta   Ndocc  Nsocc
   -------------------------------------------------------
     A'        27      27       0       0       0       0
     A"        12      12       0       0       0       0
   -------------------------------------------------------
    Total      39      39      12      12      12       0
   -------------------------------------------------------

  ==> Integral Setup <==

  DFHelper Memory: AOs need 0.006 GiB; user supplied 0.006 GiB. Using in-core AOs.

  ==> MemDFJK: Density-Fitted J/K Matrices <==

    J tasked:                   Yes
    K tasked:                   Yes
    wK tasked:                   No
    OpenMP threads:               1
    Memory [MiB]:                 6
    Algorithm:                 Core
    Schwarz Cutoff:           1E-12
    Mask sparsity (%):       0.0000
    Fitting Condition:        1E-10

   => Auxiliary Basis Set <=

  Basis Set: (6-31G AUX)
    Blend: CC-PVDZ-JKFIT
    Number of shells: 126
    Number of basis function: 393
    Number of Cartesian functions: 393
    Spherical Harmonics?: false
    Max angular momentum: 3

  Cached 100.0% of DFT collocation blocks in 0.525 [GiB].

  Minimum eigenvalue in the overlap matrix is 9.9475880981E-03.
  Using Symmetric Orthogonalization.

  SCF Guess: Superposition of Atomic Densities via on-the-fly atomic UHF.

  ==> Iterations <==

                           Total Energy        Delta E     RMS |[F,P]|

   @DF-RKS iter SAD:  -117.43810024545327   -1.17438e+02   0.00000e+00 
   @DF-RKS iter   1:  -117.66552249551907   -2.27422e-01   1.65374e-02 DIIS
   @DF-RKS iter   2:  -117.70506596909851   -3.95435e-02   1.41681e-02 DIIS
   @DF-RKS iter   3:  -117.79939637563987   -9.43304e-02   2.77873e-04 DIIS
   @DF-RKS iter   4:  -117.79945654145448   -6.01658e-05   4.37061e-05 DIIS
   @DF-RKS iter   5:  -117.79945807509183   -1.53364e-06   3.57235e-06 DIIS
   @DF-RKS iter   6:  -117.79945808787164   -1.27798e-08   3.31278e-07 DIIS
  Energy and wave function converged.


  ==> Post-Iterations <==

    Orbital Energies [Eh]
    ---------------------

    Doubly Occupied:                                                      

       1Ap   -10.540454     2Ap   -10.539988     3Ap   -10.539983  
       4Ap    -0.946329     5Ap    -0.672683     6Ap    -0.672670  
       1App   -0.563877     7Ap    -0.525814     2App   -0.420967  
       3App   -0.420946     8Ap    -0.345873     9Ap    -0.345851  

    Virtual:                                                              

      10Ap     0.147661     4App    0.155449    11Ap     0.197792  
      12Ap     0.203332    13Ap     0.203338     5App    0.279258  
       6App    0.279269    14Ap     0.300967    15Ap     0.300983  
      16Ap     0.552726     7App    0.620705    17Ap     0.632898  
      18Ap     0.632932    19Ap     0.700640    20Ap     0.700653  
      21Ap     0.761918    22Ap     0.824875     8App    0.857525  
       9App    0.857580    10App    0.998679    23Ap     1.038784  
      24Ap     1.038901    11App    1.079650    12App    1.079790  
      25Ap     1.083498    26Ap     1.336965    27Ap     1.336975  

    Final Occupation by Irrep:
             Ap   App 
    DOCC [     9,    3 ]

  @DF-RKS Final Energy:  -117.79945808787164

   => Energetics <=

    Nuclear Repulsion Energy =             75.2814648090140253
    One-Electron Energy =                -305.7543410903062977
    Two-Electron Energy =                 121.5845594121437045
    DFT Exchange-Correlation Energy =      -8.9111412187230830
    Empirical Dispersion Energy =           0.0000000000000000
    VV10 Nonlocal Energy =                  0.0000000000000000
    Total Energy =                       -117.7994580878716420

Computation Completed


Properties will be evaluated at   0.000000,   0.000000,   0.000000 [a0]

Properties computed using the SCF density matrix

  Nuclear Dipole Moment: [e a0]
     X:    -0.0002      Y:    -0.0002      Z:     0.0000

  Electronic Dipole Moment: [e a0]
     X:     0.0002      Y:     0.0000      Z:     0.0000

  Dipole Moment: [e a0]
     X:     0.0001      Y:    -0.0002      Z:     0.0000     Total:     0.0002

  Dipole Moment: [D]
     X:     0.0002      Y:    -0.0004      Z:     0.0000     Total:     0.0004


*** tstop() called on atlantis at Tue Apr 19 10:22:36 2022
Module time:
	user time   =       4.06 seconds =       0.07 minutes
	system time =       0.14 seconds =       0.00 minutes
	total time  =          4 seconds =       0.07 minutes
Total time:
	user time   =       4.06 seconds =       0.07 minutes
	system time =       0.14 seconds =       0.00 minutes
	total time  =          4 seconds =       0.07 minutes
gradient() will perform analytic gradient computation.

*** tstart() called on atlantis
*** at Tue Apr 19 10:22:36 2022

   => Loading Basis Set <=

    Name: 6-31G
    Role: ORBITAL
    Keyword: BASIS
    atoms 1-3 entry C          line    87 file /home/akrom/software/anaconda3/envs/ffpenv/share/psi4/basis/6-31g.gbs 
    atoms 4-9 entry H          line    26 file /home/akrom/software/anaconda3/envs/ffpenv/share/psi4/basis/6-31g.gbs 


         ---------------------------------------------------------
                                   SCF
               by Justin Turney, Rob Parrish, Andy Simmonett
                          and Daniel G. A. Smith
                              RKS Reference
                        1 Threads,    500 MiB Core
         ---------------------------------------------------------

  ==> Geometry <==

    Molecular point group: cs
    Full point group: Cs

    Geometry (in Angstrom), charge = 0, multiplicity = 1:

       Center              X                  Y                   Z               Mass       
    ------------   -----------------  -----------------  -----------------  -----------------
         C            0.321531939855     0.813261460475     0.000000000000    12.000000000000
         C           -0.865048060145    -0.128168539525     0.000000000000    12.000000000000
         C            0.543531939855    -0.685078539525     0.000000000000    12.000000000000
         H            0.537951939855     1.360691460475    -0.920390000000     1.007825032230
         H            0.537951939855     1.360691460475     0.920390000000     1.007825032230
         H           -1.447418060145    -0.214488539525     0.920340000000     1.007825032230
         H           -1.447418060145    -0.214488539525    -0.920340000000     1.007825032230
         H            0.909371939855    -1.146288539525    -0.920370000000     1.007825032230
         H            0.909371939855    -1.146288539525     0.920370000000     1.007825032230

  Running in cs symmetry.

  Rotational constants: A =      0.66472  B =      0.66470  C =      0.41647 [cm^-1]
  Rotational constants: A =  19927.70596  B =  19927.20236  C =  12485.44714 [MHz]
  Nuclear repulsion =   75.281464809014025

  Charge       = 0
  Multiplicity = 1
  Electrons    = 24
  Nalpha       = 12
  Nbeta        = 12

  ==> Algorithm <==

  SCF Algorithm Type is DF.
  DIIS enabled.
  MOM disabled.
  Fractional occupation disabled.
  Guess Type is SAD.
  Energy threshold   = 1.00e-08
  Density threshold  = 1.00e-08
  Integral threshold = 0.00e+00

  ==> Primary Basis <==

  Basis Set: 6-31G
    Blend: 6-31G
    Number of shells: 27
    Number of basis function: 39
    Number of Cartesian functions: 39
    Spherical Harmonics?: false
    Max angular momentum: 1

  ==> DFT Potential <==

   => Composite Functional: M06-2X <= 

    Hybrid M06-2X Meta-GGA XC Functional

    Y. Zhao and D. G. Truhlar,  Theor. Chem. Acc., 120, 215, 2008


    Deriv               =              1
    GGA                 =           TRUE
    Meta                =           TRUE

    Exchange Hybrid     =           TRUE
    MP2 Hybrid          =          FALSE

   => Exchange Functionals <=

    1.0000   XC_HYB_MGGA_X_M06_2X

   => Exact (HF) Exchange <=

    0.5400               HF 

   => Correlation Functionals <=

    1.0000   XC_MGGA_C_M06_2X

   => Molecular Quadrature <=

    Radial Scheme          =       TREUTLER
    Pruning Scheme         =           FLAT
    Nuclear Scheme         =       TREUTLER

    BS radius alpha        =              1
    Pruning alpha          =              1
    Radial Points          =             75
    Spherical Points       =            302
    Total Points           =         198448
    Total Blocks           =           1570
    Max Points             =            256
    Max Functions          =             39

   => Loading Basis Set <=

    Name: (6-31G AUX)
    Role: JKFIT
    Keyword: DF_BASIS_SCF
    atoms 1-3 entry C          line   121 file /home/akrom/software/anaconda3/envs/ffpenv/share/psi4/basis/cc-pvdz-jkfit.gbs 
    atoms 4-9 entry H          line    51 file /home/akrom/software/anaconda3/envs/ffpenv/share/psi4/basis/cc-pvdz-jkfit.gbs 

  ==> Pre-Iterations <==

   -------------------------------------------------------
    Irrep   Nso     Nmo     Nalpha   Nbeta   Ndocc  Nsocc
   -------------------------------------------------------
     A'        27      27       0       0       0       0
     A"        12      12       0       0       0       0
   -------------------------------------------------------
    Total      39      39      12      12      12       0
   -------------------------------------------------------

  ==> Integral Setup <==

  DFHelper Memory: AOs need 0.006 GiB; user supplied 0.006 GiB. Using in-core AOs.

  ==> MemDFJK: Density-Fitted J/K Matrices <==

    J tasked:                   Yes
    K tasked:                   Yes
    wK tasked:                   No
    OpenMP threads:               1
    Memory [MiB]:                 6
    Algorithm:                 Core
    Schwarz Cutoff:           1E-12
    Mask sparsity (%):       0.0000
    Fitting Condition:        1E-10

   => Auxiliary Basis Set <=

  Basis Set: (6-31G AUX)
    Blend: CC-PVDZ-JKFIT
    Number of shells: 126
    Number of basis function: 393
    Number of Cartesian functions: 393
    Spherical Harmonics?: false
    Max angular momentum: 3

  Cached 100.0% of DFT collocation blocks in 0.525 [GiB].

  Minimum eigenvalue in the overlap matrix is 9.9475880981E-03.
  Using Symmetric Orthogonalization.

  SCF Guess: Superposition of Atomic Densities via on-the-fly atomic UHF.

  ==> Iterations <==

                           Total Energy        Delta E     RMS |[F,P]|

   @DF-RKS iter SAD:  -117.43810024539565   -1.17438e+02   0.00000e+00 
   @DF-RKS iter   1:  -117.66552249545715   -2.27422e-01   1.65374e-02 DIIS
   @DF-RKS iter   2:  -117.70506596903542   -3.95435e-02   1.41681e-02 DIIS
   @DF-RKS iter   3:  -117.79939637557680   -9.43304e-02   2.77873e-04 DIIS
   @DF-RKS iter   4:  -117.79945654139166   -6.01658e-05   4.37061e-05 DIIS
   @DF-RKS iter   5:  -117.79945807502889   -1.53364e-06   3.57235e-06 DIIS
   @DF-RKS iter   6:  -117.79945808780863   -1.27797e-08   3.31278e-07 DIIS
   @DF-RKS iter   7:  -117.79945808787461   -6.59810e-11   1.69214e-07 DIIS
   @DF-RKS iter   8:  -117.79945808788732   -1.27045e-11   2.76866e-08 DIIS
   @DF-RKS iter   9:  -117.79945808788771   -3.97904e-13   1.56593e-09 DIIS
  Energy and wave function converged.


  ==> Post-Iterations <==

    Orbital Energies [Eh]
    ---------------------

    Doubly Occupied:                                                      

       1Ap   -10.540454     2Ap   -10.539989     3Ap   -10.539983  
       4Ap    -0.946329     5Ap    -0.672683     6Ap    -0.672670  
       1App   -0.563877     7Ap    -0.525814     2App   -0.420967  
       3App   -0.420946     8Ap    -0.345873     9Ap    -0.345851  

    Virtual:                                                              

      10Ap     0.147661     4App    0.155449    11Ap     0.197792  
      12Ap     0.203331    13Ap     0.203338     5App    0.279258  
       6App    0.279269    14Ap     0.300967    15Ap     0.300983  
      16Ap     0.552726     7App    0.620705    17Ap     0.632898  
      18Ap     0.632932    19Ap     0.700639    20Ap     0.700653  
      21Ap     0.761918    22Ap     0.824875     8App    0.857525  
       9App    0.857579    10App    0.998679    23Ap     1.038784  
      24Ap     1.038901    11App    1.079650    12App    1.079790  
      25Ap     1.083497    26Ap     1.336965    27Ap     1.336975  

    Final Occupation by Irrep:
             Ap   App 
    DOCC [     9,    3 ]

  @DF-RKS Final Energy:  -117.79945808788771

   => Energetics <=

    Nuclear Repulsion Energy =             75.2814648090140253
    One-Electron Energy =                -305.7542893176644725
    Two-Electron Energy =                 121.5845054457907395
    DFT Exchange-Correlation Energy =      -8.9111390250280262
    Empirical Dispersion Energy =           0.0000000000000000
    VV10 Nonlocal Energy =                  0.0000000000000000
    Total Energy =                       -117.7994580878877144

Computation Completed


Properties will be evaluated at   0.000000,   0.000000,   0.000000 [a0]

Properties computed using the SCF density matrix

  Nuclear Dipole Moment: [e a0]
     X:    -0.0002      Y:    -0.0002      Z:     0.0000

  Electronic Dipole Moment: [e a0]
     X:     0.0002      Y:     0.0000      Z:     0.0000

  Dipole Moment: [e a0]
     X:     0.0001      Y:    -0.0002      Z:     0.0000     Total:     0.0002

  Dipole Moment: [D]
     X:     0.0002      Y:    -0.0004      Z:     0.0000     Total:     0.0004


*** tstop() called on atlantis at Tue Apr 19 10:22:42 2022
Module time:
	user time   =       5.40 seconds =       0.09 minutes
	system time =       0.05 seconds =       0.00 minutes
	total time  =          6 seconds =       0.10 minutes
Total time:
	user time   =       9.47 seconds =       0.16 minutes
	system time =       0.19 seconds =       0.00 minutes
	total time  =         10 seconds =       0.17 minutes

*** tstart() called on atlantis
*** at Tue Apr 19 10:22:42 2022


         ------------------------------------------------------------
                                   SCF GRAD                          
                          Rob Parrish, Justin Turney,                
                       Andy Simmonett, and Alex Sokolov              
         ------------------------------------------------------------

  ==> Geometry <==

    Molecular point group: cs
    Full point group: Cs

    Geometry (in Angstrom), charge = 0, multiplicity = 1:

       Center              X                  Y                   Z               Mass       
    ------------   -----------------  -----------------  -----------------  -----------------
         C            0.321531939855     0.813261460475     0.000000000000    12.000000000000
         C           -0.865048060145    -0.128168539525     0.000000000000    12.000000000000
         C            0.543531939855    -0.685078539525     0.000000000000    12.000000000000
         H            0.537951939855     1.360691460475    -0.920390000000     1.007825032230
         H            0.537951939855     1.360691460475     0.920390000000     1.007825032230
         H           -1.447418060145    -0.214488539525     0.920340000000     1.007825032230
         H           -1.447418060145    -0.214488539525    -0.920340000000     1.007825032230
         H            0.909371939855    -1.146288539525    -0.920370000000     1.007825032230
         H            0.909371939855    -1.146288539525     0.920370000000     1.007825032230

  Nuclear repulsion =   75.281464809014025

  ==> Basis Set <==

  Basis Set: 6-31G
    Blend: 6-31G
    Number of shells: 27
    Number of basis function: 39
    Number of Cartesian functions: 39
    Spherical Harmonics?: false
    Max angular momentum: 1

  ==> DFJKGrad: Density-Fitted SCF Gradients <==

    Gradient:                    1
    J tasked:                  Yes
    K tasked:                  Yes
    wK tasked:                  No
    OpenMP threads:              1
    Integrals threads:           1
    Memory [MiB]:              375
    Schwarz Cutoff:          0E+00
    Fitting Condition:       1E-10

   => Auxiliary Basis Set <=

  Basis Set: (6-31G AUX)
    Blend: CC-PVDZ-JKFIT
    Number of shells: 126
    Number of basis function: 393
    Number of Cartesian functions: 393
    Spherical Harmonics?: false
    Max angular momentum: 3

  ==> DFT Potential <==

   => Composite Functional: M06-2X <= 

    Hybrid M06-2X Meta-GGA XC Functional

    Y. Zhao and D. G. Truhlar,  Theor. Chem. Acc., 120, 215, 2008


    Deriv               =              1
    GGA                 =           TRUE
    Meta                =           TRUE

    Exchange Hybrid     =           TRUE
    MP2 Hybrid          =          FALSE

   => Exchange Functionals <=

    1.0000   XC_HYB_MGGA_X_M06_2X

   => Exact (HF) Exchange <=

    0.5400               HF 

   => Correlation Functionals <=

    1.0000   XC_MGGA_C_M06_2X

   => Molecular Quadrature <=

    Radial Scheme          =       TREUTLER
    Pruning Scheme         =           FLAT
    Nuclear Scheme         =       TREUTLER

    BS radius alpha        =              1
    Pruning alpha          =              1
    Radial Points          =             75
    Spherical Points       =            302
    Total Points           =         198448
    Total Blocks           =           1570
    Max Points             =            256
    Max Functions          =             39


  -Total Gradient:
     Atom            X                  Y                   Z
    ------   -----------------  -----------------  -----------------
       1       -0.001042276520    -0.002672720999     0.000000000000
       2        0.002881694657     0.000435510552     0.000000000000
       3       -0.001796658606     0.002238829487     0.000000000000
       4        0.000915899966     0.002313552777    -0.006595564964
       5        0.000915899966     0.002313552777     0.006595564964
       6       -0.002466607036    -0.000380297189     0.006579432727
       7       -0.002466607036    -0.000380297189    -0.006579432727
       8        0.001551712401    -0.001975769733    -0.006579765029
       9        0.001551712401    -0.001975769733     0.006579765029


*** tstop() called on atlantis at Tue Apr 19 10:22:43 2022
Module time:
	user time   =       0.94 seconds =       0.02 minutes
	system time =       0.01 seconds =       0.00 minutes
	total time  =          1 seconds =       0.02 minutes
Total time:
	user time   =      10.41 seconds =       0.17 minutes
	system time =       0.20 seconds =       0.00 minutes
	total time  =         11 seconds =       0.18 minutes

  Based on options and gradient (rms=3.46E-03), recommend projecting translations and projecting rotations.
hessian() will perform frequency computation by finite difference of analytic gradients.

         ----------------------------------------------------------
                                   FINDIF
                     R. A. King and Jonathon Misiewicz
         ---------------------------------------------------------

  Using finite-differences of gradients to determine vibrational frequencies and 
  normal modes.  Resulting frequencies are only valid at stationary points.
    Generating geometries for use with 3-point formula.
    Displacement size will be 5.00e-03.
    Number of atoms is 9.
    Number of irreps is 2.
    Number of SALCs is 21.
    Translations projected? 1. Rotations projected? 1.
    Index of SALCs per irrep:
     1 :  0  1  2  3  4  5  6  7  8  9  10  11 
     2 :  12  13  14  15  16  17  18  19  20 
    Number of SALCs per irrep:
     Irrep 1: 12
     Irrep 2: 9
    Number of geometries (including reference) is 34.
    Number of displacements per irrep:
      Irrep 1: 24
      Irrep 2: 9

  //>>>>>>>>>>>>>>>>>>>>>>>>>>>>>>>>>>>//
  //    Loading displacement 1 of 34   //
  //<<<<<<<<<<<<<<<<<<<<<<<<<<<<<<<<<<<//
gradient() will perform analytic gradient computation.

*** tstart() called on atlantis
*** at Tue Apr 19 10:22:43 2022

   => Loading Basis Set <=

    Name: 6-31G
    Role: ORBITAL
    Keyword: BASIS
    atoms 1-3 entry C          line    87 file /home/akrom/software/anaconda3/envs/ffpenv/share/psi4/basis/6-31g.gbs 
    atoms 4-9 entry H          line    26 file /home/akrom/software/anaconda3/envs/ffpenv/share/psi4/basis/6-31g.gbs 


         ---------------------------------------------------------
                                   SCF
               by Justin Turney, Rob Parrish, Andy Simmonett
                          and Daniel G. A. Smith
                              RKS Reference
                        1 Threads,    500 MiB Core
         ---------------------------------------------------------

  ==> Geometry <==

    Molecular point group: cs
    Full point group: Cs

    Geometry (in Angstrom), charge = 0, multiplicity = 1:

       Center              X                  Y                   Z               Mass       
    ------------   -----------------  -----------------  -----------------  -----------------
         C            0.321531939855     0.813261460475     0.000000000000    12.000000000000
         C           -0.865048060145    -0.128168539525     0.000000000000    12.000000000000
         C            0.543531939855    -0.685078539525     0.000000000000    12.000000000000
         H            0.537951939855     1.360691460475    -0.920390000000     1.007825032230
         H            0.537951939855     1.360691460475     0.920390000000     1.007825032230
         H           -1.447418060145    -0.214488539525     0.920340000000     1.007825032230
         H           -1.447418060145    -0.214488539525    -0.920340000000     1.007825032230
         H            0.909371939855    -1.146288539525    -0.920370000000     1.007825032230
         H            0.909371939855    -1.146288539525     0.920370000000     1.007825032230

  Running in cs symmetry.

  Rotational constants: A =      0.66472  B =      0.66470  C =      0.41647 [cm^-1]
  Rotational constants: A =  19927.70596  B =  19927.20236  C =  12485.44714 [MHz]
  Nuclear repulsion =   75.281464809014025

  Charge       = 0
  Multiplicity = 1
  Electrons    = 24
  Nalpha       = 12
  Nbeta        = 12

  ==> Algorithm <==

  SCF Algorithm Type is DF.
  DIIS enabled.
  MOM disabled.
  Fractional occupation disabled.
  Guess Type is SAD.
  Energy threshold   = 1.00e-08
  Density threshold  = 1.00e-08
  Integral threshold = 0.00e+00

  ==> Primary Basis <==

  Basis Set: 6-31G
    Blend: 6-31G
    Number of shells: 27
    Number of basis function: 39
    Number of Cartesian functions: 39
    Spherical Harmonics?: false
    Max angular momentum: 1

  ==> DFT Potential <==

   => Composite Functional: M06-2X <= 

    Hybrid M06-2X Meta-GGA XC Functional

    Y. Zhao and D. G. Truhlar,  Theor. Chem. Acc., 120, 215, 2008


    Deriv               =              1
    GGA                 =           TRUE
    Meta                =           TRUE

    Exchange Hybrid     =           TRUE
    MP2 Hybrid          =          FALSE

   => Exchange Functionals <=

    1.0000   XC_HYB_MGGA_X_M06_2X

   => Exact (HF) Exchange <=

    0.5400               HF 

   => Correlation Functionals <=

    1.0000   XC_MGGA_C_M06_2X

   => Molecular Quadrature <=

    Radial Scheme          =       TREUTLER
    Pruning Scheme         =           FLAT
    Nuclear Scheme         =       TREUTLER

    BS radius alpha        =              1
    Pruning alpha          =              1
    Radial Points          =             75
    Spherical Points       =            302
    Total Points           =         198448
    Total Blocks           =           1570
    Max Points             =            256
    Max Functions          =             39

   => Loading Basis Set <=

    Name: (6-31G AUX)
    Role: JKFIT
    Keyword: DF_BASIS_SCF
    atoms 1-3 entry C          line   121 file /home/akrom/software/anaconda3/envs/ffpenv/share/psi4/basis/cc-pvdz-jkfit.gbs 
    atoms 4-9 entry H          line    51 file /home/akrom/software/anaconda3/envs/ffpenv/share/psi4/basis/cc-pvdz-jkfit.gbs 

  ==> Pre-Iterations <==

   -------------------------------------------------------
    Irrep   Nso     Nmo     Nalpha   Nbeta   Ndocc  Nsocc
   -------------------------------------------------------
     A'        27      27       0       0       0       0
     A"        12      12       0       0       0       0
   -------------------------------------------------------
    Total      39      39      12      12      12       0
   -------------------------------------------------------

  ==> Integral Setup <==

  DFHelper Memory: AOs need 0.006 GiB; user supplied 0.006 GiB. Using in-core AOs.

  ==> MemDFJK: Density-Fitted J/K Matrices <==

    J tasked:                   Yes
    K tasked:                   Yes
    wK tasked:                   No
    OpenMP threads:               1
    Memory [MiB]:                 6
    Algorithm:                 Core
    Schwarz Cutoff:           1E-12
    Mask sparsity (%):       0.0000
    Fitting Condition:        1E-10

   => Auxiliary Basis Set <=

  Basis Set: (6-31G AUX)
    Blend: CC-PVDZ-JKFIT
    Number of shells: 126
    Number of basis function: 393
    Number of Cartesian functions: 393
    Spherical Harmonics?: false
    Max angular momentum: 3

  Cached 100.0% of DFT collocation blocks in 0.525 [GiB].

  Minimum eigenvalue in the overlap matrix is 9.9475880981E-03.
  Using Symmetric Orthogonalization.

  SCF Guess: Superposition of Atomic Densities via on-the-fly atomic UHF.

  ==> Iterations <==

                           Total Energy        Delta E     RMS |[F,P]|

   @DF-RKS iter SAD:  -117.43810024539611   -1.17438e+02   0.00000e+00 
   @DF-RKS iter   1:  -117.66552249545749   -2.27422e-01   1.65374e-02 DIIS
   @DF-RKS iter   2:  -117.70506596903584   -3.95435e-02   1.41681e-02 DIIS
   @DF-RKS iter   3:  -117.79939637557716   -9.43304e-02   2.77873e-04 DIIS
   @DF-RKS iter   4:  -117.79945654139196   -6.01658e-05   4.37061e-05 DIIS
   @DF-RKS iter   5:  -117.79945807502914   -1.53364e-06   3.57235e-06 DIIS
   @DF-RKS iter   6:  -117.79945808780904   -1.27799e-08   3.31278e-07 DIIS
   @DF-RKS iter   7:  -117.79945808787491   -6.58673e-11   1.69214e-07 DIIS
   @DF-RKS iter   8:  -117.79945808788780   -1.28892e-11   2.76866e-08 DIIS
   @DF-RKS iter   9:  -117.79945808788817   -3.69482e-13   1.56593e-09 DIIS
  Energy and wave function converged.


  ==> Post-Iterations <==

    Orbital Energies [Eh]
    ---------------------

    Doubly Occupied:                                                      

       1Ap   -10.540454     2Ap   -10.539989     3Ap   -10.539983  
       4Ap    -0.946329     5Ap    -0.672683     6Ap    -0.672670  
       1App   -0.563877     7Ap    -0.525814     2App   -0.420967  
       3App   -0.420946     8Ap    -0.345873     9Ap    -0.345851  

    Virtual:                                                              

      10Ap     0.147661     4App    0.155449    11Ap     0.197792  
      12Ap     0.203331    13Ap     0.203338     5App    0.279258  
       6App    0.279269    14Ap     0.300967    15Ap     0.300983  
      16Ap     0.552726     7App    0.620705    17Ap     0.632898  
      18Ap     0.632932    19Ap     0.700639    20Ap     0.700653  
      21Ap     0.761918    22Ap     0.824875     8App    0.857525  
       9App    0.857579    10App    0.998679    23Ap     1.038784  
      24Ap     1.038901    11App    1.079650    12App    1.079790  
      25Ap     1.083497    26Ap     1.336965    27Ap     1.336975  

    Final Occupation by Irrep:
             Ap   App 
    DOCC [     9,    3 ]

  @DF-RKS Final Energy:  -117.79945808788817

   => Energetics <=

    Nuclear Repulsion Energy =             75.2814648090140253
    One-Electron Energy =                -305.7542893176635630
    Two-Electron Energy =                 121.5845054457893752
    DFT Exchange-Correlation Energy =      -8.9111390250280156
    Empirical Dispersion Energy =           0.0000000000000000
    VV10 Nonlocal Energy =                  0.0000000000000000
    Total Energy =                       -117.7994580878881692

Computation Completed


Properties will be evaluated at   0.000000,   0.000000,   0.000000 [a0]

Properties computed using the SCF density matrix

  Nuclear Dipole Moment: [e a0]
     X:    -0.0002      Y:    -0.0002      Z:     0.0000

  Electronic Dipole Moment: [e a0]
     X:     0.0002      Y:     0.0000      Z:     0.0000

  Dipole Moment: [e a0]
     X:     0.0001      Y:    -0.0002      Z:     0.0000     Total:     0.0002

  Dipole Moment: [D]
     X:     0.0002      Y:    -0.0004      Z:     0.0000     Total:     0.0004


*** tstop() called on atlantis at Tue Apr 19 10:22:48 2022
Module time:
	user time   =       5.41 seconds =       0.09 minutes
	system time =       0.03 seconds =       0.00 minutes
	total time  =          5 seconds =       0.08 minutes
Total time:
	user time   =      16.10 seconds =       0.27 minutes
	system time =       0.24 seconds =       0.00 minutes
	total time  =         16 seconds =       0.27 minutes

*** tstart() called on atlantis
*** at Tue Apr 19 10:22:48 2022


         ------------------------------------------------------------
                                   SCF GRAD                          
                          Rob Parrish, Justin Turney,                
                       Andy Simmonett, and Alex Sokolov              
         ------------------------------------------------------------

  ==> Geometry <==

    Molecular point group: cs
    Full point group: Cs

    Geometry (in Angstrom), charge = 0, multiplicity = 1:

       Center              X                  Y                   Z               Mass       
    ------------   -----------------  -----------------  -----------------  -----------------
         C            0.321531939855     0.813261460475     0.000000000000    12.000000000000
         C           -0.865048060145    -0.128168539525     0.000000000000    12.000000000000
         C            0.543531939855    -0.685078539525     0.000000000000    12.000000000000
         H            0.537951939855     1.360691460475    -0.920390000000     1.007825032230
         H            0.537951939855     1.360691460475     0.920390000000     1.007825032230
         H           -1.447418060145    -0.214488539525     0.920340000000     1.007825032230
         H           -1.447418060145    -0.214488539525    -0.920340000000     1.007825032230
         H            0.909371939855    -1.146288539525    -0.920370000000     1.007825032230
         H            0.909371939855    -1.146288539525     0.920370000000     1.007825032230

  Nuclear repulsion =   75.281464809014025

  ==> Basis Set <==

  Basis Set: 6-31G
    Blend: 6-31G
    Number of shells: 27
    Number of basis function: 39
    Number of Cartesian functions: 39
    Spherical Harmonics?: false
    Max angular momentum: 1

  ==> DFJKGrad: Density-Fitted SCF Gradients <==

    Gradient:                    1
    J tasked:                  Yes
    K tasked:                  Yes
    wK tasked:                  No
    OpenMP threads:              1
    Integrals threads:           1
    Memory [MiB]:              375
    Schwarz Cutoff:          0E+00
    Fitting Condition:       1E-10

   => Auxiliary Basis Set <=

  Basis Set: (6-31G AUX)
    Blend: CC-PVDZ-JKFIT
    Number of shells: 126
    Number of basis function: 393
    Number of Cartesian functions: 393
    Spherical Harmonics?: false
    Max angular momentum: 3

  ==> DFT Potential <==

   => Composite Functional: M06-2X <= 

    Hybrid M06-2X Meta-GGA XC Functional

    Y. Zhao and D. G. Truhlar,  Theor. Chem. Acc., 120, 215, 2008


    Deriv               =              1
    GGA                 =           TRUE
    Meta                =           TRUE

    Exchange Hybrid     =           TRUE
    MP2 Hybrid          =          FALSE

   => Exchange Functionals <=

    1.0000   XC_HYB_MGGA_X_M06_2X

   => Exact (HF) Exchange <=

    0.5400               HF 

   => Correlation Functionals <=

    1.0000   XC_MGGA_C_M06_2X

   => Molecular Quadrature <=

    Radial Scheme          =       TREUTLER
    Pruning Scheme         =           FLAT
    Nuclear Scheme         =       TREUTLER

    BS radius alpha        =              1
    Pruning alpha          =              1
    Radial Points          =             75
    Spherical Points       =            302
    Total Points           =         198448
    Total Blocks           =           1570
    Max Points             =            256
    Max Functions          =             39


  -Total Gradient:
     Atom            X                  Y                   Z
    ------   -----------------  -----------------  -----------------
       1       -0.001042276871    -0.002672721414     0.000000000000
       2        0.002881694794     0.000435510016     0.000000000000
       3       -0.001796659031     0.002238828794     0.000000000000
       4        0.000915900155     0.002313553281    -0.006595565871
       5        0.000915900155     0.002313553281     0.006595565871
       6       -0.002466606759    -0.000380297117     0.006579432291
       7       -0.002466606759    -0.000380297117    -0.006579432291
       8        0.001551712255    -0.001975769488    -0.006579764697
       9        0.001551712255    -0.001975769488     0.006579764697


*** tstop() called on atlantis at Tue Apr 19 10:22:49 2022
Module time:
	user time   =       0.95 seconds =       0.02 minutes
	system time =       0.00 seconds =       0.00 minutes
	total time  =          1 seconds =       0.02 minutes
Total time:
	user time   =      17.05 seconds =       0.28 minutes
	system time =       0.24 seconds =       0.00 minutes
	total time  =         17 seconds =       0.28 minutes

  //>>>>>>>>>>>>>>>>>>>>>>>>>>>>>>>>>>>//
  //    Loading displacement 2 of 34   //
  //<<<<<<<<<<<<<<<<<<<<<<<<<<<<<<<<<<<//
gradient() will perform analytic gradient computation.

*** tstart() called on atlantis
*** at Tue Apr 19 10:22:49 2022

   => Loading Basis Set <=

    Name: 6-31G
    Role: ORBITAL
    Keyword: BASIS
    atoms 1-3 entry C          line    87 file /home/akrom/software/anaconda3/envs/ffpenv/share/psi4/basis/6-31g.gbs 
    atoms 4-9 entry H          line    26 file /home/akrom/software/anaconda3/envs/ffpenv/share/psi4/basis/6-31g.gbs 


         ---------------------------------------------------------
                                   SCF
               by Justin Turney, Rob Parrish, Andy Simmonett
                          and Daniel G. A. Smith
                              RKS Reference
                        1 Threads,    500 MiB Core
         ---------------------------------------------------------

  ==> Geometry <==

    Molecular point group: cs
    Full point group: Cs

    Geometry (in Angstrom), charge = 0, multiplicity = 1:

       Center              X                  Y                   Z               Mass       
    ------------   -----------------  -----------------  -----------------  -----------------
         C            0.320981935461     0.813179232929     0.000000000000    12.000000000000
         C           -0.864778117207    -0.127947314912     0.000000000000    12.000000000000
         C            0.543659460418    -0.685217540638     0.000000000000    12.000000000000
         H            0.538602639069     1.360553886373    -0.920390000000     1.007825032230
         H            0.538602639069     1.360553886373     0.920390000000     1.007825032230
         H           -1.447170192407    -0.214118381478     0.920340000000     1.007825032230
         H           -1.447170192407    -0.214118381478    -0.920340000000     1.007825032230
         H            0.909381512053    -1.146521099385    -0.920370000000     1.007825032230
         H            0.909381512053    -1.146521099385     0.920370000000     1.007825032230

  Running in cs symmetry.

  Rotational constants: A =      0.66511  B =      0.66452  C =      0.41655 [cm^-1]
  Rotational constants: A =  19939.46144  B =  19921.88173  C =  12487.97026 [MHz]
  Nuclear repulsion =   75.286659304380962

  Charge       = 0
  Multiplicity = 1
  Electrons    = 24
  Nalpha       = 12
  Nbeta        = 12

  ==> Algorithm <==

  SCF Algorithm Type is DF.
  DIIS enabled.
  MOM disabled.
  Fractional occupation disabled.
  Guess Type is SAD.
  Energy threshold   = 1.00e-08
  Density threshold  = 1.00e-08
  Integral threshold = 0.00e+00

  ==> Primary Basis <==

  Basis Set: 6-31G
    Blend: 6-31G
    Number of shells: 27
    Number of basis function: 39
    Number of Cartesian functions: 39
    Spherical Harmonics?: false
    Max angular momentum: 1

  ==> DFT Potential <==

   => Composite Functional: M06-2X <= 

    Hybrid M06-2X Meta-GGA XC Functional

    Y. Zhao and D. G. Truhlar,  Theor. Chem. Acc., 120, 215, 2008


    Deriv               =              1
    GGA                 =           TRUE
    Meta                =           TRUE

    Exchange Hybrid     =           TRUE
    MP2 Hybrid          =          FALSE

   => Exchange Functionals <=

    1.0000   XC_HYB_MGGA_X_M06_2X

   => Exact (HF) Exchange <=

    0.5400               HF 

   => Correlation Functionals <=

    1.0000   XC_MGGA_C_M06_2X

   => Molecular Quadrature <=

    Radial Scheme          =       TREUTLER
    Pruning Scheme         =           FLAT
    Nuclear Scheme         =       TREUTLER

    BS radius alpha        =              1
    Pruning alpha          =              1
    Radial Points          =             75
    Spherical Points       =            302
    Total Points           =         198412
    Total Blocks           =           1546
    Max Points             =            256
    Max Functions          =             39

   => Loading Basis Set <=

    Name: (6-31G AUX)
    Role: JKFIT
    Keyword: DF_BASIS_SCF
    atoms 1-3 entry C          line   121 file /home/akrom/software/anaconda3/envs/ffpenv/share/psi4/basis/cc-pvdz-jkfit.gbs 
    atoms 4-9 entry H          line    51 file /home/akrom/software/anaconda3/envs/ffpenv/share/psi4/basis/cc-pvdz-jkfit.gbs 

  ==> Pre-Iterations <==

   -------------------------------------------------------
    Irrep   Nso     Nmo     Nalpha   Nbeta   Ndocc  Nsocc
   -------------------------------------------------------
     A'        27      27       0       0       0       0
     A"        12      12       0       0       0       0
   -------------------------------------------------------
    Total      39      39      12      12      12       0
   -------------------------------------------------------

  ==> Integral Setup <==

  DFHelper Memory: AOs need 0.006 GiB; user supplied 0.006 GiB. Using in-core AOs.

  ==> MemDFJK: Density-Fitted J/K Matrices <==

    J tasked:                   Yes
    K tasked:                   Yes
    wK tasked:                   No
    OpenMP threads:               1
    Memory [MiB]:                 6
    Algorithm:                 Core
    Schwarz Cutoff:           1E-12
    Mask sparsity (%):       0.0000
    Fitting Condition:        1E-10

   => Auxiliary Basis Set <=

  Basis Set: (6-31G AUX)
    Blend: CC-PVDZ-JKFIT
    Number of shells: 126
    Number of basis function: 393
    Number of Cartesian functions: 393
    Spherical Harmonics?: false
    Max angular momentum: 3

  Cached 100.0% of DFT collocation blocks in 0.525 [GiB].

  Minimum eigenvalue in the overlap matrix is 9.9349217114E-03.
  Using Symmetric Orthogonalization.

  SCF Guess: Superposition of Atomic Densities via on-the-fly atomic UHF.

  ==> Iterations <==

                           Total Energy        Delta E     RMS |[F,P]|

   @DF-RKS iter SAD:  -117.43867088848320   -1.17439e+02   0.00000e+00 
   @DF-RKS iter   1:  -117.66545592217494   -2.26785e-01   1.65423e-02 DIIS
   @DF-RKS iter   2:  -117.70498061646839   -3.95247e-02   1.41750e-02 DIIS
   @DF-RKS iter   3:  -117.79939997091708   -9.44194e-02   2.77853e-04 DIIS
   @DF-RKS iter   4:  -117.79946012138703   -6.01505e-05   4.37334e-05 DIIS
   @DF-RKS iter   5:  -117.79946165489588   -1.53351e-06   3.84094e-06 DIIS
   @DF-RKS iter   6:  -117.79946166730231   -1.24064e-08   1.71592e-06 DIIS
   @DF-RKS iter   7:  -117.79946166860556   -1.30325e-09   3.29149e-07 DIIS
   @DF-RKS iter   8:  -117.79946166866021   -5.46549e-11   1.17940e-08 DIIS
   @DF-RKS iter   9:  -117.79946166866021    0.00000e+00   1.56981e-09 DIIS
  Energy and wave function converged.


  ==> Post-Iterations <==

    Orbital Energies [Eh]
    ---------------------

    Doubly Occupied:                                                      

       1Ap   -10.540445     2Ap   -10.539983     3Ap   -10.539967  
       4Ap    -0.946443     5Ap    -0.672705     6Ap    -0.672615  
       1App   -0.563892     7Ap    -0.525875     2App   -0.420961  
       3App   -0.420844     8Ap    -0.346098     9Ap    -0.345690  

    Virtual:                                                              

      10Ap     0.147656     4App    0.155388    11Ap     0.197872  
      12Ap     0.203331    13Ap     0.203350     5App    0.279234  
       6App    0.279299    14Ap     0.300882    15Ap     0.301194  
      16Ap     0.552674     7App    0.620756    17Ap     0.632798  
      18Ap     0.632968    19Ap     0.700562    20Ap     0.701049  
      21Ap     0.761972    22Ap     0.824816     8App    0.857279  
       9App    0.857793    10App    0.998601    23Ap     1.038724  
      24Ap     1.038926    11App    1.079453    12App    1.079912  
      25Ap     1.083447    26Ap     1.337033    27Ap     1.337093  

    Final Occupation by Irrep:
             Ap   App 
    DOCC [     9,    3 ]

  @DF-RKS Final Energy:  -117.79946166866021

   => Energetics <=

    Nuclear Repulsion Energy =             75.2866593043809615
    One-Electron Energy =                -305.7645026857463790
    Two-Electron Energy =                 121.5895696062887623
    DFT Exchange-Correlation Energy =      -8.9111878935835716
    Empirical Dispersion Energy =           0.0000000000000000
    VV10 Nonlocal Energy =                  0.0000000000000000
    Total Energy =                       -117.7994616686602143

Computation Completed


Properties will be evaluated at   0.000000,   0.000000,   0.000000 [a0]

Properties computed using the SCF density matrix

  Nuclear Dipole Moment: [e a0]
     X:     0.0015      Y:    -0.0002      Z:     0.0000

  Electronic Dipole Moment: [e a0]
     X:    -0.0016      Y:     0.0003      Z:     0.0000

  Dipole Moment: [e a0]
     X:    -0.0001      Y:     0.0001      Z:     0.0000     Total:     0.0001

  Dipole Moment: [D]
     X:    -0.0001      Y:     0.0003      Z:     0.0000     Total:     0.0003


*** tstop() called on atlantis at Tue Apr 19 10:22:55 2022
Module time:
	user time   =       5.37 seconds =       0.09 minutes
	system time =       0.05 seconds =       0.00 minutes
	total time  =          6 seconds =       0.10 minutes
Total time:
	user time   =      22.42 seconds =       0.37 minutes
	system time =       0.29 seconds =       0.00 minutes
	total time  =         23 seconds =       0.38 minutes

*** tstart() called on atlantis
*** at Tue Apr 19 10:22:55 2022


         ------------------------------------------------------------
                                   SCF GRAD                          
                          Rob Parrish, Justin Turney,                
                       Andy Simmonett, and Alex Sokolov              
         ------------------------------------------------------------

  ==> Geometry <==

    Molecular point group: cs
    Full point group: Cs

    Geometry (in Angstrom), charge = 0, multiplicity = 1:

       Center              X                  Y                   Z               Mass       
    ------------   -----------------  -----------------  -----------------  -----------------
         C            0.320981935461     0.813179232929     0.000000000000    12.000000000000
         C           -0.864778117207    -0.127947314912     0.000000000000    12.000000000000
         C            0.543659460418    -0.685217540638     0.000000000000    12.000000000000
         H            0.538602639069     1.360553886373    -0.920390000000     1.007825032230
         H            0.538602639069     1.360553886373     0.920390000000     1.007825032230
         H           -1.447170192407    -0.214118381478     0.920340000000     1.007825032230
         H           -1.447170192407    -0.214118381478    -0.920340000000     1.007825032230
         H            0.909381512053    -1.146521099385    -0.920370000000     1.007825032230
         H            0.909381512053    -1.146521099385     0.920370000000     1.007825032230

  Nuclear repulsion =   75.286659304380962

  ==> Basis Set <==

  Basis Set: 6-31G
    Blend: 6-31G
    Number of shells: 27
    Number of basis function: 39
    Number of Cartesian functions: 39
    Spherical Harmonics?: false
    Max angular momentum: 1

  ==> DFJKGrad: Density-Fitted SCF Gradients <==

    Gradient:                    1
    J tasked:                  Yes
    K tasked:                  Yes
    wK tasked:                  No
    OpenMP threads:              1
    Integrals threads:           1
    Memory [MiB]:              375
    Schwarz Cutoff:          0E+00
    Fitting Condition:       1E-10

   => Auxiliary Basis Set <=

  Basis Set: (6-31G AUX)
    Blend: CC-PVDZ-JKFIT
    Number of shells: 126
    Number of basis function: 393
    Number of Cartesian functions: 393
    Spherical Harmonics?: false
    Max angular momentum: 3

  ==> DFT Potential <==

   => Composite Functional: M06-2X <= 

    Hybrid M06-2X Meta-GGA XC Functional

    Y. Zhao and D. G. Truhlar,  Theor. Chem. Acc., 120, 215, 2008


    Deriv               =              1
    GGA                 =           TRUE
    Meta                =           TRUE

    Exchange Hybrid     =           TRUE
    MP2 Hybrid          =          FALSE

   => Exchange Functionals <=

    1.0000   XC_HYB_MGGA_X_M06_2X

   => Exact (HF) Exchange <=

    0.5400               HF 

   => Correlation Functionals <=

    1.0000   XC_MGGA_C_M06_2X

   => Molecular Quadrature <=

    Radial Scheme          =       TREUTLER
    Pruning Scheme         =           FLAT
    Nuclear Scheme         =       TREUTLER

    BS radius alpha        =              1
    Pruning alpha          =              1
    Radial Points          =             75
    Spherical Points       =            302
    Total Points           =         198412
    Total Blocks           =           1546
    Max Points             =            256
    Max Functions          =             39


  -Total Gradient:
     Atom            X                  Y                   Z
    ------   -----------------  -----------------  -----------------
       1       -0.001658474791    -0.002914931259     0.000000000000
       2        0.003151623096     0.000570377461     0.000000000000
       3       -0.001741483326     0.002241009294     0.000000000000
       4        0.001026939580     0.002389806529    -0.006680217203
       5        0.001026939580     0.002389806529     0.006680217203
       6       -0.002456807568    -0.000349326457     0.006577670126
       7       -0.002456807568    -0.000349326457    -0.006577670126
       8        0.001542189602    -0.001988671104    -0.006581468522
       9        0.001542189602    -0.001988671104     0.006581468522


*** tstop() called on atlantis at Tue Apr 19 10:22:56 2022
Module time:
	user time   =       0.95 seconds =       0.02 minutes
	system time =       0.00 seconds =       0.00 minutes
	total time  =          1 seconds =       0.02 minutes
Total time:
	user time   =      23.37 seconds =       0.39 minutes
	system time =       0.29 seconds =       0.00 minutes
	total time  =         24 seconds =       0.40 minutes

  //>>>>>>>>>>>>>>>>>>>>>>>>>>>>>>>>>>>//
  //    Loading displacement 3 of 34   //
  //<<<<<<<<<<<<<<<<<<<<<<<<<<<<<<<<<<<//
gradient() will perform analytic gradient computation.

*** tstart() called on atlantis
*** at Tue Apr 19 10:22:56 2022

   => Loading Basis Set <=

    Name: 6-31G
    Role: ORBITAL
    Keyword: BASIS
    atoms 1-3 entry C          line    87 file /home/akrom/software/anaconda3/envs/ffpenv/share/psi4/basis/6-31g.gbs 
    atoms 4-9 entry H          line    26 file /home/akrom/software/anaconda3/envs/ffpenv/share/psi4/basis/6-31g.gbs 


         ---------------------------------------------------------
                                   SCF
               by Justin Turney, Rob Parrish, Andy Simmonett
                          and Daniel G. A. Smith
                              RKS Reference
                        1 Threads,    500 MiB Core
         ---------------------------------------------------------

  ==> Geometry <==

    Molecular point group: cs
    Full point group: Cs

    Geometry (in Angstrom), charge = 0, multiplicity = 1:

       Center              X                  Y                   Z               Mass       
    ------------   -----------------  -----------------  -----------------  -----------------
         C            0.322081944250     0.813343688021     0.000000000000    12.000000000000
         C           -0.865318003082    -0.128389764139     0.000000000000    12.000000000000
         C            0.543404419293    -0.684939538412     0.000000000000    12.000000000000
         H            0.537301240642     1.360829034576    -0.920390000000     1.007825032230
         H            0.537301240642     1.360829034576     0.920390000000     1.007825032230
         H           -1.447665927882    -0.214858697572     0.920340000000     1.007825032230
         H           -1.447665927882    -0.214858697572    -0.920340000000     1.007825032230
         H            0.909362367658    -1.146055979665    -0.920370000000     1.007825032230
         H            0.909362367658    -1.146055979665     0.920370000000     1.007825032230

  Running in cs symmetry.

  Rotational constants: A =      0.66489  B =      0.66431  C =      0.41639 [cm^-1]
  Rotational constants: A =  19932.94970  B =  19915.53021  C =  12482.92073 [MHz]
  Nuclear repulsion =   75.276267816162189

  Charge       = 0
  Multiplicity = 1
  Electrons    = 24
  Nalpha       = 12
  Nbeta        = 12

  ==> Algorithm <==

  SCF Algorithm Type is DF.
  DIIS enabled.
  MOM disabled.
  Fractional occupation disabled.
  Guess Type is SAD.
  Energy threshold   = 1.00e-08
  Density threshold  = 1.00e-08
  Integral threshold = 0.00e+00

  ==> Primary Basis <==

  Basis Set: 6-31G
    Blend: 6-31G
    Number of shells: 27
    Number of basis function: 39
    Number of Cartesian functions: 39
    Spherical Harmonics?: false
    Max angular momentum: 1

  ==> DFT Potential <==

   => Composite Functional: M06-2X <= 

    Hybrid M06-2X Meta-GGA XC Functional

    Y. Zhao and D. G. Truhlar,  Theor. Chem. Acc., 120, 215, 2008


    Deriv               =              1
    GGA                 =           TRUE
    Meta                =           TRUE

    Exchange Hybrid     =           TRUE
    MP2 Hybrid          =          FALSE

   => Exchange Functionals <=

    1.0000   XC_HYB_MGGA_X_M06_2X

   => Exact (HF) Exchange <=

    0.5400               HF 

   => Correlation Functionals <=

    1.0000   XC_MGGA_C_M06_2X

   => Molecular Quadrature <=

    Radial Scheme          =       TREUTLER
    Pruning Scheme         =           FLAT
    Nuclear Scheme         =       TREUTLER

    BS radius alpha        =              1
    Pruning alpha          =              1
    Radial Points          =             75
    Spherical Points       =            302
    Total Points           =         198423
    Total Blocks           =           1548
    Max Points             =            256
    Max Functions          =             39

   => Loading Basis Set <=

    Name: (6-31G AUX)
    Role: JKFIT
    Keyword: DF_BASIS_SCF
    atoms 1-3 entry C          line   121 file /home/akrom/software/anaconda3/envs/ffpenv/share/psi4/basis/cc-pvdz-jkfit.gbs 
    atoms 4-9 entry H          line    51 file /home/akrom/software/anaconda3/envs/ffpenv/share/psi4/basis/cc-pvdz-jkfit.gbs 

  ==> Pre-Iterations <==

   -------------------------------------------------------
    Irrep   Nso     Nmo     Nalpha   Nbeta   Ndocc  Nsocc
   -------------------------------------------------------
     A'        27      27       0       0       0       0
     A"        12      12       0       0       0       0
   -------------------------------------------------------
    Total      39      39      12      12      12       0
   -------------------------------------------------------

  ==> Integral Setup <==

  DFHelper Memory: AOs need 0.006 GiB; user supplied 0.006 GiB. Using in-core AOs.

  ==> MemDFJK: Density-Fitted J/K Matrices <==

    J tasked:                   Yes
    K tasked:                   Yes
    wK tasked:                   No
    OpenMP threads:               1
    Memory [MiB]:                 6
    Algorithm:                 Core
    Schwarz Cutoff:           1E-12
    Mask sparsity (%):       0.0000
    Fitting Condition:        1E-10

   => Auxiliary Basis Set <=

  Basis Set: (6-31G AUX)
    Blend: CC-PVDZ-JKFIT
    Number of shells: 126
    Number of basis function: 393
    Number of Cartesian functions: 393
    Spherical Harmonics?: false
    Max angular momentum: 3

  Cached 100.0% of DFT collocation blocks in 0.525 [GiB].

  Minimum eigenvalue in the overlap matrix is 9.9459059171E-03.
  Using Symmetric Orthogonalization.

  SCF Guess: Superposition of Atomic Densities via on-the-fly atomic UHF.

  ==> Iterations <==

                           Total Energy        Delta E     RMS |[F,P]|

   @DF-RKS iter SAD:  -117.43755637624187   -1.17438e+02   0.00000e+00 
   @DF-RKS iter   1:  -117.66560910301760   -2.28053e-01   1.65331e-02 DIIS
   @DF-RKS iter   2:  -117.70516424383082   -3.95551e-02   1.41617e-02 DIIS
   @DF-RKS iter   3:  -117.79940677366392   -9.42425e-02   2.77717e-04 DIIS
   @DF-RKS iter   4:  -117.79946687252792   -6.00989e-05   4.37142e-05 DIIS
   @DF-RKS iter   5:  -117.79946840590233   -1.53337e-06   3.84859e-06 DIIS
   @DF-RKS iter   6:  -117.79946841829147   -1.23891e-08   1.74503e-06 DIIS
   @DF-RKS iter   7:  -117.79946841964116   -1.34969e-09   3.25208e-07 DIIS
   @DF-RKS iter   8:  -117.79946841969473   -5.35749e-11   1.17720e-08 DIIS
   @DF-RKS iter   9:  -117.79946841969490   -1.70530e-13   1.55894e-09 DIIS
  Energy and wave function converged.


  ==> Post-Iterations <==

    Orbital Energies [Eh]
    ---------------------

    Doubly Occupied:                                                      

       1Ap   -10.540467     2Ap   -10.540010     3Ap   -10.539986  
       4Ap    -0.946227     5Ap    -0.672737     6Ap    -0.672660  
       1App   -0.563874     7Ap    -0.525774     2App   -0.421065  
       3App   -0.420942     8Ap    -0.346024     9Ap    -0.345619  

    Virtual:                                                              

      10Ap     0.147663     4App    0.155494    11Ap     0.197710  
      12Ap     0.203332    13Ap     0.203339     5App    0.279239  
       6App    0.279316    14Ap     0.300761    15Ap     0.301081  
      16Ap     0.552776     7App    0.620647    17Ap     0.632857  
      18Ap     0.633050    19Ap     0.700252    20Ap     0.700715  
      21Ap     0.761876    22Ap     0.824979     8App    0.857314  
       9App    0.857827    10App    0.998829    23Ap     1.038906  
      24Ap     1.038972    11App    1.079528    12App    1.080119  
      25Ap     1.083606    26Ap     1.336825    27Ap     1.336956  

    Final Occupation by Irrep:
             Ap   App 
    DOCC [     9,    3 ]

  @DF-RKS Final Energy:  -117.79946841969490

   => Energetics <=

    Nuclear Repulsion Energy =             75.2762678161621892
    One-Electron Energy =                -305.7440875778218015
    Two-Electron Energy =                 121.5794535212845489
    DFT Exchange-Correlation Energy =      -8.9111021793198493
    Empirical Dispersion Energy =           0.0000000000000000
    VV10 Nonlocal Energy =                  0.0000000000000000
    Total Energy =                       -117.7994684196949038

Computation Completed


Properties will be evaluated at   0.000000,   0.000000,   0.000000 [a0]

Properties computed using the SCF density matrix

  Nuclear Dipole Moment: [e a0]
     X:    -0.0019      Y:    -0.0002      Z:     0.0000

  Electronic Dipole Moment: [e a0]
     X:     0.0019      Y:    -0.0001      Z:     0.0000

  Dipole Moment: [e a0]
     X:     0.0001      Y:    -0.0003      Z:     0.0000     Total:     0.0003

  Dipole Moment: [D]
     X:     0.0002      Y:    -0.0007      Z:     0.0000     Total:     0.0008


*** tstop() called on atlantis at Tue Apr 19 10:23:01 2022
Module time:
	user time   =       5.39 seconds =       0.09 minutes
	system time =       0.01 seconds =       0.00 minutes
	total time  =          5 seconds =       0.08 minutes
Total time:
	user time   =      28.76 seconds =       0.48 minutes
	system time =       0.30 seconds =       0.01 minutes
	total time  =         29 seconds =       0.48 minutes

*** tstart() called on atlantis
*** at Tue Apr 19 10:23:01 2022


         ------------------------------------------------------------
                                   SCF GRAD                          
                          Rob Parrish, Justin Turney,                
                       Andy Simmonett, and Alex Sokolov              
         ------------------------------------------------------------

  ==> Geometry <==

    Molecular point group: cs
    Full point group: Cs

    Geometry (in Angstrom), charge = 0, multiplicity = 1:

       Center              X                  Y                   Z               Mass       
    ------------   -----------------  -----------------  -----------------  -----------------
         C            0.322081944250     0.813343688021     0.000000000000    12.000000000000
         C           -0.865318003082    -0.128389764139     0.000000000000    12.000000000000
         C            0.543404419293    -0.684939538412     0.000000000000    12.000000000000
         H            0.537301240642     1.360829034576    -0.920390000000     1.007825032230
         H            0.537301240642     1.360829034576     0.920390000000     1.007825032230
         H           -1.447665927882    -0.214858697572     0.920340000000     1.007825032230
         H           -1.447665927882    -0.214858697572    -0.920340000000     1.007825032230
         H            0.909362367658    -1.146055979665    -0.920370000000     1.007825032230
         H            0.909362367658    -1.146055979665     0.920370000000     1.007825032230

  Nuclear repulsion =   75.276267816162189

  ==> Basis Set <==

  Basis Set: 6-31G
    Blend: 6-31G
    Number of shells: 27
    Number of basis function: 39
    Number of Cartesian functions: 39
    Spherical Harmonics?: false
    Max angular momentum: 1

  ==> DFJKGrad: Density-Fitted SCF Gradients <==

    Gradient:                    1
    J tasked:                  Yes
    K tasked:                  Yes
    wK tasked:                  No
    OpenMP threads:              1
    Integrals threads:           1
    Memory [MiB]:              375
    Schwarz Cutoff:          0E+00
    Fitting Condition:       1E-10

   => Auxiliary Basis Set <=

  Basis Set: (6-31G AUX)
    Blend: CC-PVDZ-JKFIT
    Number of shells: 126
    Number of basis function: 393
    Number of Cartesian functions: 393
    Spherical Harmonics?: false
    Max angular momentum: 3

  ==> DFT Potential <==

   => Composite Functional: M06-2X <= 

    Hybrid M06-2X Meta-GGA XC Functional

    Y. Zhao and D. G. Truhlar,  Theor. Chem. Acc., 120, 215, 2008


    Deriv               =              1
    GGA                 =           TRUE
    Meta                =           TRUE

    Exchange Hybrid     =           TRUE
    MP2 Hybrid          =          FALSE

   => Exchange Functionals <=

    1.0000   XC_HYB_MGGA_X_M06_2X

   => Exact (HF) Exchange <=

    0.5400               HF 

   => Correlation Functionals <=

    1.0000   XC_MGGA_C_M06_2X

   => Molecular Quadrature <=

    Radial Scheme          =       TREUTLER
    Pruning Scheme         =           FLAT
    Nuclear Scheme         =       TREUTLER

    BS radius alpha        =              1
    Pruning alpha          =              1
    Radial Points          =             75
    Spherical Points       =            302
    Total Points           =         198423
    Total Blocks           =           1548
    Max Points             =            256
    Max Functions          =             39


  -Total Gradient:
     Atom            X                  Y                   Z
    ------   -----------------  -----------------  -----------------
       1       -0.000453668576    -0.002372648593     0.000000000000
       2        0.002547175180     0.000258692059     0.000000000000
       3       -0.001833070234     0.002261350037     0.000000000000
       4        0.000817046929     0.002265946610    -0.006493752908
       5        0.000817046929     0.002265946610     0.006493752908
       6       -0.002497267682    -0.000408172341     0.006564376082
       7       -0.002497267682    -0.000408172341    -0.006564376082
       8        0.001545301397    -0.001943709742    -0.006583846824
       9        0.001545301397    -0.001943709742     0.006583846824


*** tstop() called on atlantis at Tue Apr 19 10:23:02 2022
Module time:
	user time   =       0.95 seconds =       0.02 minutes
	system time =       0.00 seconds =       0.00 minutes
	total time  =          1 seconds =       0.02 minutes
Total time:
	user time   =      29.71 seconds =       0.50 minutes
	system time =       0.30 seconds =       0.01 minutes
	total time  =         30 seconds =       0.50 minutes

  //>>>>>>>>>>>>>>>>>>>>>>>>>>>>>>>>>>>//
  //    Loading displacement 4 of 34   //
  //<<<<<<<<<<<<<<<<<<<<<<<<<<<<<<<<<<<//
gradient() will perform analytic gradient computation.

*** tstart() called on atlantis
*** at Tue Apr 19 10:23:02 2022

   => Loading Basis Set <=

    Name: 6-31G
    Role: ORBITAL
    Keyword: BASIS
    atoms 1-3 entry C          line    87 file /home/akrom/software/anaconda3/envs/ffpenv/share/psi4/basis/6-31g.gbs 
    atoms 4-9 entry H          line    26 file /home/akrom/software/anaconda3/envs/ffpenv/share/psi4/basis/6-31g.gbs 


         ---------------------------------------------------------
                                   SCF
               by Justin Turney, Rob Parrish, Andy Simmonett
                          and Daniel G. A. Smith
                              RKS Reference
                        1 Threads,    500 MiB Core
         ---------------------------------------------------------

  ==> Geometry <==

    Molecular point group: cs
    Full point group: Cs

    Geometry (in Angstrom), charge = 0, multiplicity = 1:

       Center              X                  Y                   Z               Mass       
    ------------   -----------------  -----------------  -----------------  -----------------
         C            0.321531939855     0.812635159068     0.000000000000    12.000000000000
         C           -0.865072120902    -0.128008550426     0.000000000000    12.000000000000
         C            0.543576026536    -0.684746186637     0.000000000000    12.000000000000
         H            0.537745691682     1.361023130555    -0.920390000000     1.007825032230
         H            0.537745691682     1.361023130555     0.920390000000     1.007825032230
         H           -1.447431558178    -0.214399813329     0.920340000000     1.007825032230
         H           -1.447431558178    -0.214399813329    -0.920340000000     1.007825032230
         H            0.909472463446    -1.145911419873    -0.920370000000     1.007825032230
         H            0.909472463446    -1.145911419873     0.920370000000     1.007825032230

  Running in cs symmetry.

  Rotational constants: A =      0.66518  B =      0.66468  C =      0.41665 [cm^-1]
  Rotational constants: A =  19941.69418  B =  19926.66026  C =  12490.72376 [MHz]
  Nuclear repulsion =   75.292327113354389

  Charge       = 0
  Multiplicity = 1
  Electrons    = 24
  Nalpha       = 12
  Nbeta        = 12

  ==> Algorithm <==

  SCF Algorithm Type is DF.
  DIIS enabled.
  MOM disabled.
  Fractional occupation disabled.
  Guess Type is SAD.
  Energy threshold   = 1.00e-08
  Density threshold  = 1.00e-08
  Integral threshold = 0.00e+00

  ==> Primary Basis <==

  Basis Set: 6-31G
    Blend: 6-31G
    Number of shells: 27
    Number of basis function: 39
    Number of Cartesian functions: 39
    Spherical Harmonics?: false
    Max angular momentum: 1

  ==> DFT Potential <==

   => Composite Functional: M06-2X <= 

    Hybrid M06-2X Meta-GGA XC Functional

    Y. Zhao and D. G. Truhlar,  Theor. Chem. Acc., 120, 215, 2008


    Deriv               =              1
    GGA                 =           TRUE
    Meta                =           TRUE

    Exchange Hybrid     =           TRUE
    MP2 Hybrid          =          FALSE

   => Exchange Functionals <=

    1.0000   XC_HYB_MGGA_X_M06_2X

   => Exact (HF) Exchange <=

    0.5400               HF 

   => Correlation Functionals <=

    1.0000   XC_MGGA_C_M06_2X

   => Molecular Quadrature <=

    Radial Scheme          =       TREUTLER
    Pruning Scheme         =           FLAT
    Nuclear Scheme         =       TREUTLER

    BS radius alpha        =              1
    Pruning alpha          =              1
    Radial Points          =             75
    Spherical Points       =            302
    Total Points           =         198410
    Total Blocks           =           1567
    Max Points             =            256
    Max Functions          =             39

   => Loading Basis Set <=

    Name: (6-31G AUX)
    Role: JKFIT
    Keyword: DF_BASIS_SCF
    atoms 1-3 entry C          line   121 file /home/akrom/software/anaconda3/envs/ffpenv/share/psi4/basis/cc-pvdz-jkfit.gbs 
    atoms 4-9 entry H          line    51 file /home/akrom/software/anaconda3/envs/ffpenv/share/psi4/basis/cc-pvdz-jkfit.gbs 

  ==> Pre-Iterations <==

   -------------------------------------------------------
    Irrep   Nso     Nmo     Nalpha   Nbeta   Ndocc  Nsocc
   -------------------------------------------------------
     A'        27      27       0       0       0       0
     A"        12      12       0       0       0       0
   -------------------------------------------------------
    Total      39      39      12      12      12       0
   -------------------------------------------------------

  ==> Integral Setup <==

  DFHelper Memory: AOs need 0.006 GiB; user supplied 0.006 GiB. Using in-core AOs.

  ==> MemDFJK: Density-Fitted J/K Matrices <==

    J tasked:                   Yes
    K tasked:                   Yes
    wK tasked:                   No
    OpenMP threads:               1
    Memory [MiB]:                 6
    Algorithm:                 Core
    Schwarz Cutoff:           1E-12
    Mask sparsity (%):       0.0000
    Fitting Condition:        1E-10

   => Auxiliary Basis Set <=

  Basis Set: (6-31G AUX)
    Blend: CC-PVDZ-JKFIT
    Number of shells: 126
    Number of basis function: 393
    Number of Cartesian functions: 393
    Spherical Harmonics?: false
    Max angular momentum: 3

  Cached 100.0% of DFT collocation blocks in 0.525 [GiB].

  Minimum eigenvalue in the overlap matrix is 9.9308781333E-03.
  Using Symmetric Orthogonalization.

  SCF Guess: Superposition of Atomic Densities via on-the-fly atomic UHF.

  ==> Iterations <==

                           Total Energy        Delta E     RMS |[F,P]|

   @DF-RKS iter SAD:  -117.43927427347431   -1.17439e+02   0.00000e+00 
   @DF-RKS iter   1:  -117.66536340771543   -2.26089e-01   1.65470e-02 DIIS
   @DF-RKS iter   2:  -117.70487059855179   -3.95072e-02   1.41823e-02 DIIS
   @DF-RKS iter   3:  -117.79938933468190   -9.45187e-02   2.78001e-04 DIIS
   @DF-RKS iter   4:  -117.79944955076553   -6.02161e-05   4.37534e-05 DIIS
   @DF-RKS iter   5:  -117.79945108411926   -1.53335e-06   4.03572e-06 DIIS
   @DF-RKS iter   6:  -117.79945109628650   -1.21672e-08   2.23574e-06 DIIS
   @DF-RKS iter   7:  -117.79945109853028   -2.24378e-09   2.80418e-07 DIIS
   @DF-RKS iter   8:  -117.79945109857232   -4.20357e-11   1.16861e-08 DIIS
   @DF-RKS iter   9:  -117.79945109857253   -2.13163e-13   1.64159e-09 DIIS
  Energy and wave function converged.


  ==> Post-Iterations <==

    Orbital Energies [Eh]
    ---------------------

    Doubly Occupied:                                                      

       1Ap   -10.540436     2Ap   -10.539980     3Ap   -10.539948  
       4Ap    -0.946556     5Ap    -0.672718     6Ap    -0.672556  
       1App   -0.563896     7Ap    -0.525922     2App   -0.420962  
       3App   -0.420737     8Ap    -0.346087     9Ap    -0.345796  

    Virtual:                                                              

      10Ap     0.147651     4App    0.155336    11Ap     0.197963  
      12Ap     0.203323    13Ap     0.203358     5App    0.279232  
       6App    0.279273    14Ap     0.300961    15Ap     0.301232  
      16Ap     0.552616     7App    0.620811    17Ap     0.632720  
      18Ap     0.632958    19Ap     0.700769    20Ap     0.701197  
      21Ap     0.762023    22Ap     0.824702     8App    0.857380  
       9App    0.857644    10App    0.998444    23Ap     1.038554  
      24Ap     1.038897    11App    1.079312    12App    1.079836  
      25Ap     1.083330    26Ap     1.337129    27Ap     1.337144  

    Final Occupation by Irrep:
             Ap   App 
    DOCC [     9,    3 ]

  @DF-RKS Final Energy:  -117.79945109857253

   => Energetics <=

    Nuclear Repulsion Energy =             75.2923271133543892
    One-Electron Energy =                -305.7755896387427583
    Two-Electron Energy =                 121.5950395559126775
    DFT Exchange-Correlation Energy =      -8.9112281290968429
    Empirical Dispersion Energy =           0.0000000000000000
    VV10 Nonlocal Energy =                  0.0000000000000000
    Total Energy =                       -117.7994510985725327

Computation Completed


Properties will be evaluated at   0.000000,   0.000000,   0.000000 [a0]

Properties computed using the SCF density matrix

  Nuclear Dipole Moment: [e a0]
     X:    -0.0004      Y:     0.0013      Z:     0.0000

  Electronic Dipole Moment: [e a0]
     X:     0.0007      Y:    -0.0013      Z:     0.0000

  Dipole Moment: [e a0]
     X:     0.0003      Y:     0.0001      Z:     0.0000     Total:     0.0003

  Dipole Moment: [D]
     X:     0.0007      Y:     0.0002      Z:     0.0000     Total:     0.0007


*** tstop() called on atlantis at Tue Apr 19 10:23:08 2022
Module time:
	user time   =       5.45 seconds =       0.09 minutes
	system time =       0.03 seconds =       0.00 minutes
	total time  =          6 seconds =       0.10 minutes
Total time:
	user time   =      35.17 seconds =       0.59 minutes
	system time =       0.33 seconds =       0.01 minutes
	total time  =         36 seconds =       0.60 minutes

*** tstart() called on atlantis
*** at Tue Apr 19 10:23:08 2022


         ------------------------------------------------------------
                                   SCF GRAD                          
                          Rob Parrish, Justin Turney,                
                       Andy Simmonett, and Alex Sokolov              
         ------------------------------------------------------------

  ==> Geometry <==

    Molecular point group: cs
    Full point group: Cs

    Geometry (in Angstrom), charge = 0, multiplicity = 1:

       Center              X                  Y                   Z               Mass       
    ------------   -----------------  -----------------  -----------------  -----------------
         C            0.321531939855     0.812635159068     0.000000000000    12.000000000000
         C           -0.865072120902    -0.128008550426     0.000000000000    12.000000000000
         C            0.543576026536    -0.684746186637     0.000000000000    12.000000000000
         H            0.537745691682     1.361023130555    -0.920390000000     1.007825032230
         H            0.537745691682     1.361023130555     0.920390000000     1.007825032230
         H           -1.447431558178    -0.214399813329     0.920340000000     1.007825032230
         H           -1.447431558178    -0.214399813329    -0.920340000000     1.007825032230
         H            0.909472463446    -1.145911419873    -0.920370000000     1.007825032230
         H            0.909472463446    -1.145911419873     0.920370000000     1.007825032230

  Nuclear repulsion =   75.292327113354389

  ==> Basis Set <==

  Basis Set: 6-31G
    Blend: 6-31G
    Number of shells: 27
    Number of basis function: 39
    Number of Cartesian functions: 39
    Spherical Harmonics?: false
    Max angular momentum: 1

  ==> DFJKGrad: Density-Fitted SCF Gradients <==

    Gradient:                    1
    J tasked:                  Yes
    K tasked:                  Yes
    wK tasked:                  No
    OpenMP threads:              1
    Integrals threads:           1
    Memory [MiB]:              375
    Schwarz Cutoff:          0E+00
    Fitting Condition:       1E-10

   => Auxiliary Basis Set <=

  Basis Set: (6-31G AUX)
    Blend: CC-PVDZ-JKFIT
    Number of shells: 126
    Number of basis function: 393
    Number of Cartesian functions: 393
    Spherical Harmonics?: false
    Max angular momentum: 3

  ==> DFT Potential <==

[...]

    Exchange Hybrid     =           TRUE
    MP2 Hybrid          =          FALSE

   => Exchange Functionals <=

    1.0000   XC_HYB_MGGA_X_M06_2X

   => Exact (HF) Exchange <=

    0.5400               HF 

   => Correlation Functionals <=

    1.0000   XC_MGGA_C_M06_2X

   => Molecular Quadrature <=

    Radial Scheme          =       TREUTLER
    Pruning Scheme         =           FLAT
    Nuclear Scheme         =       TREUTLER

    BS radius alpha        =              1
    Pruning alpha          =              1
    Radial Points          =             75
    Spherical Points       =            302
    Total Points           =         198442
    Total Blocks           =           1549
    Max Points             =            256
    Max Functions          =             39


  -Total Gradient:
     Atom            X                  Y                   Z
    ------   -----------------  -----------------  -----------------
       1       -0.001042534858    -0.002673570027     0.000001572074
       2        0.002882338160     0.000434050867     0.000438148329
       3       -0.001795524183     0.002237204843    -0.001241976937
       4        0.000914322358     0.002307048471    -0.006596798821
       5        0.000918789549     0.002318726793     0.006594509634
       6       -0.002289036357    -0.000375707342     0.006297719599
       7       -0.002642853768    -0.000385440389    -0.006861439683
       8        0.001177196154    -0.001604745201    -0.005892754563
       9        0.001926069611    -0.002343916425     0.007261374674


*** tstop() called on atlantis at Tue Apr 19 10:26:21 2022
Module time:
	user time   =       0.94 seconds =       0.02 minutes
	system time =       0.00 seconds =       0.00 minutes
	total time  =          1 seconds =       0.02 minutes
Total time:
	user time   =     227.02 seconds =       3.78 minutes
	system time =       1.48 seconds =       0.02 minutes
	total time  =        229 seconds =       3.82 minutes

         ----------------------------------------------------------
                                   FINDIF
                     R. A. King and Jonathon Misiewicz
         ---------------------------------------------------------

  Computing second-derivative from gradients using projected, 
  symmetry-adapted, cartesian coordinates.

  34 gradients passed in, including the reference geometry.
  Generating complete list of displacements from unique ones.

    Operation 2 takes plus displacements of irrep A" to minus ones.

-------------------------------------------------------------


  ==> Harmonic Vibrational Analysis <==

  non-mass-weighted Hessian:       Symmetric? True   Hermitian? True   Lin Dep Dim?  6 (0)
  projection of translations (True) and rotations (True) removed 6 degrees of freedom (6)
  total projector:                 Symmetric? True   Hermitian? True   Lin Dep Dim?  6 (6)
  mass-weighted Hessian:           Symmetric? True   Hermitian? True   Lin Dep Dim?  6 (0)
  pre-proj  low-frequency mode:    0.0000i [cm^-1]
  pre-proj  low-frequency mode:    0.0000i [cm^-1]
  pre-proj  low-frequency mode:    0.0000i [cm^-1]
  pre-proj  low-frequency mode:    0.0000i [cm^-1]
  pre-proj  low-frequency mode:    0.0000i [cm^-1]
  pre-proj  low-frequency mode:    0.0000  [cm^-1]
  pre-proj  all modes:['0.0001i' '0.0000i' '0.0000i' '0.0000i' '0.0000i' '0.0000' '828.8950'
 '831.3974' '906.9362' '924.3645' '927.9374' '1138.7288' '1147.6352'
 '1191.6297' '1197.4391' '1247.2413' '1261.7557' '1262.6467' '1522.8646'
 '1532.9452' '1568.1147' '3108.6381' '3109.7980' '3118.5399' '3190.0872'
 '3190.4964' '3211.3044']
  projected mass-weighted Hessian: Symmetric? True   Hermitian? True   Lin Dep Dim?  6 (6)
  post-proj low-frequency mode:    0.0000i [cm^-1] (TR)
  post-proj low-frequency mode:    0.0000i [cm^-1] (TR)
  post-proj low-frequency mode:    0.0000  [cm^-1] (TR)
  post-proj low-frequency mode:    0.0000  [cm^-1] (TR)
  post-proj low-frequency mode:    0.0000  [cm^-1] (TR)
  post-proj low-frequency mode:    0.0000  [cm^-1] (TR)
  post-proj  all modes:['0.0000i' '0.0000i' '0.0000' '0.0000' '0.0000' '0.0000' '828.8950'
 '831.3974' '906.9362' '924.3645' '927.9374' '1138.7288' '1147.6352'
 '1191.6297' '1197.4391' '1247.2413' '1261.7557' '1262.6467' '1522.8646'
 '1532.9452' '1568.1147' '3108.6381' '3109.7980' '3118.5399' '3190.0872'
 '3190.4964' '3211.3044']

  Vibration                       7                   8                   9           
  Freq [cm^-1]                 828.8950            831.3974            906.9362       
  Irrep                          App                 App                  Ap          
  Reduced mass [u]              1.0202              1.0205              3.6593        
  Force const [mDyne/A]         0.4130              0.4156              1.7734        
  Turning point v=0 [a0]        0.3773              0.3767              0.1905        
  RMS dev v=0 [a0 u^1/2]        0.2695              0.2691              0.2576        
  Char temp [K]               1192.5954           1196.1957           1304.8793       
  ----------------------------------------------------------------------------------
      1   C               -0.00  0.00  0.03   -0.00 -0.00 -0.00   -0.19 -0.22 -0.00   
      2   C                0.00 -0.00 -0.02   -0.00  0.00 -0.02   -0.09  0.26 -0.00   
      3   C               -0.00 -0.00 -0.01    0.00  0.00  0.02    0.27 -0.08 -0.00   
      4   H               -0.10 -0.30 -0.18    0.42 -0.15  0.01   -0.25 -0.15  0.03   
      5   H                0.10  0.30 -0.18   -0.42  0.15  0.01   -0.25 -0.15 -0.03   
      6   H                0.23 -0.35  0.10    0.23  0.28  0.15   -0.11  0.40  0.00   
      7   H               -0.23  0.35  0.10   -0.23 -0.28  0.15   -0.11  0.40 -0.00   
      8   H                0.40  0.13  0.08   -0.01  0.35 -0.16    0.35  0.03 -0.03   
      9   H               -0.40 -0.13  0.08    0.01 -0.35 -0.16    0.35  0.03  0.03   

  Vibration                       10                  11                  12          
  Freq [cm^-1]                 924.3645            927.9374           1138.7288       
  Irrep                           Ap                 App                  Ap          
  Reduced mass [u]              3.9069              1.0450              1.2828        
  Force const [mDyne/A]         1.9669              0.5301              0.9800        
  Turning point v=0 [a0]        0.1826              0.3524              0.2871        
  RMS dev v=0 [a0 u^1/2]        0.2552              0.2547              0.2299        
  Char temp [K]               1329.9547           1335.0953           1638.3772       
  ----------------------------------------------------------------------------------
      1   C               -0.20  0.20  0.00   -0.00  0.00 -0.03    0.09 -0.01 -0.00   
      2   C                0.30  0.09  0.00    0.00  0.00 -0.03    0.01 -0.11 -0.00   
      3   C               -0.06 -0.29  0.00   -0.00 -0.00 -0.03   -0.06 -0.02  0.00   
      4   H               -0.34  0.24 -0.01    0.13  0.33  0.20   -0.34  0.15 -0.01   
      5   H               -0.34  0.24  0.01   -0.13 -0.33  0.20   -0.34  0.15  0.01   
      6   H                0.25  0.11 -0.03    0.35  0.05  0.20   -0.08  0.51  0.00   
      7   H                0.25  0.11  0.03   -0.35 -0.05  0.20   -0.08  0.51 -0.00   
      8   H               -0.14 -0.32 -0.02    0.22 -0.28  0.20    0.23  0.18  0.01   
      9   H               -0.14 -0.32  0.02   -0.22  0.28  0.20    0.23  0.18 -0.01   

  Vibration                       13                  14                  15          
  Freq [cm^-1]                1147.6352           1191.6297           1197.4391       
  Irrep                           Ap                  Ap                 App          
  Reduced mass [u]              1.2442              1.4242              1.0079        
  Force const [mDyne/A]         0.9655              1.1916              0.8515        
  Turning point v=0 [a0]        0.2904              0.2663              0.3158        
  RMS dev v=0 [a0 u^1/2]        0.2290              0.2248              0.2242        
  Char temp [K]               1651.1915           1714.4898           1722.8483       
  ----------------------------------------------------------------------------------
      1   C               -0.09  0.05 -0.00   -0.08  0.05  0.00    0.00 -0.00  0.00   
      2   C                0.03 -0.02 -0.00   -0.00 -0.12  0.00   -0.00  0.00  0.00   
      3   C               -0.07 -0.07  0.00    0.10  0.06 -0.00    0.00  0.00 -0.00   
      4   H                0.46 -0.19 -0.01    0.29 -0.08  0.01   -0.38  0.15  0.00   
      5   H                0.46 -0.19  0.01    0.29 -0.08 -0.01    0.38 -0.15  0.00   
      6   H               -0.02  0.09 -0.02   -0.09  0.46 -0.00   -0.07  0.41 -0.00   
      7   H               -0.02  0.09  0.02   -0.09  0.46  0.00    0.07 -0.41 -0.00   
      8   H                0.37  0.31 -0.01   -0.29 -0.29  0.01    0.33  0.25  0.00   
      9   H                0.37  0.31  0.01   -0.29 -0.29 -0.01   -0.33 -0.25  0.00   

  Vibration                       16                  17                  18          
  Freq [cm^-1]                1247.2413           1261.7557           1262.6467       
  Irrep                           Ap                 App                 App          
  Reduced mass [u]              2.8501              1.4569              1.4564        
  Force const [mDyne/A]         2.6123              1.3666              1.3681        
  Turning point v=0 [a0]        0.1840              0.2559              0.2559        
  RMS dev v=0 [a0 u^1/2]        0.2197              0.2184              0.2184        
  Char temp [K]               1794.5025           1815.3856           1816.6675       
  ----------------------------------------------------------------------------------
      1   C               -0.10 -0.22 -0.00   -0.00 -0.00  0.15    0.00  0.00 -0.07   
      2   C                0.24  0.01  0.00    0.00  0.00 -0.13   -0.00  0.00 -0.10   
      3   C               -0.13  0.20  0.00   -0.00  0.00 -0.02    0.00  0.00  0.16   
      4   H               -0.12 -0.35 -0.05   -0.28 -0.29 -0.08   -0.27  0.28  0.04   
      5   H               -0.12 -0.35  0.05    0.28  0.29 -0.08    0.27 -0.28  0.04   
      6   H                0.34  0.15  0.05    0.29  0.27  0.07    0.28 -0.26  0.05   
      7   H                0.34  0.15 -0.05   -0.29 -0.27  0.07   -0.28  0.26  0.05   
      8   H               -0.27  0.24 -0.05   -0.27 -0.27  0.01   -0.28  0.30 -0.09   
      9   H               -0.27  0.24  0.05    0.27  0.27  0.01    0.28 -0.30 -0.09   

  Vibration                       19                  20                  21          
  Freq [cm^-1]                1522.8646           1532.9452           1568.1147       
  Irrep                           Ap                  Ap                  Ap          
  Reduced mass [u]              1.0885              1.0889              1.2742        
  Force const [mDyne/A]         1.4873              1.5076              1.8460        
  Turning point v=0 [a0]        0.2695              0.2686              0.2455        
  RMS dev v=0 [a0 u^1/2]        0.1988              0.1982              0.1959        
  Char temp [K]               2191.0631           2205.5668           2256.1679       
  ----------------------------------------------------------------------------------
      1   C               -0.02 -0.06  0.00   -0.02 -0.01  0.00   -0.03 -0.09  0.00   
      2   C               -0.02 -0.01  0.00   -0.07 -0.01 -0.00    0.09  0.01 -0.00   
      3   C                0.03 -0.05 -0.00   -0.04  0.03  0.00   -0.06  0.07  0.00   
      4   H                0.16  0.40  0.31    0.06  0.12  0.09    0.12  0.31  0.27   
      5   H                0.16  0.40 -0.31    0.06  0.12 -0.09    0.12  0.31 -0.27   
      6   H                0.10  0.02  0.08    0.47  0.07  0.33   -0.29 -0.04 -0.24   
      7   H                0.10  0.02 -0.08    0.47  0.07 -0.33   -0.29 -0.04  0.24   
      8   H               -0.22  0.29 -0.26    0.21 -0.22  0.21    0.20 -0.24  0.25   
      9   H               -0.22  0.29  0.26    0.21 -0.22 -0.21    0.20 -0.24 -0.25   

  Vibration                       22                  23                  24          
  Freq [cm^-1]                3108.6381           3109.7980           3118.5399       
  Irrep                           Ap                  Ap                  Ap          
  Reduced mass [u]              1.0510              1.0510              1.0664        
  Force const [mDyne/A]         5.9843              5.9886              6.1106        
  Turning point v=0 [a0]        0.1920              0.1919              0.1903        
  RMS dev v=0 [a0 u^1/2]        0.1392              0.1391              0.1389        
  Char temp [K]               4472.6381           4474.3070           4486.8846       
  ----------------------------------------------------------------------------------
      1   C                0.01  0.03  0.00   -0.01 -0.03 -0.00   -0.02 -0.04  0.00   
      2   C                0.05  0.01  0.00    0.01  0.00 -0.00    0.04  0.01  0.00   
      3   C                0.01 -0.01  0.00    0.03 -0.04  0.00   -0.03  0.03 -0.00   
      4   H               -0.08 -0.20  0.36    0.08  0.20 -0.34    0.08  0.19 -0.34   
      5   H               -0.08 -0.20 -0.36    0.08  0.20  0.34    0.08  0.19  0.34   
      6   H               -0.28 -0.04  0.47   -0.08 -0.01  0.14   -0.21 -0.03  0.35   
      7   H               -0.28 -0.04 -0.47   -0.08 -0.01 -0.14   -0.21 -0.03 -0.35   
      8   H               -0.05  0.06  0.12   -0.18  0.23  0.47    0.13 -0.17 -0.35   
      9   H               -0.05  0.06 -0.12   -0.18  0.23 -0.47    0.13 -0.17  0.35   

  Vibration                       25                  26                  27          
  Freq [cm^-1]                3190.0872           3190.4964           3211.3044       
  Irrep                          App                 App                 App          
  Reduced mass [u]              1.1179              1.1177              1.1151        
  Force const [mDyne/A]         6.7025              6.7034              6.7751        
  Turning point v=0 [a0]        0.1837              0.1837              0.1834        
  RMS dev v=0 [a0 u^1/2]        0.1374              0.1374              0.1369        
  Char temp [K]               4589.8252           4590.4139           4620.3521       
  ----------------------------------------------------------------------------------
      1   C                0.00 -0.00  0.03   -0.00 -0.00 -0.07   -0.00 -0.00 -0.06   
      2   C                0.00  0.00  0.05   -0.00  0.00  0.07    0.00  0.00 -0.06   
      3   C                0.00 -0.00 -0.08   -0.00  0.00  0.01    0.00 -0.00 -0.06   
      4   H                0.05  0.11 -0.18   -0.10 -0.27  0.44   -0.08 -0.21  0.34   
      5   H               -0.05 -0.11 -0.18    0.10  0.27  0.44    0.08  0.21  0.34   
      6   H                0.18  0.03 -0.29    0.25  0.03 -0.39   -0.22 -0.03  0.34   
      7   H               -0.18 -0.03 -0.29   -0.25 -0.03 -0.39    0.22  0.03  0.34   
      8   H               -0.19  0.24  0.48    0.03 -0.03 -0.06   -0.14  0.17  0.33   
      9   H                0.19 -0.24  0.48   -0.03  0.03 -0.06    0.14 -0.17  0.33   

  ==> Thermochemistry Components <==

  Entropy, S
    Electronic S            0.000 [cal/(mol K)]        0.000 [J/(mol K)]       0.00000000 [mEh/K] (multiplicity = 1)
    Translational S        37.135 [cal/(mol K)]      155.375 [J/(mol K)]       0.05917914 [mEh/K] (mol. weight = 42.0470 [u], P = 101325.00 [Pa])
    Rotational S           21.699 [cal/(mol K)]       90.789 [J/(mol K)]       0.03457982 [mEh/K] (symmetry no. = 1)
    Vibrational S           1.073 [cal/(mol K)]        4.487 [J/(mol K)]       0.00170917 [mEh/K]
  Total S                  59.907 [cal/(mol K)]      250.652 [J/(mol K)]       0.09546813 [mEh/K]
  Correction S              0.000 [cal/(mol K)]        0.000 [J/(mol K)]       0.00000000 [mEh/K]

  Constant volume heat capacity, Cv
    Electronic Cv           0.000 [cal/(mol K)]        0.000 [J/(mol K)]       0.00000000 [mEh/K]
    Translational Cv        2.981 [cal/(mol K)]       12.472 [J/(mol K)]       0.00475022 [mEh/K]
    Rotational Cv           2.981 [cal/(mol K)]       12.472 [J/(mol K)]       0.00475022 [mEh/K]
    Vibrational Cv          4.240 [cal/(mol K)]       17.739 [J/(mol K)]       0.00675628 [mEh/K]
  Total Cv                 10.201 [cal/(mol K)]       42.682 [J/(mol K)]       0.01625671 [mEh/K]
  Correction Cv             0.000 [cal/(mol K)]        0.000 [J/(mol K)]       0.00000000 [mEh/K]

  Constant pressure heat capacity, Cp
    Electronic Cp           0.000 [cal/(mol K)]        0.000 [J/(mol K)]       0.00000000 [mEh/K]
    Translational Cp        4.968 [cal/(mol K)]       20.786 [J/(mol K)]       0.00791703 [mEh/K]
    Rotational Cp           2.981 [cal/(mol K)]       12.472 [J/(mol K)]       0.00475022 [mEh/K]
    Vibrational Cp          4.240 [cal/(mol K)]       17.739 [J/(mol K)]       0.00675628 [mEh/K]
  Total Cp                 12.188 [cal/(mol K)]       50.996 [J/(mol K)]       0.01942352 [mEh/K]
  Correction Cp             0.000 [cal/(mol K)]        0.000 [J/(mol K)]       0.00000000 [mEh/K]

  ==> Thermochemistry Energy Analysis <==

  Raw electronic energy, E0
  Total E0, Electronic energy at well bottom at 0 [K]                 -117.79945809 [Eh]

  Zero-point energy, ZPE_vib = Sum_i nu_i / 2
    Electronic ZPE          0.000 [kcal/mol]        0.000 [kJ/mol]       0.00000000 [Eh]
    Translational ZPE       0.000 [kcal/mol]        0.000 [kJ/mol]       0.00000000 [Eh]
    Rotational ZPE          0.000 [kcal/mol]        0.000 [kJ/mol]       0.00000000 [Eh]
    Vibrational ZPE        52.064 [kcal/mol]      217.836 [kJ/mol]       0.08296949 [Eh]       18209.698 [cm^-1]
  Correction ZPE           52.064 [kcal/mol]      217.836 [kJ/mol]       0.08296949 [Eh]       18209.698 [cm^-1]
  Total ZPE, Electronic energy at 0 [K]                               -117.71648860 [Eh]

  Thermal Energy, E (includes ZPE)
    Electronic E            0.000 [kcal/mol]        0.000 [kJ/mol]       0.00000000 [Eh]
    Translational E         0.889 [kcal/mol]        3.718 [kJ/mol]       0.00141628 [Eh]
    Rotational E            0.889 [kcal/mol]        3.718 [kJ/mol]       0.00141628 [Eh]
    Vibrational E          52.327 [kcal/mol]      218.937 [kJ/mol]       0.08338888 [Eh]
  Correction E             54.105 [kcal/mol]      226.374 [kJ/mol]       0.08622144 [Eh]
  Total E, Electronic energy at  298.15 [K]                           -117.71323665 [Eh]

  Enthalpy, H_trans = E_trans + k_B * T
    Electronic H            0.000 [kcal/mol]        0.000 [kJ/mol]       0.00000000 [Eh]
    Translational H         1.481 [kcal/mol]        6.197 [kJ/mol]       0.00236046 [Eh]
    Rotational H            0.889 [kcal/mol]        3.718 [kJ/mol]       0.00141628 [Eh]
    Vibrational H          52.327 [kcal/mol]      218.937 [kJ/mol]       0.08338888 [Eh]
  Correction H             54.697 [kcal/mol]      228.853 [kJ/mol]       0.08716562 [Eh]
  Total H, Enthalpy at  298.15 [K]                                    -117.71229247 [Eh]

  Gibbs free energy, G = H - T * S
    Electronic G            0.000 [kcal/mol]        0.000 [kJ/mol]       0.00000000 [Eh]
    Translational G        -9.591 [kcal/mol]      -40.128 [kJ/mol]      -0.01528380 [Eh]
    Rotational G           -5.581 [kcal/mol]      -23.350 [kJ/mol]      -0.00889370 [Eh]
    Vibrational G          52.008 [kcal/mol]      217.600 [kJ/mol]       0.08287930 [Eh]
  Correction G             36.836 [kcal/mol]      154.122 [kJ/mol]       0.05870180 [Eh]
  Total G, Free enthalpy at  298.15 [K]                               -117.74075629 [Eh]

    Psi4 stopped on: Tuesday, 19 April 2022 10:26AM
    Psi4 wall time for execution: 0:03:49.22

*** Psi4 exiting successfully. Buy a developer a beer!
