
    -----------------------------------------------------------------------
          Psi4: An Open-Source Ab Initio Electronic Structure Package
                               Psi4 1.3.2 release

                         Git: Rev {HEAD} ecbda83 


    R. M. Parrish, L. A. Burns, D. G. A. Smith, A. C. Simmonett,
    A. E. DePrince III, E. G. Hohenstein, U. Bozkaya, A. Yu. Sokolov,
    R. Di Remigio, R. M. Richard, J. F. Gonthier, A. M. James,
    H. R. McAlexander, A. Kumar, M. Saitow, X. Wang, B. P. Pritchard,
    P. Verma, H. F. Schaefer III, K. Patkowski, R. A. King, E. F. Valeev,
    F. A. Evangelista, J. M. Turney, T. D. Crawford, and C. D. Sherrill,
    J. Chem. Theory Comput. 13(7) pp 3185--3197 (2017).
    (doi: 10.1021/acs.jctc.7b00174)


                         Additional Contributions by
    P. Kraus, H. Kruse, M. H. Lechner, M. C. Schieber, R. A. Shaw,
    A. Alenaizan, R. Galvelis, Z. L. Glick, S. Lehtola, and J. P. Misiewicz

    -----------------------------------------------------------------------


    Psi4 started on: Tuesday, 19 April 2022 02:06AM

    Process ID: 25999
    Host:       atlantis
    PSIDATADIR: /home/akrom/software/anaconda3/envs/ffpenv/share/psi4
    Memory:     500.0 MiB
    Threads:    1
    
  ==> Input File <==

--------------------------------------------------------------------------
set basis  6-311++g**
molecule {
0 1
   C       -0.61446        0.00000        0.00000
   C        0.61446        0.00000        0.00000
   H       -1.68923        0.00000        0.00000
   H        1.68923        0.00000        0.00000
}
energy('m06-2x')
frequencies('m06-2x')
--------------------------------------------------------------------------

*** tstart() called on atlantis
*** at Tue Apr 19 02:06:00 2022

   => Loading Basis Set <=

    Name: 6-311++G**
    Role: ORBITAL
    Keyword: BASIS
    atoms 1-2 entry C          line   119 file /home/akrom/software/anaconda3/envs/ffpenv/share/psi4/basis/6-311ppgss.gbs 
    atoms 3-4 entry H          line    42 file /home/akrom/software/anaconda3/envs/ffpenv/share/psi4/basis/6-311ppgss.gbs 


         ---------------------------------------------------------
                                   SCF
               by Justin Turney, Rob Parrish, Andy Simmonett
                          and Daniel G. A. Smith
                              RKS Reference
                        1 Threads,    500 MiB Core
         ---------------------------------------------------------

  ==> Geometry <==

    Molecular point group: d2h
    Full point group: D_inf_h

    Geometry (in Angstrom), charge = 0, multiplicity = 1:

       Center              X                  Y                   Z               Mass       
    ------------   -----------------  -----------------  -----------------  -----------------
         C           -0.614460000000    -0.000000000000     0.000000000000    12.000000000000
         C            0.614460000000     0.000000000000     0.000000000000    12.000000000000
         H           -1.689230000000    -0.000000000000     0.000000000000     1.007825032230
         H            1.689230000000     0.000000000000     0.000000000000     1.007825032230

  Running in d2h symmetry.

  Rotational constants: A = ************  B =      1.13802  C =      1.13802 [cm^-1]
  Rotational constants: A = ************  B =  34116.98697  C =  34116.98697 [MHz]
  Nuclear repulsion =   24.323218171379235

  Charge       = 0
  Multiplicity = 1
  Electrons    = 14
  Nalpha       = 7
  Nbeta        = 7

  ==> Algorithm <==

  SCF Algorithm Type is DF.
  DIIS enabled.
  MOM disabled.
  Fractional occupation disabled.
  Guess Type is SAD.
  Energy threshold   = 1.00e-06
  Density threshold  = 1.00e-06
  Integral threshold = 0.00e+00

  ==> Primary Basis <==

  Basis Set: 6-311++G**
    Blend: 6-311++G**
    Number of shells: 30
    Number of basis function: 58
    Number of Cartesian functions: 60
    Spherical Harmonics?: true
    Max angular momentum: 2

  ==> DFT Potential <==

   => Composite Functional: M06-2X <= 

    Hybrid M06-2X Meta-GGA XC Functional

    Y. Zhao and D. G. Truhlar,  Theor. Chem. Acc., 120, 215, 2008


    Deriv               =              1
    GGA                 =           TRUE
    Meta                =           TRUE

    Exchange Hybrid     =           TRUE
    MP2 Hybrid          =          FALSE

   => Exchange Functionals <=

    1.0000   XC_HYB_MGGA_X_M06_2X

   => Exact (HF) Exchange <=

    0.5400               HF 

   => Correlation Functionals <=

    1.0000   XC_MGGA_C_M06_2X

   => Molecular Quadrature <=

    Radial Scheme          =       TREUTLER
    Pruning Scheme         =           FLAT
    Nuclear Scheme         =       TREUTLER

    BS radius alpha        =              1
    Pruning alpha          =              1
    Radial Points          =             75
    Spherical Points       =            302
    Total Points           =          90600
    Total Blocks           =            752
    Max Points             =            256
    Max Functions          =             58

   => Loading Basis Set <=

    Name: (6-311++G** AUX)
    Role: JKFIT
    Keyword: DF_BASIS_SCF
    atoms 1-2 entry C          line   162 file /home/akrom/software/anaconda3/envs/ffpenv/share/psi4/basis/aug-cc-pvtz-jkfit.gbs 
    atoms 3-4 entry H          line    70 file /home/akrom/software/anaconda3/envs/ffpenv/share/psi4/basis/aug-cc-pvtz-jkfit.gbs 

  ==> Pre-Iterations <==

   -------------------------------------------------------
    Irrep   Nso     Nmo     Nalpha   Nbeta   Ndocc  Nsocc
   -------------------------------------------------------
     Ag        16      16       0       0       0       0
     B1g        6       6       0       0       0       0
     B2g        6       6       0       0       0       0
     B3g        1       1       0       0       0       0
     Au         1       1       0       0       0       0
     B1u        6       6       0       0       0       0
     B2u        6       6       0       0       0       0
     B3u       16      16       0       0       0       0
   -------------------------------------------------------
    Total      58      58       7       7       7       0
   -------------------------------------------------------

  ==> Integral Setup <==

  DFHelper Memory: AOs need 0.009 GiB; user supplied 0.019 GiB. Using in-core AOs.

  ==> MemDFJK: Density-Fitted J/K Matrices <==

    J tasked:                   Yes
    K tasked:                   Yes
    wK tasked:                   No
    OpenMP threads:               1
    Memory [MiB]:                19
    Algorithm:                 Core
    Schwarz Cutoff:           1E-12
    Mask sparsity (%):       0.0000
    Fitting Condition:        1E-10

   => Auxiliary Basis Set <=

  Basis Set: (6-311++G** AUX)
    Blend: AUG-CC-PVTZ-JKFIT
    Number of shells: 88
    Number of basis function: 300
    Number of Cartesian functions: 372
    Spherical Harmonics?: true
    Max angular momentum: 4

  Cached 100.0% of DFT collocation blocks in 0.347 [GiB].

  Minimum eigenvalue in the overlap matrix is 1.6293470232E-05.
  Using Symmetric Orthogonalization.

  SCF Guess: Superposition of Atomic Densities via on-the-fly atomic UHF.

  ==> Iterations <==

                           Total Energy        Delta E     RMS |[F,P]|

   @DF-RKS iter SAD:   -76.53090546320756   -7.65309e+01   0.00000e+00 
   @DF-RKS iter   1:   -77.19614862339213   -6.65243e-01   1.87044e-02 DIIS
   @DF-RKS iter   2:   -77.24886655236803   -5.27179e-02   1.35625e-02 DIIS
   @DF-RKS iter   3:   -77.31409778671622   -6.52312e-02   5.08682e-04 DIIS
   @DF-RKS iter   4:   -77.31418695070819   -8.91640e-05   1.60742e-05 DIIS
   @DF-RKS iter   5:   -77.31418709929700   -1.48589e-07   2.51657e-06 DIIS
   @DF-RKS iter   6:   -77.31418710170765   -2.41064e-09   3.41468e-07 DIIS
  Energy and wave function converged.


  ==> Post-Iterations <==

    Orbital Energies [Eh]
    ---------------------

    Doubly Occupied:                                                      

       1Ag   -10.557815     1B3u  -10.555562     2Ag    -0.846979  
       2B3u   -0.648017     3Ag    -0.564681     1B2u   -0.352956  
       1B1u   -0.352956  

    Virtual:                                                              

       4Ag     0.007769     3B3u    0.015076     1B2g    0.041349  
       1B1g    0.041349     2B2u    0.076859     2B1u    0.076859  
       5Ag     0.092339     4B3u    0.115407     6Ag     0.143257  
       2B2g    0.143596     2B1g    0.143596     5B3u    0.164808  
       6B3u    0.253984     7Ag     0.293034     7B3u    0.468253  
       8Ag     0.504516     3B1u    0.571016     3B2u    0.571016  
       3B1g    0.654428     3B2g    0.654428     9Ag     0.741048  
       8B3u    0.754179    10Ag     0.855175     9B3u    1.030284  
      10B3u    1.096133     4B1u    1.100042     4B2u    1.100042  
      11Ag     1.213276     1B3g    1.213276     4B1g    1.480541  
       4B2g    1.480541    11B3u    1.596690     1Au     1.596693  
      12Ag     1.773690     5B1u    1.857896     5B2u    1.857896  
      12B3u    2.147314     5B1g    2.487973     5B2g    2.487973  
      13Ag     2.601690    13B3u    2.651003     6B2u    2.790333  
       6B1u    2.790333    14Ag     2.997171     6B1g    3.015306  
       6B2g    3.015306    14B3u    3.351455    15Ag     3.354789  
      15B3u    3.798929    16Ag    23.629722    16B3u   25.090626  

    Final Occupation by Irrep:
             Ag   B1g   B2g   B3g    Au   B1u   B2u   B3u 
    DOCC [     3,    0,    0,    0,    0,    1,    1,    2 ]

  @DF-RKS Final Energy:   -77.31418710170765

   => Energetics <=

    Nuclear Repulsion Energy =             24.3232181713792350
    One-Electron Energy =                -150.9818459549336183
    Two-Electron Energy =                  54.8625922942066993
    DFT Exchange-Correlation Energy =      -5.5181516123599597
    Empirical Dispersion Energy =           0.0000000000000000
    VV10 Nonlocal Energy =                  0.0000000000000000
    Total Energy =                        -77.3141871017076312

Computation Completed


Properties will be evaluated at   0.000000,   0.000000,   0.000000 [a0]

Properties computed using the SCF density matrix

  Nuclear Dipole Moment: [e a0]
     X:     0.0000      Y:     0.0000      Z:     0.0000

  Electronic Dipole Moment: [e a0]
     X:     0.0000      Y:     0.0000      Z:     0.0000

  Dipole Moment: [e a0]
     X:     0.0000      Y:     0.0000      Z:     0.0000     Total:     0.0000

  Dipole Moment: [D]
     X:     0.0000      Y:     0.0000      Z:     0.0000     Total:     0.0000


*** tstop() called on atlantis at Tue Apr 19 02:06:03 2022
Module time:
	user time   =       2.61 seconds =       0.04 minutes
	system time =       0.07 seconds =       0.00 minutes
	total time  =          3 seconds =       0.05 minutes
Total time:
	user time   =       2.61 seconds =       0.04 minutes
	system time =       0.07 seconds =       0.00 minutes
	total time  =          3 seconds =       0.05 minutes
gradient() will perform analytic gradient computation.

*** tstart() called on atlantis
*** at Tue Apr 19 02:06:03 2022

   => Loading Basis Set <=

    Name: 6-311++G**
    Role: ORBITAL
    Keyword: BASIS
    atoms 1-2 entry C          line   119 file /home/akrom/software/anaconda3/envs/ffpenv/share/psi4/basis/6-311ppgss.gbs 
    atoms 3-4 entry H          line    42 file /home/akrom/software/anaconda3/envs/ffpenv/share/psi4/basis/6-311ppgss.gbs 


         ---------------------------------------------------------
                                   SCF
               by Justin Turney, Rob Parrish, Andy Simmonett
                          and Daniel G. A. Smith
                              RKS Reference
                        1 Threads,    500 MiB Core
         ---------------------------------------------------------

  ==> Geometry <==

    Molecular point group: d2h
    Full point group: D_inf_h

    Geometry (in Angstrom), charge = 0, multiplicity = 1:

       Center              X                  Y                   Z               Mass       
    ------------   -----------------  -----------------  -----------------  -----------------
         C           -0.614460000000    -0.000000000000     0.000000000000    12.000000000000
         C            0.614460000000     0.000000000000     0.000000000000    12.000000000000
         H           -1.689230000000    -0.000000000000     0.000000000000     1.007825032230
         H            1.689230000000     0.000000000000     0.000000000000     1.007825032230

  Running in d2h symmetry.

  Rotational constants: A = ************  B =      1.13802  C =      1.13802 [cm^-1]
  Rotational constants: A = ************  B =  34116.98697  C =  34116.98697 [MHz]
  Nuclear repulsion =   24.323218171379235

  Charge       = 0
  Multiplicity = 1
  Electrons    = 14
  Nalpha       = 7
  Nbeta        = 7

  ==> Algorithm <==

  SCF Algorithm Type is DF.
  DIIS enabled.
  MOM disabled.
  Fractional occupation disabled.
  Guess Type is SAD.
  Energy threshold   = 1.00e-08
  Density threshold  = 1.00e-08
  Integral threshold = 0.00e+00

  ==> Primary Basis <==

  Basis Set: 6-311++G**
    Blend: 6-311++G**
    Number of shells: 30
    Number of basis function: 58
    Number of Cartesian functions: 60
    Spherical Harmonics?: true
    Max angular momentum: 2

  ==> DFT Potential <==

   => Composite Functional: M06-2X <= 

    Hybrid M06-2X Meta-GGA XC Functional

    Y. Zhao and D. G. Truhlar,  Theor. Chem. Acc., 120, 215, 2008


    Deriv               =              1
    GGA                 =           TRUE
    Meta                =           TRUE

    Exchange Hybrid     =           TRUE
    MP2 Hybrid          =          FALSE

   => Exchange Functionals <=

    1.0000   XC_HYB_MGGA_X_M06_2X

   => Exact (HF) Exchange <=

    0.5400               HF 

   => Correlation Functionals <=

    1.0000   XC_MGGA_C_M06_2X

   => Molecular Quadrature <=

    Radial Scheme          =       TREUTLER
    Pruning Scheme         =           FLAT
    Nuclear Scheme         =       TREUTLER

    BS radius alpha        =              1
    Pruning alpha          =              1
    Radial Points          =             75
    Spherical Points       =            302
    Total Points           =          90600
    Total Blocks           =            752
    Max Points             =            256
    Max Functions          =             58

   => Loading Basis Set <=

    Name: (6-311++G** AUX)
    Role: JKFIT
    Keyword: DF_BASIS_SCF
    atoms 1-2 entry C          line   162 file /home/akrom/software/anaconda3/envs/ffpenv/share/psi4/basis/aug-cc-pvtz-jkfit.gbs 
    atoms 3-4 entry H          line    70 file /home/akrom/software/anaconda3/envs/ffpenv/share/psi4/basis/aug-cc-pvtz-jkfit.gbs 

  ==> Pre-Iterations <==

   -------------------------------------------------------
    Irrep   Nso     Nmo     Nalpha   Nbeta   Ndocc  Nsocc
   -------------------------------------------------------
     Ag        16      16       0       0       0       0
     B1g        6       6       0       0       0       0
     B2g        6       6       0       0       0       0
     B3g        1       1       0       0       0       0
     Au         1       1       0       0       0       0
     B1u        6       6       0       0       0       0
     B2u        6       6       0       0       0       0
     B3u       16      16       0       0       0       0
   -------------------------------------------------------
    Total      58      58       7       7       7       0
   -------------------------------------------------------

  ==> Integral Setup <==

  DFHelper Memory: AOs need 0.009 GiB; user supplied 0.019 GiB. Using in-core AOs.

  ==> MemDFJK: Density-Fitted J/K Matrices <==

    J tasked:                   Yes
    K tasked:                   Yes
    wK tasked:                   No
    OpenMP threads:               1
    Memory [MiB]:                19
    Algorithm:                 Core
    Schwarz Cutoff:           1E-12
    Mask sparsity (%):       0.0000
    Fitting Condition:        1E-10

   => Auxiliary Basis Set <=

  Basis Set: (6-311++G** AUX)
    Blend: AUG-CC-PVTZ-JKFIT
    Number of shells: 88
    Number of basis function: 300
    Number of Cartesian functions: 372
    Spherical Harmonics?: true
    Max angular momentum: 4

  Cached 100.0% of DFT collocation blocks in 0.347 [GiB].

  Minimum eigenvalue in the overlap matrix is 1.6293470232E-05.
  Using Symmetric Orthogonalization.

  SCF Guess: Superposition of Atomic Densities via on-the-fly atomic UHF.

  ==> Iterations <==

                           Total Energy        Delta E     RMS |[F,P]|

   @DF-RKS iter SAD:   -76.53090546320756   -7.65309e+01   0.00000e+00 
   @DF-RKS iter   1:   -77.19614862339213   -6.65243e-01   1.87044e-02 DIIS
   @DF-RKS iter   2:   -77.24886655236803   -5.27179e-02   1.35625e-02 DIIS
   @DF-RKS iter   3:   -77.31409778671622   -6.52312e-02   5.08682e-04 DIIS
   @DF-RKS iter   4:   -77.31418695070819   -8.91640e-05   1.60742e-05 DIIS
   @DF-RKS iter   5:   -77.31418709929700   -1.48589e-07   2.51657e-06 DIIS
   @DF-RKS iter   6:   -77.31418710170765   -2.41064e-09   3.41468e-07 DIIS
   @DF-RKS iter   7:   -77.31418710177857   -7.09264e-11   5.97831e-08 DIIS
   @DF-RKS iter   8:   -77.31418710178072   -2.14584e-12   5.31589e-09 DIIS
  Energy and wave function converged.


  ==> Post-Iterations <==

    Orbital Energies [Eh]
    ---------------------

    Doubly Occupied:                                                      

       1Ag   -10.557816     1B3u  -10.555563     2Ag    -0.846979  
       2B3u   -0.648017     3Ag    -0.564681     1B2u   -0.352956  
       1B1u   -0.352956  

    Virtual:                                                              

       4Ag     0.007769     3B3u    0.015077     1B2g    0.041349  
       1B1g    0.041349     2B2u    0.076859     2B1u    0.076859  
       5Ag     0.092340     4B3u    0.115407     6Ag     0.143257  
       2B2g    0.143596     2B1g    0.143596     5B3u    0.164808  
       6B3u    0.253984     7Ag     0.293034     7B3u    0.468253  
       8Ag     0.504517     3B1u    0.571016     3B2u    0.571016  
       3B1g    0.654428     3B2g    0.654428     9Ag     0.741048  
       8B3u    0.754180    10Ag     0.855175     9B3u    1.030284  
      10B3u    1.096134     4B1u    1.100042     4B2u    1.100042  
      11Ag     1.213276     1B3g    1.213276     4B1g    1.480541  
       4B2g    1.480541    11B3u    1.596690     1Au     1.596693  
      12Ag     1.773690     5B1u    1.857896     5B2u    1.857896  
      12B3u    2.147314     5B1g    2.487973     5B2g    2.487973  
      13Ag     2.601689    13B3u    2.651002     6B2u    2.790333  
       6B1u    2.790333    14Ag     2.997171     6B1g    3.015306  
       6B2g    3.015306    14B3u    3.351455    15Ag     3.354789  
      15B3u    3.798929    16Ag    23.629722    16B3u   25.090626  

    Final Occupation by Irrep:
             Ag   B1g   B2g   B3g    Au   B1u   B2u   B3u 
    DOCC [     3,    0,    0,    0,    0,    1,    1,    2 ]

  @DF-RKS Final Energy:   -77.31418710178072

   => Energetics <=

    Nuclear Repulsion Energy =             24.3232181713792350
    One-Electron Energy =                -150.9818214278439257
    Two-Electron Energy =                  54.8625660545320031
    DFT Exchange-Correlation Energy =      -5.5181498998480221
    Empirical Dispersion Energy =           0.0000000000000000
    VV10 Nonlocal Energy =                  0.0000000000000000
    Total Energy =                        -77.3141871017807034

Computation Completed


Properties will be evaluated at   0.000000,   0.000000,   0.000000 [a0]

Properties computed using the SCF density matrix

  Nuclear Dipole Moment: [e a0]
     X:     0.0000      Y:     0.0000      Z:     0.0000

  Electronic Dipole Moment: [e a0]
     X:     0.0000      Y:     0.0000      Z:     0.0000

  Dipole Moment: [e a0]
     X:     0.0000      Y:     0.0000      Z:     0.0000     Total:     0.0000

  Dipole Moment: [D]
     X:     0.0000      Y:     0.0000      Z:     0.0000     Total:     0.0000


*** tstop() called on atlantis at Tue Apr 19 02:06:06 2022
Module time:
	user time   =       3.16 seconds =       0.05 minutes
	system time =       0.01 seconds =       0.00 minutes
	total time  =          3 seconds =       0.05 minutes
Total time:
	user time   =       5.77 seconds =       0.10 minutes
	system time =       0.08 seconds =       0.00 minutes
	total time  =          6 seconds =       0.10 minutes

*** tstart() called on atlantis
*** at Tue Apr 19 02:06:06 2022


         ------------------------------------------------------------
                                   SCF GRAD                          
                          Rob Parrish, Justin Turney,                
                       Andy Simmonett, and Alex Sokolov              
         ------------------------------------------------------------

  ==> Geometry <==

    Molecular point group: d2h
    Full point group: D_inf_h

    Geometry (in Angstrom), charge = 0, multiplicity = 1:

       Center              X                  Y                   Z               Mass       
    ------------   -----------------  -----------------  -----------------  -----------------
         C           -0.614460000000    -0.000000000000     0.000000000000    12.000000000000
         C            0.614460000000     0.000000000000     0.000000000000    12.000000000000
         H           -1.689230000000    -0.000000000000     0.000000000000     1.007825032230
         H            1.689230000000     0.000000000000     0.000000000000     1.007825032230

  Nuclear repulsion =   24.323218171379235

  ==> Basis Set <==

  Basis Set: 6-311++G**
    Blend: 6-311++G**
    Number of shells: 30
    Number of basis function: 58
    Number of Cartesian functions: 60
    Spherical Harmonics?: true
    Max angular momentum: 2

  ==> DFJKGrad: Density-Fitted SCF Gradients <==

    Gradient:                    1
    J tasked:                  Yes
    K tasked:                  Yes
    wK tasked:                  No
    OpenMP threads:              1
    Integrals threads:           1
    Memory [MiB]:              375
    Schwarz Cutoff:          0E+00
    Fitting Condition:       1E-10

   => Auxiliary Basis Set <=

  Basis Set: (6-311++G** AUX)
    Blend: AUG-CC-PVTZ-JKFIT
    Number of shells: 88
    Number of basis function: 300
    Number of Cartesian functions: 372
    Spherical Harmonics?: true
    Max angular momentum: 4

  ==> DFT Potential <==

   => Composite Functional: M06-2X <= 

    Hybrid M06-2X Meta-GGA XC Functional

    Y. Zhao and D. G. Truhlar,  Theor. Chem. Acc., 120, 215, 2008


    Deriv               =              1
    GGA                 =           TRUE
    Meta                =           TRUE

    Exchange Hybrid     =           TRUE
    MP2 Hybrid          =          FALSE

   => Exchange Functionals <=

    1.0000   XC_HYB_MGGA_X_M06_2X

   => Exact (HF) Exchange <=

    0.5400               HF 

   => Correlation Functionals <=

    1.0000   XC_MGGA_C_M06_2X

   => Molecular Quadrature <=

    Radial Scheme          =       TREUTLER
    Pruning Scheme         =           FLAT
    Nuclear Scheme         =       TREUTLER

    BS radius alpha        =              1
    Pruning alpha          =              1
    Radial Points          =             75
    Spherical Points       =            302
    Total Points           =          90600
    Total Blocks           =            752
    Max Points             =            256
    Max Functions          =             58


  -Total Gradient:
     Atom            X                  Y                   Z
    ------   -----------------  -----------------  -----------------
       1       -0.055648369146    -0.000000000000    -0.000000000000
       2        0.055648369146     0.000000000000     0.000000000000
       3       -0.007374433716    -0.000000000000     0.000000000000
       4        0.007374433716     0.000000000000     0.000000000000


*** tstop() called on atlantis at Tue Apr 19 02:06:07 2022
Module time:
	user time   =       0.70 seconds =       0.01 minutes
	system time =       0.00 seconds =       0.00 minutes
	total time  =          1 seconds =       0.02 minutes
Total time:
	user time   =       6.47 seconds =       0.11 minutes
	system time =       0.08 seconds =       0.00 minutes
	total time  =          7 seconds =       0.12 minutes

  Based on options and gradient (rms=2.29E-02), recommend projecting translations and not projecting rotations.
hessian() will perform frequency computation by finite difference of analytic gradients.

         ----------------------------------------------------------
                                   FINDIF
                     R. A. King and Jonathon Misiewicz
         ---------------------------------------------------------

  Using finite-differences of gradients to determine vibrational frequencies and 
  normal modes.  Resulting frequencies are only valid at stationary points.
    Generating geometries for use with 3-point formula.
    Displacement size will be 5.00e-03.
    Number of atoms is 4.
    Number of irreps is 8.
    Number of SALCs is 9.
    Translations projected? 1. Rotations projected? 0.
    Index of SALCs per irrep:
     1 :  0  1 
     2 :  2  3 
     3 :  4  5 
     4 : 
     5 : 
     6 :  6 
     7 :  7 
     8 :  8 
    Number of SALCs per irrep:
     Irrep 1: 2
     Irrep 2: 2
     Irrep 3: 2
     Irrep 4: 0
     Irrep 5: 0
     Irrep 6: 1
     Irrep 7: 1
     Irrep 8: 1
    Number of geometries (including reference) is 12.
    Number of displacements per irrep:
      Irrep 1: 4
      Irrep 2: 2
      Irrep 3: 2
      Irrep 4: 0
      Irrep 5: 0
      Irrep 6: 1
      Irrep 7: 1
      Irrep 8: 1

  //>>>>>>>>>>>>>>>>>>>>>>>>>>>>>>>>>>>//
  //    Loading displacement 1 of 12   //
  //<<<<<<<<<<<<<<<<<<<<<<<<<<<<<<<<<<<//
gradient() will perform analytic gradient computation.

*** tstart() called on atlantis
*** at Tue Apr 19 02:06:07 2022

   => Loading Basis Set <=

    Name: 6-311++G**
    Role: ORBITAL
    Keyword: BASIS
    atoms 1-2 entry C          line   119 file /home/akrom/software/anaconda3/envs/ffpenv/share/psi4/basis/6-311ppgss.gbs 
    atoms 3-4 entry H          line    42 file /home/akrom/software/anaconda3/envs/ffpenv/share/psi4/basis/6-311ppgss.gbs 


         ---------------------------------------------------------
                                   SCF
               by Justin Turney, Rob Parrish, Andy Simmonett
                          and Daniel G. A. Smith
                              RKS Reference
                        1 Threads,    500 MiB Core
         ---------------------------------------------------------

  ==> Geometry <==

    Molecular point group: d2h
    Full point group: D_inf_h

    Geometry (in Angstrom), charge = 0, multiplicity = 1:

       Center              X                  Y                   Z               Mass       
    ------------   -----------------  -----------------  -----------------  -----------------
         C           -0.614460000000    -0.000000000000     0.000000000000    12.000000000000
         C            0.614460000000     0.000000000000     0.000000000000    12.000000000000
         H           -1.689230000000    -0.000000000000     0.000000000000     1.007825032230
         H            1.689230000000     0.000000000000     0.000000000000     1.007825032230

  Running in d2h symmetry.

  Rotational constants: A = ************  B =      1.13802  C =      1.13802 [cm^-1]
  Rotational constants: A = ************  B =  34116.98697  C =  34116.98697 [MHz]
  Nuclear repulsion =   24.323218171379235

  Charge       = 0
  Multiplicity = 1
  Electrons    = 14
  Nalpha       = 7
  Nbeta        = 7

  ==> Algorithm <==

  SCF Algorithm Type is DF.
  DIIS enabled.
  MOM disabled.
  Fractional occupation disabled.
  Guess Type is SAD.
  Energy threshold   = 1.00e-08
  Density threshold  = 1.00e-08
  Integral threshold = 0.00e+00

  ==> Primary Basis <==

  Basis Set: 6-311++G**
    Blend: 6-311++G**
    Number of shells: 30
    Number of basis function: 58
    Number of Cartesian functions: 60
    Spherical Harmonics?: true
    Max angular momentum: 2

  ==> DFT Potential <==

   => Composite Functional: M06-2X <= 

    Hybrid M06-2X Meta-GGA XC Functional

    Y. Zhao and D. G. Truhlar,  Theor. Chem. Acc., 120, 215, 2008


    Deriv               =              1
    GGA                 =           TRUE
    Meta                =           TRUE

    Exchange Hybrid     =           TRUE
    MP2 Hybrid          =          FALSE

   => Exchange Functionals <=

    1.0000   XC_HYB_MGGA_X_M06_2X

   => Exact (HF) Exchange <=

    0.5400               HF 

   => Correlation Functionals <=

    1.0000   XC_MGGA_C_M06_2X

   => Molecular Quadrature <=

    Radial Scheme          =       TREUTLER
    Pruning Scheme         =           FLAT
    Nuclear Scheme         =       TREUTLER

    BS radius alpha        =              1
    Pruning alpha          =              1
    Radial Points          =             75
    Spherical Points       =            302
    Total Points           =          90600
    Total Blocks           =            752
    Max Points             =            256
    Max Functions          =             58

   => Loading Basis Set <=

    Name: (6-311++G** AUX)
    Role: JKFIT
    Keyword: DF_BASIS_SCF
    atoms 1-2 entry C          line   162 file /home/akrom/software/anaconda3/envs/ffpenv/share/psi4/basis/aug-cc-pvtz-jkfit.gbs 
    atoms 3-4 entry H          line    70 file /home/akrom/software/anaconda3/envs/ffpenv/share/psi4/basis/aug-cc-pvtz-jkfit.gbs 

  ==> Pre-Iterations <==

   -------------------------------------------------------
    Irrep   Nso     Nmo     Nalpha   Nbeta   Ndocc  Nsocc
   -------------------------------------------------------
     Ag        16      16       0       0       0       0
     B1g        6       6       0       0       0       0
     B2g        6       6       0       0       0       0
     B3g        1       1       0       0       0       0
     Au         1       1       0       0       0       0
     B1u        6       6       0       0       0       0
     B2u        6       6       0       0       0       0
     B3u       16      16       0       0       0       0
   -------------------------------------------------------
    Total      58      58       7       7       7       0
   -------------------------------------------------------

  ==> Integral Setup <==

  DFHelper Memory: AOs need 0.009 GiB; user supplied 0.019 GiB. Using in-core AOs.

  ==> MemDFJK: Density-Fitted J/K Matrices <==

    J tasked:                   Yes
    K tasked:                   Yes
    wK tasked:                   No
    OpenMP threads:               1
    Memory [MiB]:                19
    Algorithm:                 Core
    Schwarz Cutoff:           1E-12
    Mask sparsity (%):       0.0000
    Fitting Condition:        1E-10

   => Auxiliary Basis Set <=

  Basis Set: (6-311++G** AUX)
    Blend: AUG-CC-PVTZ-JKFIT
    Number of shells: 88
    Number of basis function: 300
    Number of Cartesian functions: 372
    Spherical Harmonics?: true
    Max angular momentum: 4

  Cached 100.0% of DFT collocation blocks in 0.347 [GiB].

  Minimum eigenvalue in the overlap matrix is 1.6293470232E-05.
  Using Symmetric Orthogonalization.

  SCF Guess: Superposition of Atomic Densities via on-the-fly atomic UHF.

  ==> Iterations <==

                           Total Energy        Delta E     RMS |[F,P]|

   @DF-RKS iter SAD:   -76.53090546320756   -7.65309e+01   0.00000e+00 
   @DF-RKS iter   1:   -77.19614862339213   -6.65243e-01   1.87044e-02 DIIS
   @DF-RKS iter   2:   -77.24886655236803   -5.27179e-02   1.35625e-02 DIIS
   @DF-RKS iter   3:   -77.31409778671622   -6.52312e-02   5.08682e-04 DIIS
   @DF-RKS iter   4:   -77.31418695070819   -8.91640e-05   1.60742e-05 DIIS
   @DF-RKS iter   5:   -77.31418709929700   -1.48589e-07   2.51657e-06 DIIS
   @DF-RKS iter   6:   -77.31418710170765   -2.41064e-09   3.41468e-07 DIIS
   @DF-RKS iter   7:   -77.31418710177857   -7.09264e-11   5.97831e-08 DIIS
   @DF-RKS iter   8:   -77.31418710178072   -2.14584e-12   5.31589e-09 DIIS
  Energy and wave function converged.


  ==> Post-Iterations <==

    Orbital Energies [Eh]
    ---------------------

    Doubly Occupied:                                                      

       1Ag   -10.557816     1B3u  -10.555563     2Ag    -0.846979  
       2B3u   -0.648017     3Ag    -0.564681     1B2u   -0.352956  
       1B1u   -0.352956  

    Virtual:                                                              

       4Ag     0.007769     3B3u    0.015077     1B2g    0.041349  
       1B1g    0.041349     2B2u    0.076859     2B1u    0.076859  
       5Ag     0.092340     4B3u    0.115407     6Ag     0.143257  
       2B2g    0.143596     2B1g    0.143596     5B3u    0.164808  
       6B3u    0.253984     7Ag     0.293034     7B3u    0.468253  
       8Ag     0.504517     3B1u    0.571016     3B2u    0.571016  
       3B1g    0.654428     3B2g    0.654428     9Ag     0.741048  
       8B3u    0.754180    10Ag     0.855175     9B3u    1.030284  
      10B3u    1.096134     4B1u    1.100042     4B2u    1.100042  
      11Ag     1.213276     1B3g    1.213276     4B1g    1.480541  
       4B2g    1.480541    11B3u    1.596690     1Au     1.596693  
      12Ag     1.773690     5B1u    1.857896     5B2u    1.857896  
      12B3u    2.147314     5B1g    2.487973     5B2g    2.487973  
      13Ag     2.601689    13B3u    2.651002     6B2u    2.790333  
       6B1u    2.790333    14Ag     2.997171     6B1g    3.015306  
       6B2g    3.015306    14B3u    3.351455    15Ag     3.354789  
      15B3u    3.798929    16Ag    23.629722    16B3u   25.090626  

    Final Occupation by Irrep:
             Ag   B1g   B2g   B3g    Au   B1u   B2u   B3u 
    DOCC [     3,    0,    0,    0,    0,    1,    1,    2 ]

  @DF-RKS Final Energy:   -77.31418710178072

   => Energetics <=

    Nuclear Repulsion Energy =             24.3232181713792350
    One-Electron Energy =                -150.9818214278439257
    Two-Electron Energy =                  54.8625660545320031
    DFT Exchange-Correlation Energy =      -5.5181498998480221
    Empirical Dispersion Energy =           0.0000000000000000
    VV10 Nonlocal Energy =                  0.0000000000000000
    Total Energy =                        -77.3141871017807034

Computation Completed


Properties will be evaluated at   0.000000,   0.000000,   0.000000 [a0]

Properties computed using the SCF density matrix

  Nuclear Dipole Moment: [e a0]
     X:     0.0000      Y:     0.0000      Z:     0.0000

  Electronic Dipole Moment: [e a0]
     X:     0.0000      Y:     0.0000      Z:     0.0000

  Dipole Moment: [e a0]
     X:     0.0000      Y:     0.0000      Z:     0.0000     Total:     0.0000

  Dipole Moment: [D]
     X:     0.0000      Y:     0.0000      Z:     0.0000     Total:     0.0000


*** tstop() called on atlantis at Tue Apr 19 02:06:10 2022
Module time:
	user time   =       3.14 seconds =       0.05 minutes
	system time =       0.01 seconds =       0.00 minutes
	total time  =          3 seconds =       0.05 minutes
Total time:
	user time   =       9.88 seconds =       0.16 minutes
	system time =       0.10 seconds =       0.00 minutes
	total time  =         10 seconds =       0.17 minutes

*** tstart() called on atlantis
*** at Tue Apr 19 02:06:10 2022


         ------------------------------------------------------------
                                   SCF GRAD                          
                          Rob Parrish, Justin Turney,                
                       Andy Simmonett, and Alex Sokolov              
         ------------------------------------------------------------

  ==> Geometry <==

    Molecular point group: d2h
    Full point group: D_inf_h

    Geometry (in Angstrom), charge = 0, multiplicity = 1:

       Center              X                  Y                   Z               Mass       
    ------------   -----------------  -----------------  -----------------  -----------------
         C           -0.614460000000    -0.000000000000     0.000000000000    12.000000000000
         C            0.614460000000     0.000000000000     0.000000000000    12.000000000000
         H           -1.689230000000    -0.000000000000     0.000000000000     1.007825032230
         H            1.689230000000     0.000000000000     0.000000000000     1.007825032230

  Nuclear repulsion =   24.323218171379235

  ==> Basis Set <==

  Basis Set: 6-311++G**
    Blend: 6-311++G**
    Number of shells: 30
    Number of basis function: 58
    Number of Cartesian functions: 60
    Spherical Harmonics?: true
    Max angular momentum: 2

  ==> DFJKGrad: Density-Fitted SCF Gradients <==

    Gradient:                    1
    J tasked:                  Yes
    K tasked:                  Yes
    wK tasked:                  No
    OpenMP threads:              1
    Integrals threads:           1
    Memory [MiB]:              375
    Schwarz Cutoff:          0E+00
    Fitting Condition:       1E-10

   => Auxiliary Basis Set <=

  Basis Set: (6-311++G** AUX)
    Blend: AUG-CC-PVTZ-JKFIT
    Number of shells: 88
    Number of basis function: 300
    Number of Cartesian functions: 372
    Spherical Harmonics?: true
    Max angular momentum: 4

  ==> DFT Potential <==

   => Composite Functional: M06-2X <= 

    Hybrid M06-2X Meta-GGA XC Functional

    Y. Zhao and D. G. Truhlar,  Theor. Chem. Acc., 120, 215, 2008


    Deriv               =              1
    GGA                 =           TRUE
    Meta                =           TRUE

    Exchange Hybrid     =           TRUE
    MP2 Hybrid          =          FALSE

   => Exchange Functionals <=

    1.0000   XC_HYB_MGGA_X_M06_2X

   => Exact (HF) Exchange <=

    0.5400               HF 

   => Correlation Functionals <=

    1.0000   XC_MGGA_C_M06_2X

   => Molecular Quadrature <=

    Radial Scheme          =       TREUTLER
    Pruning Scheme         =           FLAT
    Nuclear Scheme         =       TREUTLER

    BS radius alpha        =              1
    Pruning alpha          =              1
    Radial Points          =             75
    Spherical Points       =            302
    Total Points           =          90600
    Total Blocks           =            752
    Max Points             =            256
    Max Functions          =             58


  -Total Gradient:
     Atom            X                  Y                   Z
    ------   -----------------  -----------------  -----------------
       1       -0.055648369146    -0.000000000000    -0.000000000000
       2        0.055648369146     0.000000000000     0.000000000000
       3       -0.007374433716    -0.000000000000     0.000000000000
       4        0.007374433716     0.000000000000     0.000000000000


*** tstop() called on atlantis at Tue Apr 19 02:06:11 2022
Module time:
	user time   =       0.69 seconds =       0.01 minutes
	system time =       0.00 seconds =       0.00 minutes
	total time  =          1 seconds =       0.02 minutes
Total time:
	user time   =      10.57 seconds =       0.18 minutes
	system time =       0.10 seconds =       0.00 minutes
	total time  =         11 seconds =       0.18 minutes

  //>>>>>>>>>>>>>>>>>>>>>>>>>>>>>>>>>>>//
  //    Loading displacement 2 of 12   //
  //<<<<<<<<<<<<<<<<<<<<<<<<<<<<<<<<<<<//
gradient() will perform analytic gradient computation.

*** tstart() called on atlantis
*** at Tue Apr 19 02:06:11 2022

   => Loading Basis Set <=

    Name: 6-311++G**
    Role: ORBITAL
    Keyword: BASIS
    atoms 1-2 entry C          line   119 file /home/akrom/software/anaconda3/envs/ffpenv/share/psi4/basis/6-311ppgss.gbs 
    atoms 3-4 entry H          line    42 file /home/akrom/software/anaconda3/envs/ffpenv/share/psi4/basis/6-311ppgss.gbs 


         ---------------------------------------------------------
                                   SCF
               by Justin Turney, Rob Parrish, Andy Simmonett
                          and Daniel G. A. Smith
                              RKS Reference
                        1 Threads,    500 MiB Core
         ---------------------------------------------------------

  ==> Geometry <==

    Molecular point group: d2h
    Full point group: D_inf_h

    Geometry (in Angstrom), charge = 0, multiplicity = 1:

       Center              X                  Y                   Z               Mass       
    ------------   -----------------  -----------------  -----------------  -----------------
         C           -0.615000089229    -0.000000000000     0.000000000000    12.000000000000
         C            0.615000089229     0.000000000000     0.000000000000    12.000000000000
         H           -1.689230000000    -0.000000000000     0.000000000000     1.007825032230
         H            1.689230000000     0.000000000000     0.000000000000     1.007825032230

  Running in d2h symmetry.

  Rotational constants: A = ************  B =      1.13680  C =      1.13680 [cm^-1]
  Rotational constants: A = ************  B =  34080.32226  C =  34080.32226 [MHz]
  Nuclear repulsion =   24.311929094340595

  Charge       = 0
  Multiplicity = 1
  Electrons    = 14
  Nalpha       = 7
  Nbeta        = 7

  ==> Algorithm <==

  SCF Algorithm Type is DF.
  DIIS enabled.
  MOM disabled.
  Fractional occupation disabled.
  Guess Type is SAD.
  Energy threshold   = 1.00e-08
  Density threshold  = 1.00e-08
  Integral threshold = 0.00e+00

  ==> Primary Basis <==

  Basis Set: 6-311++G**
    Blend: 6-311++G**
    Number of shells: 30
    Number of basis function: 58
    Number of Cartesian functions: 60
    Spherical Harmonics?: true
    Max angular momentum: 2

  ==> DFT Potential <==

   => Composite Functional: M06-2X <= 

    Hybrid M06-2X Meta-GGA XC Functional

    Y. Zhao and D. G. Truhlar,  Theor. Chem. Acc., 120, 215, 2008


    Deriv               =              1
    GGA                 =           TRUE
    Meta                =           TRUE

    Exchange Hybrid     =           TRUE
    MP2 Hybrid          =          FALSE

   => Exchange Functionals <=

    1.0000   XC_HYB_MGGA_X_M06_2X

   => Exact (HF) Exchange <=

    0.5400               HF 

   => Correlation Functionals <=

    1.0000   XC_MGGA_C_M06_2X

   => Molecular Quadrature <=

    Radial Scheme          =       TREUTLER
    Pruning Scheme         =           FLAT
    Nuclear Scheme         =       TREUTLER

    BS radius alpha        =              1
    Pruning alpha          =              1
    Radial Points          =             75
    Spherical Points       =            302
    Total Points           =          90600
    Total Blocks           =            752
    Max Points             =            256
    Max Functions          =             58

   => Loading Basis Set <=

    Name: (6-311++G** AUX)
    Role: JKFIT
    Keyword: DF_BASIS_SCF
    atoms 1-2 entry C          line   162 file /home/akrom/software/anaconda3/envs/ffpenv/share/psi4/basis/aug-cc-pvtz-jkfit.gbs 
    atoms 3-4 entry H          line    70 file /home/akrom/software/anaconda3/envs/ffpenv/share/psi4/basis/aug-cc-pvtz-jkfit.gbs 

  ==> Pre-Iterations <==

   -------------------------------------------------------
    Irrep   Nso     Nmo     Nalpha   Nbeta   Ndocc  Nsocc
   -------------------------------------------------------
     Ag        16      16       0       0       0       0
     B1g        6       6       0       0       0       0
     B2g        6       6       0       0       0       0
     B3g        1       1       0       0       0       0
     Au         1       1       0       0       0       0
     B1u        6       6       0       0       0       0
     B2u        6       6       0       0       0       0
     B3u       16      16       0       0       0       0
   -------------------------------------------------------
    Total      58      58       7       7       7       0
   -------------------------------------------------------

  ==> Integral Setup <==

  DFHelper Memory: AOs need 0.009 GiB; user supplied 0.019 GiB. Using in-core AOs.

  ==> MemDFJK: Density-Fitted J/K Matrices <==

    J tasked:                   Yes
    K tasked:                   Yes
    wK tasked:                   No
    OpenMP threads:               1
    Memory [MiB]:                19
    Algorithm:                 Core
    Schwarz Cutoff:           1E-12
    Mask sparsity (%):       0.0000
    Fitting Condition:        1E-10

   => Auxiliary Basis Set <=

  Basis Set: (6-311++G** AUX)
    Blend: AUG-CC-PVTZ-JKFIT
    Number of shells: 88
    Number of basis function: 300
    Number of Cartesian functions: 372
    Spherical Harmonics?: true
    Max angular momentum: 4

  Cached 100.0% of DFT collocation blocks in 0.347 [GiB].

  Minimum eigenvalue in the overlap matrix is 1.6397172283E-05.
  Using Symmetric Orthogonalization.

  SCF Guess: Superposition of Atomic Densities via on-the-fly atomic UHF.

  ==> Iterations <==

                           Total Energy        Delta E     RMS |[F,P]|

   @DF-RKS iter SAD:   -76.53008847166271   -7.65301e+01   0.00000e+00 
   @DF-RKS iter   1:   -77.19645846646929   -6.66370e-01   1.86667e-02 DIIS
   @DF-RKS iter   2:   -77.24908671162238   -5.26282e-02   1.35272e-02 DIIS
   @DF-RKS iter   3:   -77.31398246042629   -6.48957e-02   5.06004e-04 DIIS
   @DF-RKS iter   4:   -77.31407070350407   -8.82431e-05   1.60131e-05 DIIS
   @DF-RKS iter   5:   -77.31407085058871   -1.47085e-07   2.51193e-06 DIIS
   @DF-RKS iter   6:   -77.31407085295301   -2.36430e-09   3.43981e-07 DIIS
   @DF-RKS iter   7:   -77.31407085302425   -7.12390e-11   5.92324e-08 DIIS
   @DF-RKS iter   8:   -77.31407085302639   -2.14584e-12   5.31196e-09 DIIS
  Energy and wave function converged.


  ==> Post-Iterations <==

    Orbital Energies [Eh]
    ---------------------

    Doubly Occupied:                                                      

       1Ag   -10.558084     1B3u  -10.555848     2Ag    -0.846782  
       2B3u   -0.648341     3Ag    -0.564805     1B2u   -0.352797  
       1B1u   -0.352797  

    Virtual:                                                              

       4Ag     0.007759     3B3u    0.015073     1B1g    0.041157  
       1B2g    0.041157     2B2u    0.076878     2B1u    0.076878  
       5Ag     0.092369     4B3u    0.115402     6Ag     0.143239  
       2B1g    0.143413     2B2g    0.143413     5B3u    0.164783  
       6B3u    0.253928     7Ag     0.293155     7B3u    0.467966  
       8Ag     0.504615     3B2u    0.571119     3B1u    0.571119  
       3B1g    0.654229     3B2g    0.654229     9Ag     0.740970  
       8B3u    0.754217    10Ag     0.855344     9B3u    1.029503  
      10B3u    1.095653     4B2u    1.099707     4B1u    1.099707  
      11Ag     1.213406     1B3g    1.213407     4B1g    1.480382  
       4B2g    1.480382    11B3u    1.596166     1Au     1.596169  
      12Ag     1.773653     5B1u    1.857764     5B2u    1.857764  
      12B3u    2.146437     5B2g    2.487595     5B1g    2.487595  
      13Ag     2.601431    13B3u    2.651636     6B1u    2.790166  
       6B2u    2.790166    14Ag     2.998170     6B2g    3.014799  
       6B1g    3.014799    14B3u    3.352151    15Ag     3.353544  
      15B3u    3.798457    16Ag    23.629831    16B3u   25.087189  

    Final Occupation by Irrep:
             Ag   B1g   B2g   B3g    Au   B1u   B2u   B3u 
    DOCC [     3,    0,    0,    0,    0,    1,    1,    2 ]

  @DF-RKS Final Energy:   -77.31407085302639

   => Energetics <=

    Nuclear Repulsion Energy =             24.3119290943405950
    One-Electron Energy =                -150.9582884406279959
    Two-Electron Energy =                  54.8501640543408442
    DFT Exchange-Correlation Energy =      -5.5178755610798413
    Empirical Dispersion Energy =           0.0000000000000000
    VV10 Nonlocal Energy =                  0.0000000000000000
    Total Energy =                        -77.3140708530264078

Computation Completed


Properties will be evaluated at   0.000000,   0.000000,   0.000000 [a0]

Properties computed using the SCF density matrix

  Nuclear Dipole Moment: [e a0]
     X:     0.0000      Y:     0.0000      Z:     0.0000

  Electronic Dipole Moment: [e a0]
     X:     0.0000      Y:     0.0000      Z:     0.0000

  Dipole Moment: [e a0]
     X:     0.0000      Y:     0.0000      Z:     0.0000     Total:     0.0000

  Dipole Moment: [D]
     X:     0.0000      Y:     0.0000      Z:     0.0000     Total:     0.0000


*** tstop() called on atlantis at Tue Apr 19 02:06:14 2022
Module time:
	user time   =       3.12 seconds =       0.05 minutes
	system time =       0.03 seconds =       0.00 minutes
	total time  =          3 seconds =       0.05 minutes
Total time:
	user time   =      13.70 seconds =       0.23 minutes
	system time =       0.13 seconds =       0.00 minutes
	total time  =         14 seconds =       0.23 minutes

*** tstart() called on atlantis
*** at Tue Apr 19 02:06:14 2022


         ------------------------------------------------------------
                                   SCF GRAD                          
                          Rob Parrish, Justin Turney,                
                       Andy Simmonett, and Alex Sokolov              
         ------------------------------------------------------------

  ==> Geometry <==

    Molecular point group: d2h
    Full point group: D_inf_h

    Geometry (in Angstrom), charge = 0, multiplicity = 1:

       Center              X                  Y                   Z               Mass       
    ------------   -----------------  -----------------  -----------------  -----------------
         C           -0.615000089229    -0.000000000000     0.000000000000    12.000000000000
         C            0.615000089229     0.000000000000     0.000000000000    12.000000000000
         H           -1.689230000000    -0.000000000000     0.000000000000     1.007825032230
         H            1.689230000000     0.000000000000     0.000000000000     1.007825032230

  Nuclear repulsion =   24.311929094340595

  ==> Basis Set <==

  Basis Set: 6-311++G**
    Blend: 6-311++G**
    Number of shells: 30
    Number of basis function: 58
    Number of Cartesian functions: 60
    Spherical Harmonics?: true
    Max angular momentum: 2

  ==> DFJKGrad: Density-Fitted SCF Gradients <==

    Gradient:                    1
    J tasked:                  Yes
    K tasked:                  Yes
    wK tasked:                  No
    OpenMP threads:              1
    Integrals threads:           1
    Memory [MiB]:              375
    Schwarz Cutoff:          0E+00
    Fitting Condition:       1E-10

   => Auxiliary Basis Set <=

  Basis Set: (6-311++G** AUX)
    Blend: AUG-CC-PVTZ-JKFIT
    Number of shells: 88
    Number of basis function: 300
    Number of Cartesian functions: 372
    Spherical Harmonics?: true
    Max angular momentum: 4

  ==> DFT Potential <==

   => Composite Functional: M06-2X <= 

    Hybrid M06-2X Meta-GGA XC Functional

    Y. Zhao and D. G. Truhlar,  Theor. Chem. Acc., 120, 215, 2008


    Deriv               =              1
    GGA                 =           TRUE
    Meta                =           TRUE

    Exchange Hybrid     =           TRUE
    MP2 Hybrid          =          FALSE

   => Exchange Functionals <=

    1.0000   XC_HYB_MGGA_X_M06_2X

   => Exact (HF) Exchange <=

    0.5400               HF 

   => Correlation Functionals <=

    1.0000   XC_MGGA_C_M06_2X

   => Molecular Quadrature <=

    Radial Scheme          =       TREUTLER
    Pruning Scheme         =           FLAT
    Nuclear Scheme         =       TREUTLER

    BS radius alpha        =              1
    Pruning alpha          =              1
    Radial Points          =             75
    Spherical Points       =            302
    Total Points           =          90600
    Total Blocks           =            752
    Max Points             =            256
    Max Functions          =             58


  -Total Gradient:
     Atom            X                  Y                   Z
    ------   -----------------  -----------------  -----------------
       1       -0.058036840374    -0.000000000000    -0.000000000000
       2        0.058036840374     0.000000000000    -0.000000000000
       3       -0.006956334954    -0.000000000000     0.000000000000
       4        0.006956334954     0.000000000000    -0.000000000000


*** tstop() called on atlantis at Tue Apr 19 02:06:15 2022
Module time:
	user time   =       0.68 seconds =       0.01 minutes
	system time =       0.01 seconds =       0.00 minutes
	total time  =          1 seconds =       0.02 minutes
Total time:
	user time   =      14.38 seconds =       0.24 minutes
	system time =       0.14 seconds =       0.00 minutes
	total time  =         15 seconds =       0.25 minutes

  //>>>>>>>>>>>>>>>>>>>>>>>>>>>>>>>>>>>//
  //    Loading displacement 3 of 12   //
  //<<<<<<<<<<<<<<<<<<<<<<<<<<<<<<<<<<<//
gradient() will perform analytic gradient computation.

*** tstart() called on atlantis
*** at Tue Apr 19 02:06:15 2022

   => Loading Basis Set <=

    Name: 6-311++G**
    Role: ORBITAL
    Keyword: BASIS
    atoms 1-2 entry C          line   119 file /home/akrom/software/anaconda3/envs/ffpenv/share/psi4/basis/6-311ppgss.gbs 
    atoms 3-4 entry H          line    42 file /home/akrom/software/anaconda3/envs/ffpenv/share/psi4/basis/6-311ppgss.gbs 


         ---------------------------------------------------------
                                   SCF
               by Justin Turney, Rob Parrish, Andy Simmonett
                          and Daniel G. A. Smith
                              RKS Reference
                        1 Threads,    500 MiB Core
         ---------------------------------------------------------

  ==> Geometry <==

    Molecular point group: d2h
    Full point group: D_inf_h

    Geometry (in Angstrom), charge = 0, multiplicity = 1:

       Center              X                  Y                   Z               Mass       
    ------------   -----------------  -----------------  -----------------  -----------------
         C           -0.613919910771    -0.000000000000     0.000000000000    12.000000000000
         C            0.613919910771     0.000000000000     0.000000000000    12.000000000000
         H           -1.689230000000    -0.000000000000     0.000000000000     1.007825032230
         H            1.689230000000     0.000000000000     0.000000000000     1.007825032230

  Running in d2h symmetry.

  Rotational constants: A = ************  B =      1.13924  C =      1.13924 [cm^-1]
  Rotational constants: A = ************  B =  34153.69835  C =  34153.69835 [MHz]
  Nuclear repulsion =   24.334534488106961

  Charge       = 0
  Multiplicity = 1
  Electrons    = 14
  Nalpha       = 7
  Nbeta        = 7

  ==> Algorithm <==

  SCF Algorithm Type is DF.
  DIIS enabled.
  MOM disabled.
  Fractional occupation disabled.
  Guess Type is SAD.
  Energy threshold   = 1.00e-08
  Density threshold  = 1.00e-08
  Integral threshold = 0.00e+00

  ==> Primary Basis <==

  Basis Set: 6-311++G**
    Blend: 6-311++G**
    Number of shells: 30
    Number of basis function: 58
    Number of Cartesian functions: 60
    Spherical Harmonics?: true
    Max angular momentum: 2

  ==> DFT Potential <==

   => Composite Functional: M06-2X <= 

    Hybrid M06-2X Meta-GGA XC Functional

    Y. Zhao and D. G. Truhlar,  Theor. Chem. Acc., 120, 215, 2008


    Deriv               =              1
    GGA                 =           TRUE
    Meta                =           TRUE

    Exchange Hybrid     =           TRUE
    MP2 Hybrid          =          FALSE

   => Exchange Functionals <=

    1.0000   XC_HYB_MGGA_X_M06_2X

   => Exact (HF) Exchange <=

    0.5400               HF 

   => Correlation Functionals <=

    1.0000   XC_MGGA_C_M06_2X

   => Molecular Quadrature <=

    Radial Scheme          =       TREUTLER
    Pruning Scheme         =           FLAT
    Nuclear Scheme         =       TREUTLER

    BS radius alpha        =              1
    Pruning alpha          =              1
    Radial Points          =             75
    Spherical Points       =            302
    Total Points           =          90600
    Total Blocks           =            752
    Max Points             =            256
    Max Functions          =             58

   => Loading Basis Set <=

    Name: (6-311++G** AUX)
    Role: JKFIT
    Keyword: DF_BASIS_SCF
    atoms 1-2 entry C          line   162 file /home/akrom/software/anaconda3/envs/ffpenv/share/psi4/basis/aug-cc-pvtz-jkfit.gbs 
    atoms 3-4 entry H          line    70 file /home/akrom/software/anaconda3/envs/ffpenv/share/psi4/basis/aug-cc-pvtz-jkfit.gbs 

  ==> Pre-Iterations <==

   -------------------------------------------------------
    Irrep   Nso     Nmo     Nalpha   Nbeta   Ndocc  Nsocc
   -------------------------------------------------------
     Ag        16      16       0       0       0       0
     B1g        6       6       0       0       0       0
     B2g        6       6       0       0       0       0
     B3g        1       1       0       0       0       0
     Au         1       1       0       0       0       0
     B1u        6       6       0       0       0       0
     B2u        6       6       0       0       0       0
     B3u       16      16       0       0       0       0
   -------------------------------------------------------
    Total      58      58       7       7       7       0
   -------------------------------------------------------

  ==> Integral Setup <==

  DFHelper Memory: AOs need 0.009 GiB; user supplied 0.019 GiB. Using in-core AOs.

  ==> MemDFJK: Density-Fitted J/K Matrices <==

    J tasked:                   Yes
    K tasked:                   Yes
    wK tasked:                   No
    OpenMP threads:               1
    Memory [MiB]:                19
    Algorithm:                 Core
    Schwarz Cutoff:           1E-12
    Mask sparsity (%):       0.0000
    Fitting Condition:        1E-10

   => Auxiliary Basis Set <=

  Basis Set: (6-311++G** AUX)
    Blend: AUG-CC-PVTZ-JKFIT
    Number of shells: 88
    Number of basis function: 300
    Number of Cartesian functions: 372
    Spherical Harmonics?: true
    Max angular momentum: 4

  Cached 100.0% of DFT collocation blocks in 0.347 [GiB].

  Minimum eigenvalue in the overlap matrix is 1.6190368895E-05.
  Using Symmetric Orthogonalization.

  SCF Guess: Superposition of Atomic Densities via on-the-fly atomic UHF.

  ==> Iterations <==

                           Total Energy        Delta E     RMS |[F,P]|

   @DF-RKS iter SAD:   -76.53172084809434   -7.65317e+01   0.00000e+00 
   @DF-RKS iter   1:   -77.19583196005500   -6.64111e-01   1.87422e-02 DIIS
   @DF-RKS iter   2:   -77.24863955977247   -5.28076e-02   1.35980e-02 DIIS
   @DF-RKS iter   3:   -77.31420821207041   -6.55687e-02   5.11377e-04 DIIS
   @DF-RKS iter   4:   -77.31429830821300   -9.00961e-05   1.61410e-05 DIIS
   @DF-RKS iter   5:   -77.31429845837474   -1.50162e-07   2.52211e-06 DIIS
   @DF-RKS iter   6:   -77.31429846083384   -2.45910e-09   3.38586e-07 DIIS
   @DF-RKS iter   7:   -77.31429846090455   -7.07132e-11   6.02784e-08 DIIS
   @DF-RKS iter   8:   -77.31429846090658   -2.03215e-12   5.31959e-09 DIIS
  Energy and wave function converged.


  ==> Post-Iterations <==

    Orbital Energies [Eh]
    ---------------------

    Doubly Occupied:                                                      

       1Ag   -10.557547     1B3u  -10.555277     2Ag    -0.847176  
       2B3u   -0.647694     3Ag    -0.564557     1B1u   -0.353116  
       1B2u   -0.353116  

    Virtual:                                                              

       4Ag     0.007780     3B3u    0.015080     1B2g    0.041541  
       1B1g    0.041541     2B2u    0.076840     2B1u    0.076840  
       5Ag     0.092310     4B3u    0.115412     6Ag     0.143276  
       2B2g    0.143780     2B1g    0.143780     5B3u    0.164833  
       6B3u    0.254039     7Ag     0.292913     7B3u    0.468540  
       8Ag     0.504419     3B1u    0.570913     3B2u    0.570913  
       3B2g    0.654628     3B1g    0.654628     9Ag     0.741126  
       8B3u    0.754142    10Ag     0.855007     9B3u    1.031052  
      10B3u    1.096631     4B2u    1.100378     4B1u    1.100378  
      11Ag     1.213145     1B3g    1.213146     4B2g    1.480701  
       4B1g    1.480701    11B3u    1.597214     1Au     1.597217  
      12Ag     1.773725     5B1u    1.858030     5B2u    1.858030  
      12B3u    2.148191     5B2g    2.488353     5B1g    2.488353  
      13Ag     2.601945    13B3u    2.650370     6B1u    2.790501  
       6B2u    2.790501    14Ag     2.996172     6B2g    3.015813  
       6B1g    3.015813    14B3u    3.350763    15Ag     3.356035  
      15B3u    3.799403    16Ag    23.629622    16B3u   25.094063  

    Final Occupation by Irrep:
             Ag   B1g   B2g   B3g    Au   B1u   B2u   B3u 
    DOCC [     3,    0,    0,    0,    0,    1,    1,    2 ]

  @DF-RKS Final Energy:   -77.31429846090658

   => Energetics <=

    Nuclear Repulsion Energy =             24.3345344881069607
    One-Electron Energy =                -151.0053976094051222
    Two-Electron Energy =                  54.8749899633469909
    DFT Exchange-Correlation Energy =      -5.5184253029554196
    Empirical Dispersion Energy =           0.0000000000000000
    VV10 Nonlocal Energy =                  0.0000000000000000
    Total Energy =                        -77.3142984609065991

Computation Completed


Properties will be evaluated at   0.000000,   0.000000,   0.000000 [a0]

Properties computed using the SCF density matrix

  Nuclear Dipole Moment: [e a0]
     X:     0.0000      Y:     0.0000      Z:     0.0000

  Electronic Dipole Moment: [e a0]
     X:     0.0000      Y:     0.0000      Z:     0.0000

  Dipole Moment: [e a0]
     X:     0.0000      Y:     0.0000      Z:     0.0000     Total:     0.0000

  Dipole Moment: [D]
     X:     0.0000      Y:     0.0000      Z:     0.0000     Total:     0.0000


*** tstop() called on atlantis at Tue Apr 19 02:06:18 2022
Module time:
	user time   =       3.14 seconds =       0.05 minutes
	system time =       0.02 seconds =       0.00 minutes
	total time  =          3 seconds =       0.05 minutes
Total time:
	user time   =      17.52 seconds =       0.29 minutes
	system time =       0.16 seconds =       0.00 minutes
	total time  =         18 seconds =       0.30 minutes

*** tstart() called on atlantis
*** at Tue Apr 19 02:06:18 2022


         ------------------------------------------------------------
                                   SCF GRAD                          
                          Rob Parrish, Justin Turney,                
                       Andy Simmonett, and Alex Sokolov              
         ------------------------------------------------------------

  ==> Geometry <==

    Molecular point group: d2h
    Full point group: D_inf_h

    Geometry (in Angstrom), charge = 0, multiplicity = 1:

       Center              X                  Y                   Z               Mass       
    ------------   -----------------  -----------------  -----------------  -----------------
         C           -0.613919910771    -0.000000000000     0.000000000000    12.000000000000
         C            0.613919910771     0.000000000000     0.000000000000    12.000000000000
         H           -1.689230000000    -0.000000000000     0.000000000000     1.007825032230
         H            1.689230000000     0.000000000000     0.000000000000     1.007825032230

  Nuclear repulsion =   24.334534488106961

  ==> Basis Set <==

  Basis Set: 6-311++G**
    Blend: 6-311++G**
    Number of shells: 30
    Number of basis function: 58
    Number of Cartesian functions: 60
    Spherical Harmonics?: true
    Max angular momentum: 2

  ==> DFJKGrad: Density-Fitted SCF Gradients <==

    Gradient:                    1
    J tasked:                  Yes
    K tasked:                  Yes
    wK tasked:                  No
    OpenMP threads:              1
    Integrals threads:           1
    Memory [MiB]:              375
    Schwarz Cutoff:          0E+00
    Fitting Condition:       1E-10

   => Auxiliary Basis Set <=

  Basis Set: (6-311++G** AUX)
    Blend: AUG-CC-PVTZ-JKFIT
    Number of shells: 88
    Number of basis function: 300
    Number of Cartesian functions: 372
    Spherical Harmonics?: true
    Max angular momentum: 4

  ==> DFT Potential <==

   => Composite Functional: M06-2X <= 

    Hybrid M06-2X Meta-GGA XC Functional

    Y. Zhao and D. G. Truhlar,  Theor. Chem. Acc., 120, 215, 2008


    Deriv               =              1
    GGA                 =           TRUE
    Meta                =           TRUE

    Exchange Hybrid     =           TRUE
    MP2 Hybrid          =          FALSE

   => Exchange Functionals <=

    1.0000   XC_HYB_MGGA_X_M06_2X

   => Exact (HF) Exchange <=

    0.5400               HF 

   => Correlation Functionals <=

    1.0000   XC_MGGA_C_M06_2X

   => Molecular Quadrature <=

    Radial Scheme          =       TREUTLER
    Pruning Scheme         =           FLAT
    Nuclear Scheme         =       TREUTLER

    BS radius alpha        =              1
    Pruning alpha          =              1
    Radial Points          =             75
    Spherical Points       =            302
    Total Points           =          90600
    Total Blocks           =            752
    Max Points             =            256
    Max Functions          =             58


  -Total Gradient:
     Atom            X                  Y                   Z
    ------   -----------------  -----------------  -----------------
       1       -0.053248596569    -0.000000000000     0.000000000000
       2        0.053248596569     0.000000000000     0.000000000000
       3       -0.007791184677    -0.000000000000     0.000000000000
       4        0.007791184677     0.000000000000     0.000000000000


*** tstop() called on atlantis at Tue Apr 19 02:06:19 2022
Module time:
	user time   =       0.69 seconds =       0.01 minutes
	system time =       0.00 seconds =       0.00 minutes
	total time  =          1 seconds =       0.02 minutes
Total time:
	user time   =      18.21 seconds =       0.30 minutes
	system time =       0.16 seconds =       0.00 minutes
	total time  =         19 seconds =       0.32 minutes

  //>>>>>>>>>>>>>>>>>>>>>>>>>>>>>>>>>>>//
  //    Loading displacement 4 of 12   //
  //<<<<<<<<<<<<<<<<<<<<<<<<<<<<<<<<<<<//
gradient() will perform analytic gradient computation.

*** tstart() called on atlantis
*** at Tue Apr 19 02:06:19 2022

   => Loading Basis Set <=

    Name: 6-311++G**
    Role: ORBITAL
    Keyword: BASIS
    atoms 1-2 entry C          line   119 file /home/akrom/software/anaconda3/envs/ffpenv/share/psi4/basis/6-311ppgss.gbs 
    atoms 3-4 entry H          line    42 file /home/akrom/software/anaconda3/envs/ffpenv/share/psi4/basis/6-311ppgss.gbs 


         ---------------------------------------------------------
                                   SCF
               by Justin Turney, Rob Parrish, Andy Simmonett
                          and Daniel G. A. Smith
                              RKS Reference
                        1 Threads,    500 MiB Core
         ---------------------------------------------------------

  ==> Geometry <==

    Molecular point group: d2h
    Full point group: D_inf_h

    Geometry (in Angstrom), charge = 0, multiplicity = 1:

       Center              X                  Y                   Z               Mass       
    ------------   -----------------  -----------------  -----------------  -----------------
         C           -0.614460000000    -0.000000000000     0.000000000000    12.000000000000
         C            0.614460000000     0.000000000000     0.000000000000    12.000000000000
         H           -1.691093646632    -0.000000000000     0.000000000000     1.007825032230
         H            1.691093646632     0.000000000000     0.000000000000     1.007825032230

  Running in d2h symmetry.

  Rotational constants: A = ************  B =      1.13705  C =      1.13705 [cm^-1]
  Rotational constants: A = ************  B =  34087.76638  C =  34087.76638 [MHz]
  Nuclear repulsion =   24.310590060340044

  Charge       = 0
  Multiplicity = 1
  Electrons    = 14
  Nalpha       = 7
  Nbeta        = 7

  ==> Algorithm <==

  SCF Algorithm Type is DF.
  DIIS enabled.
  MOM disabled.
  Fractional occupation disabled.
  Guess Type is SAD.
  Energy threshold   = 1.00e-08
  Density threshold  = 1.00e-08
  Integral threshold = 0.00e+00

  ==> Primary Basis <==

  Basis Set: 6-311++G**
    Blend: 6-311++G**
    Number of shells: 30
    Number of basis function: 58
    Number of Cartesian functions: 60
    Spherical Harmonics?: true
    Max angular momentum: 2

  ==> DFT Potential <==

   => Composite Functional: M06-2X <= 

    Hybrid M06-2X Meta-GGA XC Functional

    Y. Zhao and D. G. Truhlar,  Theor. Chem. Acc., 120, 215, 2008


    Deriv               =              1
    GGA                 =           TRUE
    Meta                =           TRUE

    Exchange Hybrid     =           TRUE
    MP2 Hybrid          =          FALSE

   => Exchange Functionals <=

    1.0000   XC_HYB_MGGA_X_M06_2X

   => Exact (HF) Exchange <=

    0.5400               HF 

   => Correlation Functionals <=

    1.0000   XC_MGGA_C_M06_2X

   => Molecular Quadrature <=

    Radial Scheme          =       TREUTLER
    Pruning Scheme         =           FLAT
    Nuclear Scheme         =       TREUTLER

    BS radius alpha        =              1
    Pruning alpha          =              1
    Radial Points          =             75
    Spherical Points       =            302
    Total Points           =          90600
    Total Blocks           =            752
    Max Points             =            256
    Max Functions          =             58

   => Loading Basis Set <=

    Name: (6-311++G** AUX)
    Role: JKFIT
    Keyword: DF_BASIS_SCF
    atoms 1-2 entry C          line   162 file /home/akrom/software/anaconda3/envs/ffpenv/share/psi4/basis/aug-cc-pvtz-jkfit.gbs 
    atoms 3-4 entry H          line    70 file /home/akrom/software/anaconda3/envs/ffpenv/share/psi4/basis/aug-cc-pvtz-jkfit.gbs 

  ==> Pre-Iterations <==

   -------------------------------------------------------
    Irrep   Nso     Nmo     Nalpha   Nbeta   Ndocc  Nsocc
   -------------------------------------------------------
     Ag        16      16       0       0       0       0
     B1g        6       6       0       0       0       0
     B2g        6       6       0       0       0       0
     B3g        1       1       0       0       0       0
     Au         1       1       0       0       0       0
     B1u        6       6       0       0       0       0
     B2u        6       6       0       0       0       0
     B3u       16      16       0       0       0       0
   -------------------------------------------------------
    Total      58      58       7       7       7       0
   -------------------------------------------------------

  ==> Integral Setup <==

  DFHelper Memory: AOs need 0.009 GiB; user supplied 0.019 GiB. Using in-core AOs.

  ==> MemDFJK: Density-Fitted J/K Matrices <==

    J tasked:                   Yes
    K tasked:                   Yes
    wK tasked:                   No
    OpenMP threads:               1
    Memory [MiB]:                19
    Algorithm:                 Core
    Schwarz Cutoff:           1E-12
    Mask sparsity (%):       0.0000
    Fitting Condition:        1E-10

   => Auxiliary Basis Set <=

  Basis Set: (6-311++G** AUX)
    Blend: AUG-CC-PVTZ-JKFIT
    Number of shells: 88
    Number of basis function: 300
    Number of Cartesian functions: 372
    Spherical Harmonics?: true
    Max angular momentum: 4

  Cached 100.0% of DFT collocation blocks in 0.347 [GiB].

  Minimum eigenvalue in the overlap matrix is 1.6241380280E-05.
  Using Symmetric Orthogonalization.

  SCF Guess: Superposition of Atomic Densities via on-the-fly atomic UHF.

  ==> Iterations <==

                           Total Energy        Delta E     RMS |[F,P]|

   @DF-RKS iter SAD:   -76.53029471732839   -7.65303e+01   0.00000e+00 
   @DF-RKS iter   1:   -77.19599441708360   -6.65700e-01   1.87059e-02 DIIS
   @DF-RKS iter   2:   -77.24856530199550   -5.25709e-02   1.35828e-02 DIIS
   @DF-RKS iter   3:   -77.31404060003989   -6.54753e-02   5.09292e-04 DIIS
   @DF-RKS iter   4:   -77.31413005271773   -8.94527e-05   1.60911e-05 DIIS
   @DF-RKS iter   5:   -77.31413020173699   -1.49019e-07   2.49821e-06 DIIS
   @DF-RKS iter   6:   -77.31413020417281   -2.43583e-09   3.32980e-07 DIIS
   @DF-RKS iter   7:   -77.31413020424169   -6.88800e-11   6.01554e-08 DIIS
   @DF-RKS iter   8:   -77.31413020424394   -2.24532e-12   5.31107e-09 DIIS
  Energy and wave function converged.


  ==> Post-Iterations <==

    Orbital Energies [Eh]
    ---------------------

    Doubly Occupied:                                                      

       1Ag   -10.557946     1B3u  -10.555693     2Ag    -0.846867  
       2B3u   -0.647407     3Ag    -0.564189     1B1u   -0.352918  
       1B2u   -0.352918  

    Virtual:                                                              

       4Ag     0.007778     3B3u    0.015014     1B2g    0.041369  
       1B1g    0.041369     2B2u    0.076866     2B1u    0.076866  
       5Ag     0.092246     4B3u    0.115181     6Ag     0.143284  
       2B2g    0.143627     2B1g    0.143627     5B3u    0.164797  
       6B3u    0.253509     7Ag     0.292520     7B3u    0.468374  
       8Ag     0.504220     3B1u    0.571021     3B2u    0.571021  
       3B2g    0.654403     3B1g    0.654403     9Ag     0.740987  
       8B3u    0.753986    10Ag     0.854229     9B3u    1.029047  
      10B3u    1.096231     4B1u    1.099949     4B2u    1.099949  
      11Ag     1.213313     1B3g    1.213314     4B2g    1.479815  
       4B1g    1.479815    11B3u    1.596736     1Au     1.596739  
      12Ag     1.773522     5B2u    1.856278     5B1u    1.856278  
      12B3u    2.146084     5B1g    2.486265     5B2g    2.486265  
      13Ag     2.601621    13B3u    2.650212     6B1u    2.790158  
       6B2u    2.790158    14Ag     2.993291     6B1g    3.014925  
       6B2g    3.014925    14B3u    3.348205    15Ag     3.354585  
      15B3u    3.797301    16Ag    23.626831    16B3u   25.087454  

    Final Occupation by Irrep:
             Ag   B1g   B2g   B3g    Au   B1u   B2u   B3u 
    DOCC [     3,    0,    0,    0,    0,    1,    1,    2 ]

  @DF-RKS Final Energy:   -77.31413020424394

   => Energetics <=

    Nuclear Repulsion Energy =             24.3105900603400436
    One-Electron Energy =                -150.9590091714086952
    Two-Electron Energy =                  54.8518309319097739
    DFT Exchange-Correlation Energy =      -5.5175420250850689
    Empirical Dispersion Energy =           0.0000000000000000
    VV10 Nonlocal Energy =                  0.0000000000000000
    Total Energy =                        -77.3141302042439378

Computation Completed


Properties will be evaluated at   0.000000,   0.000000,   0.000000 [a0]

Properties computed using the SCF density matrix

  Nuclear Dipole Moment: [e a0]
     X:     0.0000      Y:     0.0000      Z:     0.0000

  Electronic Dipole Moment: [e a0]
     X:     0.0000      Y:     0.0000      Z:     0.0000

  Dipole Moment: [e a0]
     X:     0.0000      Y:     0.0000      Z:     0.0000     Total:     0.0000

  Dipole Moment: [D]
     X:     0.0000      Y:     0.0000      Z:     0.0000     Total:     0.0000


*** tstop() called on atlantis at Tue Apr 19 02:06:22 2022
Module time:
	user time   =       3.14 seconds =       0.05 minutes
	system time =       0.02 seconds =       0.00 minutes
	total time  =          3 seconds =       0.05 minutes
Total time:
	user time   =      21.35 seconds =       0.36 minutes
	system time =       0.18 seconds =       0.00 minutes
	total time  =         22 seconds =       0.37 minutes

*** tstart() called on atlantis
*** at Tue Apr 19 02:06:22 2022


         ------------------------------------------------------------
                                   SCF GRAD                          
                          Rob Parrish, Justin Turney,                
                       Andy Simmonett, and Alex Sokolov              
         ------------------------------------------------------------

  ==> Geometry <==

    Molecular point group: d2h
    Full point group: D_inf_h

    Geometry (in Angstrom), charge = 0, multiplicity = 1:

       Center              X                  Y                   Z               Mass       
    ------------   -----------------  -----------------  -----------------  -----------------
         C           -0.614460000000    -0.000000000000     0.000000000000    12.000000000000
         C            0.614460000000     0.000000000000     0.000000000000    12.000000000000
         H           -1.691093646632    -0.000000000000     0.000000000000     1.007825032230
         H            1.691093646632     0.000000000000     0.000000000000     1.007825032230

  Nuclear repulsion =   24.310590060340044

  ==> Basis Set <==

  Basis Set: 6-311++G**
    Blend: 6-311++G**
    Number of shells: 30
    Number of basis function: 58
    Number of Cartesian functions: 60
    Spherical Harmonics?: true
    Max angular momentum: 2

  ==> DFJKGrad: Density-Fitted SCF Gradients <==

    Gradient:                    1
    J tasked:                  Yes
    K tasked:                  Yes
    wK tasked:                  No
    OpenMP threads:              1
    Integrals threads:           1
    Memory [MiB]:              375
    Schwarz Cutoff:          0E+00
    Fitting Condition:       1E-10

   => Auxiliary Basis Set <=

  Basis Set: (6-311++G** AUX)
    Blend: AUG-CC-PVTZ-JKFIT
    Number of shells: 88
    Number of basis function: 300
    Number of Cartesian functions: 372
    Spherical Harmonics?: true
    Max angular momentum: 4

  ==> DFT Potential <==

   => Composite Functional: M06-2X <= 

    Hybrid M06-2X Meta-GGA XC Functional

    Y. Zhao and D. G. Truhlar,  Theor. Chem. Acc., 120, 215, 2008


    Deriv               =              1
    GGA                 =           TRUE
    Meta                =           TRUE

    Exchange Hybrid     =           TRUE
    MP2 Hybrid          =          FALSE

   => Exchange Functionals <=

    1.0000   XC_HYB_MGGA_X_M06_2X

   => Exact (HF) Exchange <=

    0.5400               HF 

   => Correlation Functionals <=

    1.0000   XC_MGGA_C_M06_2X

   => Molecular Quadrature <=

    Radial Scheme          =       TREUTLER
    Pruning Scheme         =           FLAT
    Nuclear Scheme         =       TREUTLER

    BS radius alpha        =              1
    Pruning alpha          =              1
    Radial Points          =             75
    Spherical Points       =            302
    Total Points           =          90600
    Total Blocks           =            752
    Max Points             =            256
    Max Functions          =             58


  -Total Gradient:
     Atom            X                  Y                   Z
    ------   -----------------  -----------------  -----------------
       1       -0.054213984106    -0.000000000000     0.000000000000
       2        0.054213984106     0.000000000000     0.000000000000
       3       -0.008748133383    -0.000000000000     0.000000000000
[...]
    atoms 3-4 entry H          line    70 file /home/akrom/software/anaconda3/envs/ffpenv/share/psi4/basis/aug-cc-pvtz-jkfit.gbs 

  ==> Pre-Iterations <==

   -------------------------------------------------------
    Irrep   Nso     Nmo     Nalpha   Nbeta   Ndocc  Nsocc
   -------------------------------------------------------
     A1        32      32       0       0       0       0
     A2         2       2       0       0       0       0
     B1        12      12       0       0       0       0
     B2        12      12       0       0       0       0
   -------------------------------------------------------
    Total      58      58       7       7       7       0
   -------------------------------------------------------

  ==> Integral Setup <==

  DFHelper Memory: AOs need 0.009 GiB; user supplied 0.019 GiB. Using in-core AOs.

  ==> MemDFJK: Density-Fitted J/K Matrices <==

    J tasked:                   Yes
    K tasked:                   Yes
    wK tasked:                   No
    OpenMP threads:               1
    Memory [MiB]:                19
    Algorithm:                 Core
    Schwarz Cutoff:           1E-12
    Mask sparsity (%):       0.0000
    Fitting Condition:        1E-10

   => Auxiliary Basis Set <=

  Basis Set: (6-311++G** AUX)
    Blend: AUG-CC-PVTZ-JKFIT
    Number of shells: 88
    Number of basis function: 300
    Number of Cartesian functions: 372
    Spherical Harmonics?: true
    Max angular momentum: 4

  Cached 100.0% of DFT collocation blocks in 0.347 [GiB].

  Minimum eigenvalue in the overlap matrix is 1.6293639852E-05.
  Using Symmetric Orthogonalization.

  SCF Guess: Superposition of Atomic Densities via on-the-fly atomic UHF.

  ==> Iterations <==

                           Total Energy        Delta E     RMS |[F,P]|

   @DF-RKS iter SAD:   -76.53090159978669   -7.65309e+01   0.00000e+00 
   @DF-RKS iter   1:   -77.19614056655514   -6.65239e-01   1.32261e-02 DIIS
   @DF-RKS iter   2:   -77.24885602415046   -5.27155e-02   9.59053e-03 DIIS
   @DF-RKS iter   3:   -77.31409112301725   -6.52351e-02   3.62599e-04 DIIS
   @DF-RKS iter   4:   -77.31417730217855   -8.61792e-05   8.29689e-05 DIIS
   @DF-RKS iter   5:   -77.31417974751938   -2.44534e-06   5.64855e-05 DIIS
   @DF-RKS iter   6:   -77.31418182411082   -2.07659e-06   1.20940e-06 DIIS
   @DF-RKS iter   7:   -77.31418182527550   -1.16468e-09   1.54854e-07 DIIS
   @DF-RKS iter   8:   -77.31418182530541   -2.99138e-11   2.79609e-08 DIIS
   @DF-RKS iter   9:   -77.31418182530624   -8.24230e-13   2.44081e-09 DIIS
  Energy and wave function converged.


  ==> Post-Iterations <==

    Orbital Energies [Eh]
    ---------------------

    Doubly Occupied:                                                      

       1A1   -10.557829     2A1   -10.555549     3A1    -0.846979  
       4A1    -0.648021     5A1    -0.564678     1B1    -0.352956  
       1B2    -0.352956  

    Virtual:                                                              

       6A1     0.007769     7A1     0.015076     2B2     0.041349  
       2B1     0.041349     3B2     0.076859     3B1     0.076859  
       8A1     0.092339     9A1     0.115406    10A1     0.143257  
       4B2     0.143596     4B1     0.143596    11A1     0.164808  
      12A1     0.253978    13A1     0.293042    14A1     0.468251  
      15A1     0.504517     5B2     0.571016     5B1     0.571016  
       6B2     0.654428     6B1     0.654428    16A1     0.741043  
      17A1     0.754185    18A1     0.855172    19A1     1.030292  
      20A1     1.096134     7B2     1.100043     7B1     1.100043  
      21A1     1.213276     1A2     1.213276     8B2     1.480541  
       8B1     1.480541    22A1     1.596690     2A2     1.596693  
      23A1     1.773680     9B1     1.857897     9B2     1.857897  
      24A1     2.147293    10B2     2.487976    10B1     2.487976  
      25A1     2.601709    26A1     2.651013    11B1     2.790334  
      11B2     2.790334    27A1     2.997150    12B1     3.015307  
      12B2     3.015307    28A1     3.351435    29A1     3.354844  
      30A1     3.798930    31A1    23.629725    32A1    25.090635  

    Final Occupation by Irrep:
             A1    A2    B1    B2 
    DOCC [     5,    0,    1,    1 ]

  @DF-RKS Final Energy:   -77.31418182530624

   => Energetics <=

    Nuclear Repulsion Energy =             24.3232393838559098
    One-Electron Energy =                -150.9818503721416221
    Two-Electron Energy =                  54.8625800643818451
    DFT Exchange-Correlation Energy =      -5.5181509014023673
    Empirical Dispersion Energy =           0.0000000000000000
    VV10 Nonlocal Energy =                  0.0000000000000000
    Total Energy =                        -77.3141818253062354

Computation Completed


Properties will be evaluated at   0.000000,   0.000000,   0.000000 [a0]

Properties computed using the SCF density matrix

  Nuclear Dipole Moment: [e a0]
     X:     0.0034      Y:     0.0000      Z:     0.0000

  Electronic Dipole Moment: [e a0]
     X:    -0.0017      Y:     0.0000      Z:     0.0000

  Dipole Moment: [e a0]
     X:     0.0017      Y:     0.0000      Z:     0.0000     Total:     0.0017

  Dipole Moment: [D]
     X:     0.0043      Y:     0.0000      Z:     0.0000     Total:     0.0043


*** tstop() called on atlantis at Tue Apr 19 02:06:53 2022
Module time:
	user time   =       3.39 seconds =       0.06 minutes
	system time =       0.04 seconds =       0.00 minutes
	total time  =          4 seconds =       0.07 minutes
Total time:
	user time   =      51.86 seconds =       0.86 minutes
	system time =       0.32 seconds =       0.01 minutes
	total time  =         53 seconds =       0.88 minutes

*** tstart() called on atlantis
*** at Tue Apr 19 02:06:53 2022


         ------------------------------------------------------------
                                   SCF GRAD                          
                          Rob Parrish, Justin Turney,                
                       Andy Simmonett, and Alex Sokolov              
         ------------------------------------------------------------

  ==> Geometry <==

    Molecular point group: c2v
    Full point group: C_inf_v

    Geometry (in Angstrom), charge = 0, multiplicity = 1:

       Center              X                  Y                   Z               Mass       
    ------------   -----------------  -----------------  -----------------  -----------------
         C           -0.614610333491     0.000000000000     0.000000000000    12.000000000000
         C            0.614309666509     0.000000000000     0.000000000000    12.000000000000
         H           -1.687440004874     0.000000000000     0.000000000000     1.007825032230
         H            1.691019995126     0.000000000000     0.000000000000     1.007825032230

  Nuclear repulsion =   24.323239383855910

  ==> Basis Set <==

  Basis Set: 6-311++G**
    Blend: 6-311++G**
    Number of shells: 30
    Number of basis function: 58
    Number of Cartesian functions: 60
    Spherical Harmonics?: true
    Max angular momentum: 2

  ==> DFJKGrad: Density-Fitted SCF Gradients <==

    Gradient:                    1
    J tasked:                  Yes
    K tasked:                  Yes
    wK tasked:                  No
    OpenMP threads:              1
    Integrals threads:           1
    Memory [MiB]:              375
    Schwarz Cutoff:          0E+00
    Fitting Condition:       1E-10

   => Auxiliary Basis Set <=

  Basis Set: (6-311++G** AUX)
    Blend: AUG-CC-PVTZ-JKFIT
    Number of shells: 88
    Number of basis function: 300
    Number of Cartesian functions: 372
    Spherical Harmonics?: true
    Max angular momentum: 4

  ==> DFT Potential <==

   => Composite Functional: M06-2X <= 

    Hybrid M06-2X Meta-GGA XC Functional

    Y. Zhao and D. G. Truhlar,  Theor. Chem. Acc., 120, 215, 2008


    Deriv               =              1
    GGA                 =           TRUE
    Meta                =           TRUE

    Exchange Hybrid     =           TRUE
    MP2 Hybrid          =          FALSE

   => Exchange Functionals <=

    1.0000   XC_HYB_MGGA_X_M06_2X

   => Exact (HF) Exchange <=

    0.5400               HF 

   => Correlation Functionals <=

    1.0000   XC_MGGA_C_M06_2X

   => Molecular Quadrature <=

    Radial Scheme          =       TREUTLER
    Pruning Scheme         =           FLAT
    Nuclear Scheme         =       TREUTLER

    BS radius alpha        =              1
    Pruning alpha          =              1
    Radial Points          =             75
    Spherical Points       =            302
    Total Points           =          90600
    Total Blocks           =            752
    Max Points             =            256
    Max Functions          =             58


  -Total Gradient:
     Atom            X                  Y                   Z
    ------   -----------------  -----------------  -----------------
       1       -0.057095520079     0.000000000000     0.000000000000
       2        0.054217506125     0.000000000000     0.000000000000
       3       -0.005929785460     0.000000000000     0.000000000000
       4        0.008803560542     0.000000000000     0.000000000000


*** tstop() called on atlantis at Tue Apr 19 02:06:53 2022
Module time:
	user time   =       0.69 seconds =       0.01 minutes
	system time =       0.00 seconds =       0.00 minutes
	total time  =          0 seconds =       0.00 minutes
Total time:
	user time   =      52.55 seconds =       0.88 minutes
	system time =       0.32 seconds =       0.01 minutes
	total time  =         53 seconds =       0.88 minutes

         ----------------------------------------------------------
                                   FINDIF
                     R. A. King and Jonathon Misiewicz
         ---------------------------------------------------------

  Computing second-derivative from gradients using projected, 
  symmetry-adapted, cartesian coordinates.

  12 gradients passed in, including the reference geometry.
  Generating complete list of displacements from unique ones.

    Operation 3 takes plus displacements of irrep B1g to minus ones.
    Operation 2 takes plus displacements of irrep B2g to minus ones.
    Operation 3 takes plus displacements of irrep B1u to minus ones.
    Operation 2 takes plus displacements of irrep B2u to minus ones.
    Operation 2 takes plus displacements of irrep B3u to minus ones.

-------------------------------------------------------------


  ==> Harmonic Vibrational Analysis <==

  non-mass-weighted Hessian:       Symmetric? True   Hermitian? True   Lin Dep Dim?  3 (0)
  projection of translations (True) and rotations (False) removed 3 degrees of freedom (5)
  total projector:                 Symmetric? True   Hermitian? True   Lin Dep Dim?  3 (3)
  mass-weighted Hessian:           Symmetric? True   Hermitian? True   Lin Dep Dim?  3 (0)
  pre-proj  low-frequency mode:    0.0000i [cm^-1]
  pre-proj  low-frequency mode:    0.0000i [cm^-1]
  pre-proj  low-frequency mode:    0.0000i [cm^-1]
  pre-proj  low-frequency mode:  294.8916  [cm^-1]
  pre-proj  low-frequency mode:  294.8926  [cm^-1]
  pre-proj  all modes:['0.0000i' '0.0000i' '0.0000i' '294.8916' '294.8926' '734.5916' '734.5920'
 '833.4063' '833.4064' '1922.7668' '3337.5098' '3427.6826']
  projected mass-weighted Hessian: Symmetric? True   Hermitian? True   Lin Dep Dim?  3 (3)
  post-proj low-frequency mode:    0.0000i [cm^-1] (TR)
  post-proj low-frequency mode:    0.0000i [cm^-1] (TR)
  post-proj low-frequency mode:    0.0000  [cm^-1] (TR)
  post-proj low-frequency mode:  294.8916  [cm^-1] (V)
  post-proj low-frequency mode:  294.8926  [cm^-1] (V)
  post-proj  all modes:['0.0000i' '0.0000i' '0.0000' '294.8916' '294.8926' '734.5916' '734.5920'
 '833.4063' '833.4064' '1922.7668' '3337.5098' '3427.6826']

  Note that "Vibration"s include 2 un-projected rotation-like modes.
  Vibration                       4                   5                   6           
  Freq [cm^-1]                 294.8916            294.8926            734.5916       
  Irrep                          B2g                 B1g                 B2g          
  Reduced mass [u]              2.0805              2.0805              1.6809        
  Force const [mDyne/A]         0.1066              0.1066              0.5344        
  Turning point v=0 [a0]        0.4430              0.4430              0.3123        
  RMS dev v=0 [a0 u^1/2]        0.4518              0.4518              0.2863        
  Char temp [K]                424.2834            424.2847           1056.9138       
  ----------------------------------------------------------------------------------
      1   C                0.00  0.00  0.22    0.00  0.22 -0.00   -0.00 -0.00 -0.17   
      2   C                0.00 -0.00 -0.22    0.00 -0.22  0.00   -0.00  0.00  0.17   
      3   H                0.00  0.00  0.67    0.00  0.67 -0.00   -0.00  0.00  0.69   
      4   H                0.00 -0.00 -0.67    0.00 -0.67  0.00    0.00 -0.00 -0.69   

  Vibration                       7                   8                   9           
  Freq [cm^-1]                 734.5920            833.4063            833.4064       
  Irrep                          B1g                 B1u                 B2u          
  Reduced mass [u]              1.6809              1.0848              1.0848        
  Force const [mDyne/A]         0.5344              0.4439              0.4439        
  Turning point v=0 [a0]        0.3123              0.3649              0.3649        
  RMS dev v=0 [a0 u^1/2]        0.2863              0.2688              0.2688        
  Char temp [K]               1056.9144           1199.0861           1199.0863       
  ----------------------------------------------------------------------------------
      1   C               -0.00 -0.17  0.00   -0.00  0.00 -0.06   -0.00 -0.06 -0.00   
      2   C               -0.00  0.17 -0.00    0.00  0.00 -0.06   -0.00 -0.06 -0.00   
      3   H               -0.00  0.69 -0.00   -0.00 -0.00  0.70    0.00  0.70  0.00   
      4   H               -0.00 -0.69  0.00    0.00 -0.00  0.70   -0.00  0.70  0.00   

  Vibration                       10                  11                  12          
  Freq [cm^-1]                1922.7668           3337.5098           3427.6826       
  Irrep                           Ag                 B3u                  Ag          
  Reduced mass [u]              4.0146              1.0848              1.2100        
  Force const [mDyne/A]         8.7448              7.1195              8.3757        
  Turning point v=0 [a0]        0.1249              0.1824              0.1704        
  RMS dev v=0 [a0 u^1/2]        0.1769              0.1343              0.1325        
  Char temp [K]               2766.4333           4801.9336           4931.6722       
  ----------------------------------------------------------------------------------
      1   C                0.37  0.00 -0.00   -0.06 -0.00 -0.00   -0.10  0.00  0.00   
      2   C               -0.37 -0.00  0.00   -0.06 -0.00  0.00    0.10 -0.00 -0.00   
      3   H                0.60 -0.00  0.00    0.70 -0.00  0.00    0.70 -0.00 -0.00   
      4   H               -0.60  0.00 -0.00    0.70  0.00 -0.00   -0.70  0.00  0.00   

  ==> Thermochemistry Components <==

  Entropy, S
    Electronic S            0.000 [cal/(mol K)]        0.000 [J/(mol K)]       0.00000000 [mEh/K] (multiplicity = 1)
    Translational S        35.704 [cal/(mol K)]      149.387 [J/(mol K)]       0.05689862 [mEh/K] (mol. weight = 26.0157 [u], P = 101325.00 [Pa])
    Rotational S           10.952 [cal/(mol K)]       45.824 [J/(mol K)]       0.01745345 [mEh/K] (symmetry no. = 2)
    Vibrational S           3.792 [cal/(mol K)]       15.867 [J/(mol K)]       0.00604328 [mEh/K]
  Total S                  50.449 [cal/(mol K)]      211.078 [J/(mol K)]       0.08039535 [mEh/K]
  Correction S              0.000 [cal/(mol K)]        0.000 [J/(mol K)]       0.00000000 [mEh/K]

  Constant volume heat capacity, Cv
    Electronic Cv           0.000 [cal/(mol K)]        0.000 [J/(mol K)]       0.00000000 [mEh/K]
    Translational Cv        2.981 [cal/(mol K)]       12.472 [J/(mol K)]       0.00475022 [mEh/K]
    Rotational Cv           1.987 [cal/(mol K)]        8.314 [J/(mol K)]       0.00316681 [mEh/K]
    Vibrational Cv          6.106 [cal/(mol K)]       25.548 [J/(mol K)]       0.00973059 [mEh/K]
  Total Cv                 11.074 [cal/(mol K)]       46.334 [J/(mol K)]       0.01764762 [mEh/K]
  Correction Cv             0.000 [cal/(mol K)]        0.000 [J/(mol K)]       0.00000000 [mEh/K]

  Constant pressure heat capacity, Cp
    Electronic Cp           0.000 [cal/(mol K)]        0.000 [J/(mol K)]       0.00000000 [mEh/K]
    Translational Cp        4.968 [cal/(mol K)]       20.786 [J/(mol K)]       0.00791703 [mEh/K]
    Rotational Cp           1.987 [cal/(mol K)]        8.314 [J/(mol K)]       0.00316681 [mEh/K]
    Vibrational Cp          6.106 [cal/(mol K)]       25.548 [J/(mol K)]       0.00973059 [mEh/K]
  Total Cp                 13.061 [cal/(mol K)]       54.648 [J/(mol K)]       0.02081443 [mEh/K]
  Correction Cp             0.000 [cal/(mol K)]        0.000 [J/(mol K)]       0.00000000 [mEh/K]

  ==> Thermochemistry Energy Analysis <==

  Raw electronic energy, E0
  Total E0, Electronic energy at well bottom at 0 [K]                  -77.31418710 [Eh]

  Zero-point energy, ZPE_vib = Sum_i nu_i / 2
    Electronic ZPE          0.000 [kcal/mol]        0.000 [kJ/mol]       0.00000000 [Eh]
    Translational ZPE       0.000 [kcal/mol]        0.000 [kJ/mol]       0.00000000 [Eh]
    Rotational ZPE          0.000 [kcal/mol]        0.000 [kJ/mol]       0.00000000 [Eh]
    Vibrational ZPE        17.746 [kcal/mol]       74.251 [kJ/mol]       0.02828058 [Eh]        6206.870 [cm^-1]
  Correction ZPE           17.746 [kcal/mol]       74.251 [kJ/mol]       0.02828058 [Eh]        6206.870 [cm^-1]
  Total ZPE, Electronic energy at 0 [K]                                -77.28590652 [Eh]

  Thermal Energy, E (includes ZPE)
    Electronic E            0.000 [kcal/mol]        0.000 [kJ/mol]       0.00000000 [Eh]
    Translational E         0.889 [kcal/mol]        3.718 [kJ/mol]       0.00141628 [Eh]
    Rotational E            0.592 [kcal/mol]        2.479 [kJ/mol]       0.00094418 [Eh]
    Vibrational E          18.494 [kcal/mol]       77.379 [kJ/mol]       0.02947216 [Eh]
  Correction E             19.975 [kcal/mol]       83.577 [kJ/mol]       0.03183262 [Eh]
  Total E, Electronic energy at  298.15 [K]                            -77.28235448 [Eh]

  Enthalpy, H_trans = E_trans + k_B * T
    Electronic H            0.000 [kcal/mol]        0.000 [kJ/mol]       0.00000000 [Eh]
    Translational H         1.481 [kcal/mol]        6.197 [kJ/mol]       0.00236046 [Eh]
    Rotational H            0.592 [kcal/mol]        2.479 [kJ/mol]       0.00094418 [Eh]
    Vibrational H          18.494 [kcal/mol]       77.379 [kJ/mol]       0.02947216 [Eh]
  Correction H             20.568 [kcal/mol]       86.055 [kJ/mol]       0.03277680 [Eh]
  Total H, Enthalpy at  298.15 [K]                                     -77.28141030 [Eh]

  Gibbs free energy, G = H - T * S
    Electronic G            0.000 [kcal/mol]        0.000 [kJ/mol]       0.00000000 [Eh]
    Translational G        -9.164 [kcal/mol]      -38.342 [kJ/mol]      -0.01460386 [Eh]
    Rotational G           -2.673 [kcal/mol]      -11.183 [kJ/mol]      -0.00425956 [Eh]
    Vibrational G          17.363 [kcal/mol]       72.649 [kJ/mol]       0.02767035 [Eh]
  Correction G              5.526 [kcal/mol]       23.123 [kJ/mol]       0.00880693 [Eh]
  Total G, Free enthalpy at  298.15 [K]                                -77.30538017 [Eh]

    Psi4 stopped on: Tuesday, 19 April 2022 02:06AM
    Psi4 wall time for execution: 0:00:53.24

*** Psi4 exiting successfully. Buy a developer a beer!
