
    -----------------------------------------------------------------------
          Psi4: An Open-Source Ab Initio Electronic Structure Package
                               Psi4 1.3.2 release

                         Git: Rev {HEAD} ecbda83 


    R. M. Parrish, L. A. Burns, D. G. A. Smith, A. C. Simmonett,
    A. E. DePrince III, E. G. Hohenstein, U. Bozkaya, A. Yu. Sokolov,
    R. Di Remigio, R. M. Richard, J. F. Gonthier, A. M. James,
    H. R. McAlexander, A. Kumar, M. Saitow, X. Wang, B. P. Pritchard,
    P. Verma, H. F. Schaefer III, K. Patkowski, R. A. King, E. F. Valeev,
    F. A. Evangelista, J. M. Turney, T. D. Crawford, and C. D. Sherrill,
    J. Chem. Theory Comput. 13(7) pp 3185--3197 (2017).
    (doi: 10.1021/acs.jctc.7b00174)


                         Additional Contributions by
    P. Kraus, H. Kruse, M. H. Lechner, M. C. Schieber, R. A. Shaw,
    A. Alenaizan, R. Galvelis, Z. L. Glick, S. Lehtola, and J. P. Misiewicz

    -----------------------------------------------------------------------


    Psi4 started on: Wednesday, 20 April 2022 02:34AM

    Process ID: 12983
    Host:       atlantis
    PSIDATADIR: /home/akrom/software/anaconda3/envs/ffpenv/share/psi4
    Memory:     500.0 MiB
    Threads:    1
    
  ==> Input File <==

--------------------------------------------------------------------------
set basis  6-31++G**
molecule {
0 1
   C       -1.22151       -0.69325        0.00000
   C       -1.21114        0.71122        0.00000
   C       -0.01037       -1.40452        0.00000
   C        0.01037        1.40452        0.00000
   C        1.21114       -0.71122        0.00000
   C        1.22151        0.69325        0.00000
   H       -2.17311       -1.23332        0.00000
   H       -2.15464        1.26533        0.00000
   H       -0.01848       -2.49865        0.00000
   H        0.01848        2.49865        0.00000
   H        2.15464       -1.26533        0.00000
   H        2.17311        1.23332        0.00000
}
energy('m06-2x')
frequencies('m06-2x')
--------------------------------------------------------------------------

*** tstart() called on atlantis
*** at Wed Apr 20 02:34:11 2022

   => Loading Basis Set <=

    Name: 6-31++G**
    Role: ORBITAL
    Keyword: BASIS
    atoms 1-6  entry C          line   115 file /home/akrom/software/anaconda3/envs/ffpenv/share/psi4/basis/6-31ppgss.gbs 
    atoms 7-12 entry H          line    46 file /home/akrom/software/anaconda3/envs/ffpenv/share/psi4/basis/6-31ppgss.gbs 


         ---------------------------------------------------------
                                   SCF
               by Justin Turney, Rob Parrish, Andy Simmonett
                          and Daniel G. A. Smith
                              RKS Reference
                        1 Threads,    500 MiB Core
         ---------------------------------------------------------

  ==> Geometry <==

    Molecular point group: c2h
    Full point group: C2h

    Geometry (in Angstrom), charge = 0, multiplicity = 1:

       Center              X                  Y                   Z               Mass       
    ------------   -----------------  -----------------  -----------------  -----------------
         C           -1.221510000000    -0.693250000000     0.000000000000    12.000000000000
         C           -1.211140000000     0.711220000000     0.000000000000    12.000000000000
         C           -0.010370000000    -1.404520000000     0.000000000000    12.000000000000
         C            0.010370000000     1.404520000000     0.000000000000    12.000000000000
         C            1.211140000000    -0.711220000000     0.000000000000    12.000000000000
         C            1.221510000000     0.693250000000     0.000000000000    12.000000000000
         H           -2.173110000000    -1.233320000000     0.000000000000     1.007825032230
         H           -2.154640000000     1.265330000000     0.000000000000     1.007825032230
         H           -0.018480000000    -2.498650000000     0.000000000000     1.007825032230
         H            0.018480000000     2.498650000000     0.000000000000     1.007825032230
         H            2.154640000000    -1.265330000000     0.000000000000     1.007825032230
         H            2.173110000000     1.233320000000     0.000000000000     1.007825032230

  Running in c2h symmetry.

  Rotational constants: A =      0.18753  B =      0.18752  C =      0.09376 [cm^-1]
  Rotational constants: A =   5621.92707  B =   5621.82252  C =   2810.93740 [MHz]
  Nuclear repulsion =  202.013308935380167

  Charge       = 0
  Multiplicity = 1
  Electrons    = 42
  Nalpha       = 21
  Nbeta        = 21

  ==> Algorithm <==

  SCF Algorithm Type is DF.
  DIIS enabled.
  MOM disabled.
  Fractional occupation disabled.
  Guess Type is SAD.
  Energy threshold   = 1.00e-06
  Density threshold  = 1.00e-06
  Integral threshold = 0.00e+00

  ==> Primary Basis <==

  Basis Set: 6-31++G**
    Blend: 6-31++G**
    Number of shells: 72
    Number of basis function: 150
    Number of Cartesian functions: 150
    Spherical Harmonics?: false
    Max angular momentum: 2

  ==> DFT Potential <==

   => Composite Functional: M06-2X <= 

    Hybrid M06-2X Meta-GGA XC Functional

    Y. Zhao and D. G. Truhlar,  Theor. Chem. Acc., 120, 215, 2008


    Deriv               =              1
    GGA                 =           TRUE
    Meta                =           TRUE

    Exchange Hybrid     =           TRUE
    MP2 Hybrid          =          FALSE

   => Exchange Functionals <=

    1.0000   XC_HYB_MGGA_X_M06_2X

   => Exact (HF) Exchange <=

    0.5400               HF 

   => Correlation Functionals <=

    1.0000   XC_MGGA_C_M06_2X

   => Molecular Quadrature <=

    Radial Scheme          =       TREUTLER
    Pruning Scheme         =           FLAT
    Nuclear Scheme         =       TREUTLER

    BS radius alpha        =              1
    Pruning alpha          =              1
    Radial Points          =             75
    Spherical Points       =            302
    Total Points           =         271800
    Total Blocks           =           2142
    Max Points             =            256
    Max Functions          =            150

   => Loading Basis Set <=

    Name: (6-31++G** AUX)
    Role: JKFIT
    Keyword: DF_BASIS_SCF
    atoms 1-6  entry C          line   154 file /home/akrom/software/anaconda3/envs/ffpenv/share/psi4/basis/aug-cc-pvdz-jkfit.gbs 
    atoms 7-12 entry H          line    70 file /home/akrom/software/anaconda3/envs/ffpenv/share/psi4/basis/aug-cc-pvdz-jkfit.gbs 

  ==> Pre-Iterations <==

   -------------------------------------------------------
    Irrep   Nso     Nmo     Nalpha   Nbeta   Ndocc  Nsocc
   -------------------------------------------------------
     Ag        57      57       0       0       0       0
     Bg        18      18       0       0       0       0
     Au        18      18       0       0       0       0
     Bu        57      57       0       0       0       0
   -------------------------------------------------------
    Total     150     150      21      21      21       0
   -------------------------------------------------------

  ==> Integral Setup <==

  DFHelper Memory: AOs need 0.145 GiB; user supplied 0.145 GiB. Using in-core AOs.

  ==> MemDFJK: Density-Fitted J/K Matrices <==

    J tasked:                   Yes
    K tasked:                   Yes
    wK tasked:                   No
    OpenMP threads:               1
    Memory [MiB]:               148
    Algorithm:                 Core
    Schwarz Cutoff:           1E-12
    Mask sparsity (%):       1.5200
    Fitting Condition:        1E-10

   => Auxiliary Basis Set <=

  Basis Set: (6-31++G** AUX)
    Blend: AUG-CC-PVDZ-JKFIT
    Number of shells: 240
    Number of basis function: 816
    Number of Cartesian functions: 816
    Spherical Harmonics?: false
    Max angular momentum: 3

  Cached 10.0% of DFT collocation blocks in 0.238 [GiB].

  Minimum eigenvalue in the overlap matrix is 1.5878528850E-06.
  Using Symmetric Orthogonalization.

  SCF Guess: Superposition of Atomic Densities via on-the-fly atomic UHF.

  ==> Iterations <==

                           Total Energy        Delta E     RMS |[F,P]|

   @DF-RKS iter SAD:  -231.52891623132464   -2.31529e+02   0.00000e+00 
   @DF-RKS iter   1:  -231.80206472976985   -2.73148e-01   9.20990e-03 DIIS
   @DF-RKS iter   2:  -231.87382061691159   -7.17559e-02   8.41958e-03 DIIS
   @DF-RKS iter   3:  -232.15012518556924   -2.76305e-01   5.11631e-04 DIIS
   @DF-RKS iter   4:  -232.15099837537562   -8.73190e-04   7.98395e-05 DIIS
   @DF-RKS iter   5:  -232.15102749870908   -2.91233e-05   9.18849e-06 DIIS
   @DF-RKS iter   6:  -232.15102792214833   -4.23439e-07   9.38326e-07 DIIS
  Energy and wave function converged.


  ==> Post-Iterations <==

    Orbital Energies [Eh]
    ---------------------

    Doubly Occupied:                                                      

       1Ag   -10.560960     1Bu   -10.560623     2Bu   -10.560616  
       2Ag   -10.559887     3Ag   -10.559879     3Bu   -10.559531  
       4Ag    -0.955318     4Bu    -0.840985     5Bu    -0.840978  
       5Ag    -0.684640     6Ag    -0.684627     7Ag    -0.596661  
       6Bu    -0.534835     7Bu    -0.509542     8Bu    -0.487259  
       9Bu    -0.487245     1Au    -0.434681     8Ag    -0.403149  
       9Ag    -0.403141     1Bg    -0.306349     2Bg    -0.306341  

    Virtual:                                                              

      10Ag    -0.000106    10Bu     0.013397    11Bu     0.013399  
       2Au     0.017109     3Au     0.017116    11Ag     0.033804  
      12Ag     0.033806    12Bu     0.061198     4Au     0.080048  
      13Ag     0.101929     3Bg     0.103596     4Bg     0.103600  
      13Bu     0.106246    14Ag     0.129596    15Ag     0.129600  
      16Ag     0.140798     5Bg     0.146767    14Bu     0.147653  
      15Bu     0.147657     5Au     0.150605     6Au     0.150612  
      17Ag     0.172120    18Ag     0.172123    16Bu     0.173003  
      17Bu     0.176896    18Bu     0.176902    19Bu     0.196862  
      20Bu     0.196862     6Bg     0.233062    19Ag     0.242185  
      20Ag     0.242199    21Ag     0.255594    22Ag     0.274389  
      21Bu     0.300582    22Bu     0.320708    23Bu     0.320725  
      23Ag     0.344639    24Ag     0.344646    24Bu     0.370895  
      25Ag     0.418488    26Ag     0.418496    25Bu     0.427706  
      26Bu     0.427719    27Bu     0.608146    27Ag     0.611109  
      28Bu     0.667090     7Au     0.706967    28Ag     0.709452  
       7Bg     0.767612     8Bg     0.767631    29Ag     0.768846  
      30Ag     0.768865     8Au     0.797704     9Au     0.797707  
      29Bu     0.831403    30Bu     0.831423     9Bg     0.851745  
      31Ag     0.921079    31Bu     1.017134    32Ag     1.028059  
      33Ag     1.043849    34Ag     1.043884    32Bu     1.045457  
      33Bu     1.045492    35Ag     1.080897    34Bu     1.136387  
      35Bu     1.136413    36Bu     1.172220    37Bu     1.172287  
      36Ag     1.216553    37Ag     1.216562    10Bg     1.307248  
      38Bu     1.349306    10Au     1.355802    11Bg     1.457542  
      12Bg     1.457580    38Ag     1.468674    39Ag     1.468739  
      11Au     1.476738    12Au     1.476807    40Ag     1.781857  
      39Bu     1.827491    40Bu     1.917048    41Ag     1.920680  
      41Bu     2.003948    42Bu     2.003979    13Au     2.023547  
      14Au     2.023595    42Ag     2.040743    43Ag     2.040780  
      13Bg     2.074714    43Bu     2.105183    44Bu     2.105219  
      14Bg     2.314728    15Bg     2.314756    15Au     2.386398  
      44Ag     2.407011    45Ag     2.407210    45Bu     2.425242  
      16Bg     2.427545    17Bg     2.427561    46Bu     2.510216  
      47Bu     2.510268    46Ag     2.531741    47Ag     2.531775  
      16Au     2.602231    17Au     2.602287    48Bu     2.642569  
      18Au     2.653765    48Ag     2.655517    18Bg     2.764579  
      49Ag     2.821453    50Ag     2.821519    49Bu     3.036590  
      50Bu     3.036623    51Bu     3.177030    51Ag     3.234055  
      52Bu     3.274821    53Bu     3.274890    52Ag     3.358834  
      53Ag     3.519006    54Ag     3.519126    54Bu     3.921225  
      55Ag     4.289309    55Bu     4.318544    56Bu     4.318558  
      56Ag     4.510241    57Ag     4.510262    57Bu     4.854437  

    Final Occupation by Irrep:
             Ag    Bg    Au    Bu 
    DOCC [     9,    2,    1,    9 ]

  @DF-RKS Final Energy:  -232.15102792214833

   => Energetics <=

    Nuclear Repulsion Energy =            202.0133089353801665
    One-Electron Energy =                -710.9100030254874127
    Two-Electron Energy =                 293.4352677503350151
    DFT Exchange-Correlation Energy =     -16.6896015823760884
    Empirical Dispersion Energy =           0.0000000000000000
    VV10 Nonlocal Energy =                  0.0000000000000000
    Total Energy =                       -232.1510279221483302

Computation Completed


Properties will be evaluated at   0.000000,   0.000000,   0.000000 [a0]

Properties computed using the SCF density matrix

  Nuclear Dipole Moment: [e a0]
     X:    -0.0000      Y:    -0.0000      Z:     0.0000

  Electronic Dipole Moment: [e a0]
     X:     0.0000      Y:     0.0000      Z:     0.0000

  Dipole Moment: [e a0]
     X:    -0.0000      Y:    -0.0000      Z:     0.0000     Total:     0.0000

  Dipole Moment: [D]
     X:    -0.0000      Y:    -0.0000      Z:     0.0000     Total:     0.0000


*** tstop() called on atlantis at Wed Apr 20 02:34:31 2022
Module time:
	user time   =      20.07 seconds =       0.33 minutes
	system time =       0.17 seconds =       0.00 minutes
	total time  =         20 seconds =       0.33 minutes
Total time:
	user time   =      20.07 seconds =       0.33 minutes
	system time =       0.17 seconds =       0.00 minutes
	total time  =         20 seconds =       0.33 minutes
gradient() will perform analytic gradient computation.

*** tstart() called on atlantis
*** at Wed Apr 20 02:34:31 2022

   => Loading Basis Set <=

    Name: 6-31++G**
    Role: ORBITAL
    Keyword: BASIS
    atoms 1-6  entry C          line   115 file /home/akrom/software/anaconda3/envs/ffpenv/share/psi4/basis/6-31ppgss.gbs 
    atoms 7-12 entry H          line    46 file /home/akrom/software/anaconda3/envs/ffpenv/share/psi4/basis/6-31ppgss.gbs 


         ---------------------------------------------------------
                                   SCF
               by Justin Turney, Rob Parrish, Andy Simmonett
                          and Daniel G. A. Smith
                              RKS Reference
                        1 Threads,    500 MiB Core
         ---------------------------------------------------------

  ==> Geometry <==

    Molecular point group: c2h
    Full point group: C2h

    Geometry (in Angstrom), charge = 0, multiplicity = 1:

       Center              X                  Y                   Z               Mass       
    ------------   -----------------  -----------------  -----------------  -----------------
         C           -1.221510000000    -0.693250000000     0.000000000000    12.000000000000
         C           -1.211140000000     0.711220000000     0.000000000000    12.000000000000
         C           -0.010370000000    -1.404520000000     0.000000000000    12.000000000000
         C            0.010370000000     1.404520000000     0.000000000000    12.000000000000
         C            1.211140000000    -0.711220000000     0.000000000000    12.000000000000
         C            1.221510000000     0.693250000000     0.000000000000    12.000000000000
         H           -2.173110000000    -1.233320000000     0.000000000000     1.007825032230
         H           -2.154640000000     1.265330000000     0.000000000000     1.007825032230
         H           -0.018480000000    -2.498650000000     0.000000000000     1.007825032230
         H            0.018480000000     2.498650000000     0.000000000000     1.007825032230
         H            2.154640000000    -1.265330000000     0.000000000000     1.007825032230
         H            2.173110000000     1.233320000000     0.000000000000     1.007825032230

  Running in c2h symmetry.

  Rotational constants: A =      0.18753  B =      0.18752  C =      0.09376 [cm^-1]
  Rotational constants: A =   5621.92707  B =   5621.82252  C =   2810.93740 [MHz]
  Nuclear repulsion =  202.013308935380167

  Charge       = 0
  Multiplicity = 1
  Electrons    = 42
  Nalpha       = 21
  Nbeta        = 21

  ==> Algorithm <==

  SCF Algorithm Type is DF.
  DIIS enabled.
  MOM disabled.
  Fractional occupation disabled.
  Guess Type is SAD.
  Energy threshold   = 1.00e-08
  Density threshold  = 1.00e-08
  Integral threshold = 0.00e+00

  ==> Primary Basis <==

  Basis Set: 6-31++G**
    Blend: 6-31++G**
    Number of shells: 72
    Number of basis function: 150
    Number of Cartesian functions: 150
    Spherical Harmonics?: false
    Max angular momentum: 2

  ==> DFT Potential <==

   => Composite Functional: M06-2X <= 

    Hybrid M06-2X Meta-GGA XC Functional

    Y. Zhao and D. G. Truhlar,  Theor. Chem. Acc., 120, 215, 2008


    Deriv               =              1
    GGA                 =           TRUE
    Meta                =           TRUE

    Exchange Hybrid     =           TRUE
    MP2 Hybrid          =          FALSE

   => Exchange Functionals <=

    1.0000   XC_HYB_MGGA_X_M06_2X

   => Exact (HF) Exchange <=

    0.5400               HF 

   => Correlation Functionals <=

    1.0000   XC_MGGA_C_M06_2X

   => Molecular Quadrature <=

    Radial Scheme          =       TREUTLER
    Pruning Scheme         =           FLAT
    Nuclear Scheme         =       TREUTLER

    BS radius alpha        =              1
    Pruning alpha          =              1
    Radial Points          =             75
    Spherical Points       =            302
    Total Points           =         271800
    Total Blocks           =           2142
    Max Points             =            256
    Max Functions          =            150

   => Loading Basis Set <=

    Name: (6-31++G** AUX)
    Role: JKFIT
    Keyword: DF_BASIS_SCF
    atoms 1-6  entry C          line   154 file /home/akrom/software/anaconda3/envs/ffpenv/share/psi4/basis/aug-cc-pvdz-jkfit.gbs 
    atoms 7-12 entry H          line    70 file /home/akrom/software/anaconda3/envs/ffpenv/share/psi4/basis/aug-cc-pvdz-jkfit.gbs 

  ==> Pre-Iterations <==

   -------------------------------------------------------
    Irrep   Nso     Nmo     Nalpha   Nbeta   Ndocc  Nsocc
   -------------------------------------------------------
     Ag        57      57       0       0       0       0
     Bg        18      18       0       0       0       0
     Au        18      18       0       0       0       0
     Bu        57      57       0       0       0       0
   -------------------------------------------------------
    Total     150     150      21      21      21       0
   -------------------------------------------------------

  ==> Integral Setup <==

  DFHelper Memory: AOs need 0.145 GiB; user supplied 0.145 GiB. Using in-core AOs.

  ==> MemDFJK: Density-Fitted J/K Matrices <==

    J tasked:                   Yes
    K tasked:                   Yes
    wK tasked:                   No
    OpenMP threads:               1
    Memory [MiB]:               148
    Algorithm:                 Core
    Schwarz Cutoff:           1E-12
    Mask sparsity (%):       1.5200
    Fitting Condition:        1E-10

   => Auxiliary Basis Set <=

  Basis Set: (6-31++G** AUX)
    Blend: AUG-CC-PVDZ-JKFIT
    Number of shells: 240
    Number of basis function: 816
    Number of Cartesian functions: 816
    Spherical Harmonics?: false
    Max angular momentum: 3

  Cached 10.0% of DFT collocation blocks in 0.238 [GiB].

  Minimum eigenvalue in the overlap matrix is 1.5878528851E-06.
  Using Symmetric Orthogonalization.

  SCF Guess: Superposition of Atomic Densities via on-the-fly atomic UHF.

  ==> Iterations <==

                           Total Energy        Delta E     RMS |[F,P]|

   @DF-RKS iter SAD:  -231.52891623484300   -2.31529e+02   0.00000e+00 
   @DF-RKS iter   1:  -231.80206473339533   -2.73148e-01   9.20990e-03 DIIS
   @DF-RKS iter   2:  -231.87382062044844   -7.17559e-02   8.41958e-03 DIIS
   @DF-RKS iter   3:  -232.15012518934864   -2.76305e-01   5.11631e-04 DIIS
   @DF-RKS iter   4:  -232.15099837915281   -8.73190e-04   7.98395e-05 DIIS
   @DF-RKS iter   5:  -232.15102750248627   -2.91233e-05   9.18849e-06 DIIS
   @DF-RKS iter   6:  -232.15102792592583   -4.23440e-07   9.38326e-07 DIIS
   @DF-RKS iter   7:  -232.15102793442026   -8.49442e-09   1.02458e-07 DIIS
   @DF-RKS iter   8:  -232.15102793446718   -4.69242e-11   8.19027e-08 DIIS
   @DF-RKS iter   9:  -232.15102793449097   -2.37890e-11   5.34518e-09 DIIS
  Energy and wave function converged.


  ==> Post-Iterations <==

    Orbital Energies [Eh]
    ---------------------

    Doubly Occupied:                                                      

       1Ag   -10.560962     1Bu   -10.560624     2Bu   -10.560620  
       2Ag   -10.559887     3Ag   -10.559883     3Bu   -10.559533  
       4Ag    -0.955320     4Bu    -0.840987     5Bu    -0.840981  
       5Ag    -0.684642     6Ag    -0.684628     7Ag    -0.596662  
       6Bu    -0.534836     7Bu    -0.509544     8Bu    -0.487260  
       9Bu    -0.487247     1Au    -0.434683     8Ag    -0.403151  
       9Ag    -0.403143     1Bg    -0.306351     2Bg    -0.306344  

    Virtual:                                                              

      10Ag    -0.000107    10Bu     0.013396    11Bu     0.013398  
       2Au     0.017108     3Au     0.017114    11Ag     0.033803  
      12Ag     0.033805    12Bu     0.061196     4Au     0.080047  
      13Ag     0.101928     3Bg     0.103595     4Bg     0.103600  
      13Bu     0.106246    14Ag     0.129595    15Ag     0.129600  
      16Ag     0.140797     5Bg     0.146766    14Bu     0.147653  
      15Bu     0.147657     5Au     0.150604     6Au     0.150611  
      17Ag     0.172121    18Ag     0.172123    16Bu     0.173000  
      17Bu     0.176896    18Bu     0.176902    19Bu     0.196861  
      20Bu     0.196862     6Bg     0.233060    19Ag     0.242184  
      20Ag     0.242199    21Ag     0.255592    22Ag     0.274389  
      21Bu     0.300572    22Bu     0.320707    23Bu     0.320724  
      23Ag     0.344638    24Ag     0.344644    24Bu     0.370893  
      25Ag     0.418487    26Ag     0.418494    25Bu     0.427704  
      26Bu     0.427718    27Bu     0.608145    27Ag     0.611108  
      28Bu     0.667088     7Au     0.706965    28Ag     0.709450  
       7Bg     0.767609     8Bg     0.767629    29Ag     0.768845  
      30Ag     0.768864     8Au     0.797702     9Au     0.797704  
      29Bu     0.831401    30Bu     0.831422     9Bg     0.851744  
      31Ag     0.921079    31Bu     1.017131    32Ag     1.028058  
      33Ag     1.043847    34Ag     1.043882    32Bu     1.045455  
      33Bu     1.045490    35Ag     1.080896    34Bu     1.136386  
      35Bu     1.136412    36Bu     1.172219    37Bu     1.172286  
      36Ag     1.216552    37Ag     1.216562    10Bg     1.307246  
      38Bu     1.349304    10Au     1.355800    11Bg     1.457539  
      12Bg     1.457578    38Ag     1.468673    39Ag     1.468738  
      11Au     1.476736    12Au     1.476805    40Ag     1.781855  
      39Bu     1.827488    40Bu     1.917047    41Ag     1.920678  
      41Bu     2.003946    42Bu     2.003978    13Au     2.023545  
      14Au     2.023593    42Ag     2.040741    43Ag     2.040778  
      13Bg     2.074712    43Bu     2.105181    44Bu     2.105218  
      14Bg     2.314727    15Bg     2.314754    15Au     2.386396  
      44Ag     2.407010    45Ag     2.407208    45Bu     2.425241  
      16Bg     2.427544    17Bg     2.427559    46Bu     2.510214  
      47Bu     2.510266    46Ag     2.531739    47Ag     2.531773  
      16Au     2.602230    17Au     2.602285    48Bu     2.642567  
      18Au     2.653763    48Ag     2.655515    18Bg     2.764577  
      49Ag     2.821451    50Ag     2.821517    49Bu     3.036589  
      50Bu     3.036622    51Bu     3.177028    51Ag     3.234052  
      52Bu     3.274817    53Bu     3.274888    52Ag     3.358833  
      53Ag     3.519002    54Ag     3.519123    54Bu     3.921222  
      55Ag     4.289307    55Bu     4.318542    56Bu     4.318557  
      56Ag     4.510239    57Ag     4.510259    57Bu     4.854435  

    Final Occupation by Irrep:
             Ag    Bg    Au    Bu 
    DOCC [     9,    2,    1,    9 ]

  @DF-RKS Final Energy:  -232.15102793449097

   => Energetics <=

    Nuclear Repulsion Energy =            202.0133089353801665
    One-Electron Energy =                -710.9097283456399055
    Two-Electron Energy =                 293.4349889191847183
    DFT Exchange-Correlation Energy =     -16.6895974434159697
    Empirical Dispersion Energy =           0.0000000000000000
    VV10 Nonlocal Energy =                  0.0000000000000000
    Total Energy =                       -232.1510279344909975

Computation Completed


Properties will be evaluated at   0.000000,   0.000000,   0.000000 [a0]

Properties computed using the SCF density matrix

  Nuclear Dipole Moment: [e a0]
     X:    -0.0000      Y:    -0.0000      Z:     0.0000

  Electronic Dipole Moment: [e a0]
     X:     0.0000      Y:     0.0000      Z:     0.0000

  Dipole Moment: [e a0]
     X:    -0.0000      Y:    -0.0000      Z:     0.0000     Total:     0.0000

  Dipole Moment: [D]
     X:    -0.0000      Y:    -0.0000      Z:     0.0000     Total:     0.0000


*** tstop() called on atlantis at Wed Apr 20 02:34:59 2022
Module time:
	user time   =      27.82 seconds =       0.46 minutes
	system time =       0.11 seconds =       0.00 minutes
	total time  =         28 seconds =       0.47 minutes
Total time:
	user time   =      47.89 seconds =       0.80 minutes
	system time =       0.28 seconds =       0.00 minutes
	total time  =         48 seconds =       0.80 minutes

*** tstart() called on atlantis
*** at Wed Apr 20 02:34:59 2022


         ------------------------------------------------------------
                                   SCF GRAD                          
                          Rob Parrish, Justin Turney,                
                       Andy Simmonett, and Alex Sokolov              
         ------------------------------------------------------------

  ==> Geometry <==

    Molecular point group: c2h
    Full point group: C2h

    Geometry (in Angstrom), charge = 0, multiplicity = 1:

       Center              X                  Y                   Z               Mass       
    ------------   -----------------  -----------------  -----------------  -----------------
         C           -1.221510000000    -0.693250000000     0.000000000000    12.000000000000
         C           -1.211140000000     0.711220000000     0.000000000000    12.000000000000
         C           -0.010370000000    -1.404520000000     0.000000000000    12.000000000000
         C            0.010370000000     1.404520000000     0.000000000000    12.000000000000
         C            1.211140000000    -0.711220000000     0.000000000000    12.000000000000
         C            1.221510000000     0.693250000000     0.000000000000    12.000000000000
         H           -2.173110000000    -1.233320000000     0.000000000000     1.007825032230
         H           -2.154640000000     1.265330000000     0.000000000000     1.007825032230
         H           -0.018480000000    -2.498650000000     0.000000000000     1.007825032230
         H            0.018480000000     2.498650000000     0.000000000000     1.007825032230
         H            2.154640000000    -1.265330000000     0.000000000000     1.007825032230
         H            2.173110000000     1.233320000000     0.000000000000     1.007825032230

  Nuclear repulsion =  202.013308935380167

  ==> Basis Set <==

  Basis Set: 6-31++G**
    Blend: 6-31++G**
    Number of shells: 72
    Number of basis function: 150
    Number of Cartesian functions: 150
    Spherical Harmonics?: false
    Max angular momentum: 2

  ==> DFJKGrad: Density-Fitted SCF Gradients <==

    Gradient:                    1
    J tasked:                  Yes
    K tasked:                  Yes
    wK tasked:                  No
    OpenMP threads:              1
    Integrals threads:           1
    Memory [MiB]:              375
    Schwarz Cutoff:          0E+00
    Fitting Condition:       1E-10

   => Auxiliary Basis Set <=

  Basis Set: (6-31++G** AUX)
    Blend: AUG-CC-PVDZ-JKFIT
    Number of shells: 240
    Number of basis function: 816
    Number of Cartesian functions: 816
    Spherical Harmonics?: false
    Max angular momentum: 3

  ==> DFT Potential <==

   => Composite Functional: M06-2X <= 

    Hybrid M06-2X Meta-GGA XC Functional

    Y. Zhao and D. G. Truhlar,  Theor. Chem. Acc., 120, 215, 2008


    Deriv               =              1
    GGA                 =           TRUE
    Meta                =           TRUE

    Exchange Hybrid     =           TRUE
    MP2 Hybrid          =          FALSE

   => Exchange Functionals <=

    1.0000   XC_HYB_MGGA_X_M06_2X

   => Exact (HF) Exchange <=

    0.5400               HF 

   => Correlation Functionals <=

    1.0000   XC_MGGA_C_M06_2X

   => Molecular Quadrature <=

    Radial Scheme          =       TREUTLER
    Pruning Scheme         =           FLAT
    Nuclear Scheme         =       TREUTLER

    BS radius alpha        =              1
    Pruning alpha          =              1
    Radial Points          =             75
    Spherical Points       =            302
    Total Points           =         271800
    Total Blocks           =           2142
    Max Points             =            256
    Max Functions          =            150


  -Total Gradient:
     Atom            X                  Y                   Z
    ------   -----------------  -----------------  -----------------
       1       -0.003408702827    -0.001908889626     0.000000000000
       2       -0.003392994464     0.001987788789     0.000000000000
       3       -0.000009420633    -0.003956844162     0.000000000000
       4        0.000009420633     0.003956844162     0.000000000000
       5        0.003392994464    -0.001987788789     0.000000000000
       6        0.003408702827     0.001908889626     0.000000000000
       7       -0.005148442296    -0.002950141566     0.000000000000
       8       -0.005105471308     0.003048110555     0.000000000000
       9       -0.000034025516    -0.005925307577     0.000000000000
      10        0.000034025516     0.005925307577     0.000000000000
      11        0.005105471308    -0.003048110555     0.000000000000
      12        0.005148442296     0.002950141566     0.000000000000


*** tstop() called on atlantis at Wed Apr 20 02:35:05 2022
Module time:
	user time   =       5.44 seconds =       0.09 minutes
	system time =       0.07 seconds =       0.00 minutes
	total time  =          6 seconds =       0.10 minutes
Total time:
	user time   =      53.33 seconds =       0.89 minutes
	system time =       0.35 seconds =       0.01 minutes
	total time  =         54 seconds =       0.90 minutes

  Based on options and gradient (rms=2.91E-03), recommend projecting translations and projecting rotations.
hessian() will perform frequency computation by finite difference of analytic gradients.

         ----------------------------------------------------------
                                   FINDIF
                     R. A. King and Jonathon Misiewicz
         ---------------------------------------------------------

  Using finite-differences of gradients to determine vibrational frequencies and 
  normal modes.  Resulting frequencies are only valid at stationary points.
    Generating geometries for use with 3-point formula.
    Displacement size will be 5.00e-03.
    Number of atoms is 12.
    Number of irreps is 4.
    Number of SALCs is 30.
    Translations projected? 1. Rotations projected? 1.
    Index of SALCs per irrep:
     1 :  0  1  2  3  4  5  6  7  8  9  10 
     2 :  11  12  13  14 
     3 :  15  16  17  18  19 
     4 :  20  21  22  23  24  25  26  27  28  29 
    Number of SALCs per irrep:
     Irrep 1: 11
     Irrep 2: 4
     Irrep 3: 5
     Irrep 4: 10
    Number of geometries (including reference) is 42.
    Number of displacements per irrep:
      Irrep 1: 22
      Irrep 2: 4
      Irrep 3: 5
      Irrep 4: 10

  //>>>>>>>>>>>>>>>>>>>>>>>>>>>>>>>>>>>//
  //    Loading displacement 1 of 42   //
  //<<<<<<<<<<<<<<<<<<<<<<<<<<<<<<<<<<<//
gradient() will perform analytic gradient computation.

*** tstart() called on atlantis
*** at Wed Apr 20 02:35:05 2022

   => Loading Basis Set <=

    Name: 6-31++G**
    Role: ORBITAL
    Keyword: BASIS
    atoms 1-6  entry C          line   115 file /home/akrom/software/anaconda3/envs/ffpenv/share/psi4/basis/6-31ppgss.gbs 
    atoms 7-12 entry H          line    46 file /home/akrom/software/anaconda3/envs/ffpenv/share/psi4/basis/6-31ppgss.gbs 


         ---------------------------------------------------------
                                   SCF
               by Justin Turney, Rob Parrish, Andy Simmonett
                          and Daniel G. A. Smith
                              RKS Reference
                        1 Threads,    500 MiB Core
         ---------------------------------------------------------

  ==> Geometry <==

    Molecular point group: c2h
    Full point group: C2h

    Geometry (in Angstrom), charge = 0, multiplicity = 1:

       Center              X                  Y                   Z               Mass       
    ------------   -----------------  -----------------  -----------------  -----------------
         C           -1.221510000000    -0.693250000000     0.000000000000    12.000000000000
         C           -1.211140000000     0.711220000000     0.000000000000    12.000000000000
         C           -0.010370000000    -1.404520000000     0.000000000000    12.000000000000
         C            0.010370000000     1.404520000000     0.000000000000    12.000000000000
         C            1.211140000000    -0.711220000000     0.000000000000    12.000000000000
         C            1.221510000000     0.693250000000     0.000000000000    12.000000000000
         H           -2.173110000000    -1.233320000000     0.000000000000     1.007825032230
         H           -2.154640000000     1.265330000000     0.000000000000     1.007825032230
         H           -0.018480000000    -2.498650000000     0.000000000000     1.007825032230
         H            0.018480000000     2.498650000000     0.000000000000     1.007825032230
         H            2.154640000000    -1.265330000000     0.000000000000     1.007825032230
         H            2.173110000000     1.233320000000     0.000000000000     1.007825032230

  Running in c2h symmetry.

  Rotational constants: A =      0.18753  B =      0.18752  C =      0.09376 [cm^-1]
  Rotational constants: A =   5621.92707  B =   5621.82252  C =   2810.93740 [MHz]
  Nuclear repulsion =  202.013308935380167

  Charge       = 0
  Multiplicity = 1
  Electrons    = 42
  Nalpha       = 21
  Nbeta        = 21

  ==> Algorithm <==

  SCF Algorithm Type is DF.
  DIIS enabled.
  MOM disabled.
  Fractional occupation disabled.
  Guess Type is SAD.
  Energy threshold   = 1.00e-08
  Density threshold  = 1.00e-08
  Integral threshold = 0.00e+00

  ==> Primary Basis <==

  Basis Set: 6-31++G**
    Blend: 6-31++G**
    Number of shells: 72
    Number of basis function: 150
    Number of Cartesian functions: 150
    Spherical Harmonics?: false
    Max angular momentum: 2

  ==> DFT Potential <==

   => Composite Functional: M06-2X <= 

    Hybrid M06-2X Meta-GGA XC Functional

    Y. Zhao and D. G. Truhlar,  Theor. Chem. Acc., 120, 215, 2008


    Deriv               =              1
    GGA                 =           TRUE
    Meta                =           TRUE

    Exchange Hybrid     =           TRUE
    MP2 Hybrid          =          FALSE

   => Exchange Functionals <=

    1.0000   XC_HYB_MGGA_X_M06_2X

   => Exact (HF) Exchange <=

    0.5400               HF 

   => Correlation Functionals <=

    1.0000   XC_MGGA_C_M06_2X

   => Molecular Quadrature <=

    Radial Scheme          =       TREUTLER
    Pruning Scheme         =           FLAT
    Nuclear Scheme         =       TREUTLER

    BS radius alpha        =              1
    Pruning alpha          =              1
    Radial Points          =             75
    Spherical Points       =            302
    Total Points           =         271800
    Total Blocks           =           2142
    Max Points             =            256
    Max Functions          =            150

   => Loading Basis Set <=

    Name: (6-31++G** AUX)
    Role: JKFIT
    Keyword: DF_BASIS_SCF
    atoms 1-6  entry C          line   154 file /home/akrom/software/anaconda3/envs/ffpenv/share/psi4/basis/aug-cc-pvdz-jkfit.gbs 
    atoms 7-12 entry H          line    70 file /home/akrom/software/anaconda3/envs/ffpenv/share/psi4/basis/aug-cc-pvdz-jkfit.gbs 

  ==> Pre-Iterations <==

   -------------------------------------------------------
    Irrep   Nso     Nmo     Nalpha   Nbeta   Ndocc  Nsocc
   -------------------------------------------------------
     Ag        57      57       0       0       0       0
     Bg        18      18       0       0       0       0
     Au        18      18       0       0       0       0
     Bu        57      57       0       0       0       0
   -------------------------------------------------------
    Total     150     150      21      21      21       0
   -------------------------------------------------------

  ==> Integral Setup <==

  DFHelper Memory: AOs need 0.145 GiB; user supplied 0.145 GiB. Using in-core AOs.

  ==> MemDFJK: Density-Fitted J/K Matrices <==

    J tasked:                   Yes
    K tasked:                   Yes
    wK tasked:                   No
    OpenMP threads:               1
    Memory [MiB]:               148
    Algorithm:                 Core
    Schwarz Cutoff:           1E-12
    Mask sparsity (%):       1.5200
    Fitting Condition:        1E-10

   => Auxiliary Basis Set <=

  Basis Set: (6-31++G** AUX)
    Blend: AUG-CC-PVDZ-JKFIT
    Number of shells: 240
    Number of basis function: 816
    Number of Cartesian functions: 816
    Spherical Harmonics?: false
    Max angular momentum: 3

  Cached 10.0% of DFT collocation blocks in 0.238 [GiB].

  Minimum eigenvalue in the overlap matrix is 1.5878528850E-06.
  Using Symmetric Orthogonalization.

  SCF Guess: Superposition of Atomic Densities via on-the-fly atomic UHF.

  ==> Iterations <==

                           Total Energy        Delta E     RMS |[F,P]|

   @DF-RKS iter SAD:  -231.52891622997217   -2.31529e+02   0.00000e+00 
   @DF-RKS iter   1:  -231.80206472850017   -2.73148e-01   9.20990e-03 DIIS
   @DF-RKS iter   2:  -231.87382061574505   -7.17559e-02   8.41958e-03 DIIS
   @DF-RKS iter   3:  -232.15012518415827   -2.76305e-01   5.11631e-04 DIIS
   @DF-RKS iter   4:  -232.15099837396571   -8.73190e-04   7.98395e-05 DIIS
   @DF-RKS iter   5:  -232.15102749729894   -2.91233e-05   9.18849e-06 DIIS
   @DF-RKS iter   6:  -232.15102792073856   -4.23440e-07   9.38326e-07 DIIS
   @DF-RKS iter   7:  -232.15102792923318   -8.49462e-09   1.02458e-07 DIIS
   @DF-RKS iter   8:  -232.15102792928025   -4.70664e-11   8.19027e-08 DIIS
   @DF-RKS iter   9:  -232.15102792930372   -2.34763e-11   5.34518e-09 DIIS
  Energy and wave function converged.


  ==> Post-Iterations <==

    Orbital Energies [Eh]
    ---------------------

    Doubly Occupied:                                                      

       1Ag   -10.560962     1Bu   -10.560624     2Bu   -10.560620  
       2Ag   -10.559887     3Ag   -10.559883     3Bu   -10.559533  
       4Ag    -0.955320     4Bu    -0.840987     5Bu    -0.840981  
       5Ag    -0.684642     6Ag    -0.684628     7Ag    -0.596662  
       6Bu    -0.534836     7Bu    -0.509544     8Bu    -0.487260  
       9Bu    -0.487247     1Au    -0.434683     8Ag    -0.403151  
       9Ag    -0.403143     1Bg    -0.306351     2Bg    -0.306344  

    Virtual:                                                              

      10Ag    -0.000107    10Bu     0.013396    11Bu     0.013398  
       2Au     0.017108     3Au     0.017114    11Ag     0.033803  
      12Ag     0.033805    12Bu     0.061196     4Au     0.080047  
      13Ag     0.101928     3Bg     0.103595     4Bg     0.103600  
      13Bu     0.106246    14Ag     0.129595    15Ag     0.129600  
      16Ag     0.140797     5Bg     0.146766    14Bu     0.147653  
      15Bu     0.147657     5Au     0.150604     6Au     0.150611  
      17Ag     0.172121    18Ag     0.172123    16Bu     0.173006  
      17Bu     0.176896    18Bu     0.176902    19Bu     0.196861  
      20Bu     0.196862     6Bg     0.233060    19Ag     0.242184  
      20Ag     0.242199    21Ag     0.255592    22Ag     0.274389  
      21Bu     0.300589    22Bu     0.320707    23Bu     0.320724  
      23Ag     0.344638    24Ag     0.344644    24Bu     0.370894  
      25Ag     0.418487    26Ag     0.418494    25Bu     0.427704  
      26Bu     0.427718    27Bu     0.608145    27Ag     0.611108  
      28Bu     0.667088     7Au     0.706965    28Ag     0.709450  
       7Bg     0.767609     8Bg     0.767629    29Ag     0.768845  
      30Ag     0.768864     8Au     0.797702     9Au     0.797704  
      29Bu     0.831401    30Bu     0.831422     9Bg     0.851744  
      31Ag     0.921079    31Bu     1.017133    32Ag     1.028058  
      33Ag     1.043847    34Ag     1.043882    32Bu     1.045455  
      33Bu     1.045490    35Ag     1.080896    34Bu     1.136386  
      35Bu     1.136412    36Bu     1.172219    37Bu     1.172286  
      36Ag     1.216552    37Ag     1.216562    10Bg     1.307246  
      38Bu     1.349305    10Au     1.355800    11Bg     1.457539  
      12Bg     1.457578    38Ag     1.468673    39Ag     1.468738  
      11Au     1.476736    12Au     1.476805    40Ag     1.781855  
      39Bu     1.827488    40Bu     1.917047    41Ag     1.920678  
      41Bu     2.003946    42Bu     2.003978    13Au     2.023545  
      14Au     2.023593    42Ag     2.040741    43Ag     2.040778  
      13Bg     2.074712    43Bu     2.105181    44Bu     2.105218  
      14Bg     2.314727    15Bg     2.314754    15Au     2.386396  
      44Ag     2.407010    45Ag     2.407208    45Bu     2.425241  
      16Bg     2.427544    17Bg     2.427559    46Bu     2.510214  
      47Bu     2.510266    46Ag     2.531739    47Ag     2.531773  
      16Au     2.602230    17Au     2.602285    48Bu     2.642567  
      18Au     2.653763    48Ag     2.655515    18Bg     2.764577  
      49Ag     2.821451    50Ag     2.821517    49Bu     3.036589  
      50Bu     3.036622    51Bu     3.177028    51Ag     3.234052  
      52Bu     3.274817    53Bu     3.274888    52Ag     3.358833  
      53Ag     3.519002    54Ag     3.519123    54Bu     3.921222  
      55Ag     4.289307    55Bu     4.318542    56Bu     4.318557  
      56Ag     4.510239    57Ag     4.510259    57Bu     4.854435  

    Final Occupation by Irrep:
             Ag    Bg    Au    Bu 
    DOCC [     9,    2,    1,    9 ]

  @DF-RKS Final Energy:  -232.15102792930372

   => Energetics <=

    Nuclear Repulsion Energy =            202.0133089353801665
    One-Electron Energy =                -710.9097283413825608
    Two-Electron Energy =                 293.4349889199973518
    DFT Exchange-Correlation Energy =     -16.6895974432986591
    Empirical Dispersion Energy =           0.0000000000000000
    VV10 Nonlocal Energy =                  0.0000000000000000
    Total Energy =                       -232.1510279293036945

Computation Completed


Properties will be evaluated at   0.000000,   0.000000,   0.000000 [a0]

Properties computed using the SCF density matrix

  Nuclear Dipole Moment: [e a0]
     X:    -0.0000      Y:    -0.0000      Z:     0.0000

  Electronic Dipole Moment: [e a0]
     X:     0.0000      Y:     0.0000      Z:     0.0000

  Dipole Moment: [e a0]
     X:    -0.0000      Y:    -0.0000      Z:     0.0000     Total:     0.0000

  Dipole Moment: [D]
     X:    -0.0000      Y:    -0.0000      Z:     0.0000     Total:     0.0000


*** tstop() called on atlantis at Wed Apr 20 02:35:33 2022
Module time:
	user time   =      27.84 seconds =       0.46 minutes
	system time =       0.09 seconds =       0.00 minutes
	total time  =         28 seconds =       0.47 minutes
Total time:
	user time   =      81.45 seconds =       1.36 minutes
	system time =       0.46 seconds =       0.01 minutes
	total time  =         82 seconds =       1.37 minutes

*** tstart() called on atlantis
*** at Wed Apr 20 02:35:33 2022


         ------------------------------------------------------------
                                   SCF GRAD                          
                          Rob Parrish, Justin Turney,                
                       Andy Simmonett, and Alex Sokolov              
         ------------------------------------------------------------

  ==> Geometry <==

    Molecular point group: c2h
    Full point group: C2h

    Geometry (in Angstrom), charge = 0, multiplicity = 1:

       Center              X                  Y                   Z               Mass       
    ------------   -----------------  -----------------  -----------------  -----------------
         C           -1.221510000000    -0.693250000000     0.000000000000    12.000000000000
         C           -1.211140000000     0.711220000000     0.000000000000    12.000000000000
         C           -0.010370000000    -1.404520000000     0.000000000000    12.000000000000
         C            0.010370000000     1.404520000000     0.000000000000    12.000000000000
         C            1.211140000000    -0.711220000000     0.000000000000    12.000000000000
         C            1.221510000000     0.693250000000     0.000000000000    12.000000000000
         H           -2.173110000000    -1.233320000000     0.000000000000     1.007825032230
         H           -2.154640000000     1.265330000000     0.000000000000     1.007825032230
         H           -0.018480000000    -2.498650000000     0.000000000000     1.007825032230
         H            0.018480000000     2.498650000000     0.000000000000     1.007825032230
         H            2.154640000000    -1.265330000000     0.000000000000     1.007825032230
         H            2.173110000000     1.233320000000     0.000000000000     1.007825032230

  Nuclear repulsion =  202.013308935380167

  ==> Basis Set <==

  Basis Set: 6-31++G**
    Blend: 6-31++G**
    Number of shells: 72
    Number of basis function: 150
    Number of Cartesian functions: 150
    Spherical Harmonics?: false
    Max angular momentum: 2

  ==> DFJKGrad: Density-Fitted SCF Gradients <==

    Gradient:                    1
    J tasked:                  Yes
    K tasked:                  Yes
    wK tasked:                  No
    OpenMP threads:              1
    Integrals threads:           1
    Memory [MiB]:              375
    Schwarz Cutoff:          0E+00
    Fitting Condition:       1E-10

   => Auxiliary Basis Set <=

  Basis Set: (6-31++G** AUX)
    Blend: AUG-CC-PVDZ-JKFIT
    Number of shells: 240
    Number of basis function: 816
    Number of Cartesian functions: 816
    Spherical Harmonics?: false
    Max angular momentum: 3

  ==> DFT Potential <==

   => Composite Functional: M06-2X <= 

    Hybrid M06-2X Meta-GGA XC Functional

    Y. Zhao and D. G. Truhlar,  Theor. Chem. Acc., 120, 215, 2008


    Deriv               =              1
    GGA                 =           TRUE
    Meta                =           TRUE

    Exchange Hybrid     =           TRUE
    MP2 Hybrid          =          FALSE

   => Exchange Functionals <=

    1.0000   XC_HYB_MGGA_X_M06_2X

   => Exact (HF) Exchange <=

    0.5400               HF 

   => Correlation Functionals <=

    1.0000   XC_MGGA_C_M06_2X

   => Molecular Quadrature <=

    Radial Scheme          =       TREUTLER
    Pruning Scheme         =           FLAT
    Nuclear Scheme         =       TREUTLER

    BS radius alpha        =              1
    Pruning alpha          =              1
    Radial Points          =             75
    Spherical Points       =            302
    Total Points           =         271800
    Total Blocks           =           2142
    Max Points             =            256
    Max Functions          =            150


  -Total Gradient:
     Atom            X                  Y                   Z
    ------   -----------------  -----------------  -----------------
       1       -0.003407603260    -0.001908522791     0.000000000000
       2       -0.003391840507     0.001987379218     0.000000000000
       3       -0.000009409864    -0.003955845787     0.000000000000
       4        0.000009409864     0.003955845787     0.000000000000
       5        0.003391840507    -0.001987379218     0.000000000000
       6        0.003407603260     0.001908522791     0.000000000000
       7       -0.005148428665    -0.002949985240     0.000000000000
       8       -0.005105496012     0.003047978879    -0.000000000000
       9       -0.000034012372    -0.005924987599     0.000000000000
      10        0.000034012372     0.005924987599     0.000000000000
      11        0.005105496012    -0.003047978879     0.000000000000
      12        0.005148428665     0.002949985240    -0.000000000000


*** tstop() called on atlantis at Wed Apr 20 02:35:39 2022
Module time:
	user time   =       5.42 seconds =       0.09 minutes
	system time =       0.09 seconds =       0.00 minutes
	total time  =          6 seconds =       0.10 minutes
Total time:
	user time   =      86.87 seconds =       1.45 minutes
	system time =       0.55 seconds =       0.01 minutes
	total time  =         88 seconds =       1.47 minutes

  //>>>>>>>>>>>>>>>>>>>>>>>>>>>>>>>>>>>//
  //    Loading displacement 2 of 42   //
  //<<<<<<<<<<<<<<<<<<<<<<<<<<<<<<<<<<<//
gradient() will perform analytic gradient computation.

*** tstart() called on atlantis
*** at Wed Apr 20 02:35:39 2022

   => Loading Basis Set <=

    Name: 6-31++G**
    Role: ORBITAL
    Keyword: BASIS
    atoms 1-6  entry C          line   115 file /home/akrom/software/anaconda3/envs/ffpenv/share/psi4/basis/6-31ppgss.gbs 
    atoms 7-12 entry H          line    46 file /home/akrom/software/anaconda3/envs/ffpenv/share/psi4/basis/6-31ppgss.gbs 


         ---------------------------------------------------------
                                   SCF
               by Justin Turney, Rob Parrish, Andy Simmonett
                          and Daniel G. A. Smith
                              RKS Reference
                        1 Threads,    500 MiB Core
         ---------------------------------------------------------

  ==> Geometry <==

    Molecular point group: c2h
    Full point group: C2h

    Geometry (in Angstrom), charge = 0, multiplicity = 1:

       Center              X                  Y                   Z               Mass       
    ------------   -----------------  -----------------  -----------------  -----------------
         C           -1.222032477591    -0.693313109608     0.000000000000    12.000000000000
         C           -1.211176745353     0.711157426160     0.000000000000    12.000000000000
         C           -0.010297435136    -1.404520535769     0.000000000000    12.000000000000
         C            0.010297435136     1.404520535769     0.000000000000    12.000000000000
         C            1.211176745353    -0.711157426160     0.000000000000    12.000000000000
         C            1.222032477591     0.693313109608     0.000000000000    12.000000000000
         H           -2.173046280225    -1.233432274252     0.000000000000     1.007825032230
         H           -2.154705373579     1.265218680005     0.000000000000     1.007825032230
         H           -0.018350906646    -2.498650954774     0.000000000000     1.007825032230
         H            0.018350906646     2.498650954774     0.000000000000     1.007825032230
         H            2.154705373579    -1.265218680005     0.000000000000     1.007825032230
         H            2.173046280225     1.233432274252     0.000000000000     1.007825032230

  Running in c2h symmetry.

  Rotational constants: A =      0.18753  B =      0.18745  C =      0.09375 [cm^-1]
  Rotational constants: A =   5621.97670  B =   5619.72613  C =   2810.42560 [MHz]
  Nuclear repulsion =  201.998047561272216

  Charge       = 0
  Multiplicity = 1
  Electrons    = 42
  Nalpha       = 21
  Nbeta        = 21

  ==> Algorithm <==

  SCF Algorithm Type is DF.
  DIIS enabled.
  MOM disabled.
  Fractional occupation disabled.
  Guess Type is SAD.
  Energy threshold   = 1.00e-08
  Density threshold  = 1.00e-08
  Integral threshold = 0.00e+00

  ==> Primary Basis <==

  Basis Set: 6-31++G**
    Blend: 6-31++G**
    Number of shells: 72
    Number of basis function: 150
    Number of Cartesian functions: 150
    Spherical Harmonics?: false
    Max angular momentum: 2

  ==> DFT Potential <==

   => Composite Functional: M06-2X <= 

    Hybrid M06-2X Meta-GGA XC Functional

    Y. Zhao and D. G. Truhlar,  Theor. Chem. Acc., 120, 215, 2008


    Deriv               =              1
    GGA                 =           TRUE
    Meta                =           TRUE

    Exchange Hybrid     =           TRUE
    MP2 Hybrid          =          FALSE

   => Exchange Functionals <=

    1.0000   XC_HYB_MGGA_X_M06_2X

   => Exact (HF) Exchange <=

    0.5400               HF 

   => Correlation Functionals <=

    1.0000   XC_MGGA_C_M06_2X

   => Molecular Quadrature <=

    Radial Scheme          =       TREUTLER
    Pruning Scheme         =           FLAT
    Nuclear Scheme         =       TREUTLER

    BS radius alpha        =              1
    Pruning alpha          =              1
    Radial Points          =             75
    Spherical Points       =            302
    Total Points           =         271800
    Total Blocks           =           2142
    Max Points             =            256
    Max Functions          =            150

   => Loading Basis Set <=

    Name: (6-31++G** AUX)
    Role: JKFIT
    Keyword: DF_BASIS_SCF
    atoms 1-6  entry C          line   154 file /home/akrom/software/anaconda3/envs/ffpenv/share/psi4/basis/aug-cc-pvdz-jkfit.gbs 
    atoms 7-12 entry H          line    70 file /home/akrom/software/anaconda3/envs/ffpenv/share/psi4/basis/aug-cc-pvdz-jkfit.gbs 

  ==> Pre-Iterations <==

   -------------------------------------------------------
    Irrep   Nso     Nmo     Nalpha   Nbeta   Ndocc  Nsocc
   -------------------------------------------------------
     Ag        57      57       0       0       0       0
     Bg        18      18       0       0       0       0
     Au        18      18       0       0       0       0
     Bu        57      57       0       0       0       0
   -------------------------------------------------------
    Total     150     150      21      21      21       0
   -------------------------------------------------------

  ==> Integral Setup <==

  DFHelper Memory: AOs need 0.145 GiB; user supplied 0.145 GiB. Using in-core AOs.

  ==> MemDFJK: Density-Fitted J/K Matrices <==

    J tasked:                   Yes
    K tasked:                   Yes
    wK tasked:                   No
    OpenMP threads:               1
    Memory [MiB]:               148
    Algorithm:                 Core
    Schwarz Cutoff:           1E-12
    Mask sparsity (%):       1.5200
    Fitting Condition:        1E-10

   => Auxiliary Basis Set <=

  Basis Set: (6-31++G** AUX)
    Blend: AUG-CC-PVDZ-JKFIT
    Number of shells: 240
    Number of basis function: 816
    Number of Cartesian functions: 816
    Spherical Harmonics?: false
    Max angular momentum: 3

  Cached 10.0% of DFT collocation blocks in 0.234 [GiB].

  Minimum eigenvalue in the overlap matrix is 1.5897966732E-06.
  Using Symmetric Orthogonalization.

  SCF Guess: Superposition of Atomic Densities via on-the-fly atomic UHF.

  ==> Iterations <==

                           Total Energy        Delta E     RMS |[F,P]|

   @DF-RKS iter SAD:  -231.52804067555329   -2.31528e+02   0.00000e+00 
   @DF-RKS iter   1:  -231.80243684134228   -2.74396e-01   9.20644e-03 DIIS
   @DF-RKS iter   2:  -231.87438995440459   -7.19531e-02   8.41269e-03 DIIS
   @DF-RKS iter   3:  -232.15025140716608   -2.75861e-01   5.11623e-04 DIIS
   @DF-RKS iter   4:  -232.15112436619481   -8.72959e-04   7.97936e-05 DIIS
   @DF-RKS iter   5:  -232.15115346027082   -2.90941e-05   9.23388e-06 DIIS
   @DF-RKS iter   6:  -232.15115388253673   -4.22266e-07   1.40968e-06 DIIS
   @DF-RKS iter   7:  -232.15115388930204   -6.76530e-09   1.27021e-06 DIIS
   @DF-RKS iter   8:  -232.15115389489981   -5.59777e-09   5.79405e-08 DIIS
   @DF-RKS iter   9:  -232.15115389492189   -2.20837e-11   3.28182e-09 DIIS
  Energy and wave function converged.


  ==> Post-Iterations <==

    Orbital Energies [Eh]
    ---------------------

    Doubly Occupied:                                                      

       1Ag   -10.560986     1Bu   -10.560657     2Bu   -10.560635  
       2Ag   -10.559921     3Ag   -10.559897     3Bu   -10.559558  
       4Ag    -0.955248     4Bu    -0.841010     5Bu    -0.840901  
       5Ag    -0.684726     6Ag    -0.684563     7Ag    -0.596673  
       6Bu    -0.534932     7Bu    -0.509496     8Bu    -0.487347  
       9Bu    -0.487200     1Au    -0.434617     8Ag    -0.403319  
       9Ag    -0.403021     1Bg    -0.306377     2Bg    -0.306256  

    Virtual:                                                              

      10Ag    -0.000103    10Bu     0.013397    11Bu     0.013402  
       2Au     0.017027     3Au     0.017152    11Ag     0.033803  
      12Ag     0.033804    12Bu     0.061196     4Au     0.080024  
      13Ag     0.101909     3Bg     0.103606     4Bg     0.103613  
      13Bu     0.106253    14Ag     0.129590    15Ag     0.129606  
      16Ag     0.140834     5Bg     0.146746    14Bu     0.147665  
      15Bu     0.147683     5Au     0.150597     6Au     0.150622  
      17Ag     0.172118    18Ag     0.172127    16Bu     0.173009  
      17Bu     0.176900    18Bu     0.176916    19Bu     0.196847  
      20Bu     0.196867     6Bg     0.233005    19Ag     0.242185  
      20Ag     0.242195    21Ag     0.255587    22Ag     0.274408  
      21Bu     0.300580    22Bu     0.320615    23Bu     0.320832  
      23Ag     0.344506    24Ag     0.344657    24Bu     0.370920  
      25Ag     0.418512    26Ag     0.418571    25Bu     0.427583  
      26Bu     0.427742    27Bu     0.608193    27Ag     0.610953  
      28Bu     0.666903     7Au     0.707015    28Ag     0.709368  
       7Bg     0.767598     8Bg     0.767639    29Ag     0.768703  
      30Ag     0.768916     8Au     0.797677     9Au     0.797723  
      29Bu     0.831319    30Bu     0.831468     9Bg     0.851730  
      31Ag     0.921053    31Bu     1.017235    32Ag     1.027970  
      33Ag     1.043932    34Ag     1.044095    32Bu     1.045383  
      33Bu     1.045659    35Ag     1.081114    34Bu     1.136322  
      35Bu     1.136442    36Bu     1.172011    37Bu     1.172129  
      36Ag     1.216464    37Ag     1.216510    10Bg     1.307260  
      38Bu     1.349211    10Au     1.355924    11Bg     1.457472  
      12Bg     1.457748    38Ag     1.468742    39Ag     1.468803  
      11Au     1.476691    12Au     1.476832    40Ag     1.781914  
      39Bu     1.827407    40Bu     1.917059    41Ag     1.921013  
      41Bu     2.004054    42Bu     2.004586    13Au     2.023504  
      14Au     2.023672    42Ag     2.040664    43Ag     2.040700  
      13Bg     2.074715    43Bu     2.104822    44Bu     2.105137  
      14Bg     2.314338    15Bg     2.314943    15Au     2.386694  
      44Ag     2.407115    45Ag     2.407560    45Bu     2.425523  
      16Bg     2.427557    17Bg     2.428088    46Bu     2.510290  
      47Bu     2.510404    46Ag     2.531709    47Ag     2.531949  
      16Au     2.602285    17Au     2.602652    48Bu     2.642773  
      18Au     2.653510    48Ag     2.655708    18Bg     2.764707  
      49Ag     2.821460    50Ag     2.821465    49Bu     3.036498  
      50Bu     3.036784    51Bu     3.176905    51Ag     3.234435  
      52Bu     3.274784    53Bu     3.275606    52Ag     3.358901  
      53Ag     3.518963    54Ag     3.519766    54Bu     3.921387  
      55Ag     4.289299    55Bu     4.318616    56Bu     4.318757  
      56Ag     4.510415    57Ag     4.510510    57Bu     4.854597  

    Final Occupation by Irrep:
             Ag    Bg    Au    Bu 
    DOCC [     9,    2,    1,    9 ]

  @DF-RKS Final Energy:  -232.15115389492189

   => Energetics <=

    Nuclear Repulsion Energy =            201.9980475612722159
    One-Electron Energy =                -710.8793562725375068
    Two-Electron Energy =                 293.4197783935994721
    DFT Exchange-Correlation Energy =     -16.6896235772560360
    Empirical Dispersion Energy =           0.0000000000000000
    VV10 Nonlocal Energy =                  0.0000000000000000
    Total Energy =                       -232.1511538949218902

Computation Completed


Properties will be evaluated at   0.000000,   0.000000,   0.000000 [a0]

Properties computed using the SCF density matrix

  Nuclear Dipole Moment: [e a0]
     X:     0.0000      Y:     0.0000      Z:     0.0000

  Electronic Dipole Moment: [e a0]
     X:     0.0000      Y:     0.0000      Z:     0.0000

  Dipole Moment: [e a0]
     X:     0.0000      Y:     0.0000      Z:     0.0000     Total:     0.0000

  Dipole Moment: [D]
     X:     0.0000      Y:     0.0000      Z:     0.0000     Total:     0.0000


*** tstop() called on atlantis at Wed Apr 20 02:36:06 2022
Module time:
	user time   =      27.80 seconds =       0.46 minutes
	system time =       0.09 seconds =       0.00 minutes
	total time  =         27 seconds =       0.45 minutes
Total time:
	user time   =     114.68 seconds =       1.91 minutes
	system time =       0.64 seconds =       0.01 minutes
	total time  =        115 seconds =       1.92 minutes

*** tstart() called on atlantis
*** at Wed Apr 20 02:36:06 2022


         ------------------------------------------------------------
                                   SCF GRAD                          
                          Rob Parrish, Justin Turney,                
                       Andy Simmonett, and Alex Sokolov              
         ------------------------------------------------------------

  ==> Geometry <==

    Molecular point group: c2h
    Full point group: C2h

    Geometry (in Angstrom), charge = 0, multiplicity = 1:

       Center              X                  Y                   Z               Mass       
    ------------   -----------------  -----------------  -----------------  -----------------
         C           -1.222032477591    -0.693313109608     0.000000000000    12.000000000000
         C           -1.211176745353     0.711157426160     0.000000000000    12.000000000000
         C           -0.010297435136    -1.404520535769     0.000000000000    12.000000000000
         C            0.010297435136     1.404520535769     0.000000000000    12.000000000000
         C            1.211176745353    -0.711157426160     0.000000000000    12.000000000000
         C            1.222032477591     0.693313109608     0.000000000000    12.000000000000
         H           -2.173046280225    -1.233432274252     0.000000000000     1.007825032230
         H           -2.154705373579     1.265218680005     0.000000000000     1.007825032230
         H           -0.018350906646    -2.498650954774     0.000000000000     1.007825032230
         H            0.018350906646     2.498650954774     0.000000000000     1.007825032230
         H            2.154705373579    -1.265218680005     0.000000000000     1.007825032230
         H            2.173046280225     1.233432274252     0.000000000000     1.007825032230

  Nuclear repulsion =  201.998047561272216

  ==> Basis Set <==

  Basis Set: 6-31++G**
    Blend: 6-31++G**
    Number of shells: 72
    Number of basis function: 150
    Number of Cartesian functions: 150
    Spherical Harmonics?: false
    Max angular momentum: 2

  ==> DFJKGrad: Density-Fitted SCF Gradients <==

    Gradient:                    1
    J tasked:                  Yes
    K tasked:                  Yes
    wK tasked:                  No
    OpenMP threads:              1
    Integrals threads:           1
    Memory [MiB]:              375
    Schwarz Cutoff:          0E+00
    Fitting Condition:       1E-10

   => Auxiliary Basis Set <=

  Basis Set: (6-31++G** AUX)
    Blend: AUG-CC-PVDZ-JKFIT
    Number of shells: 240
    Number of basis function: 816
    Number of Cartesian functions: 816
    Spherical Harmonics?: false
    Max angular momentum: 3

  ==> DFT Potential <==

   => Composite Functional: M06-2X <= 

    Hybrid M06-2X Meta-GGA XC Functional

    Y. Zhao and D. G. Truhlar,  Theor. Chem. Acc., 120, 215, 2008


    Deriv               =              1
    GGA                 =           TRUE
    Meta                =           TRUE

    Exchange Hybrid     =           TRUE
    MP2 Hybrid          =          FALSE

   => Exchange Functionals <=

    1.0000   XC_HYB_MGGA_X_M06_2X

   => Exact (HF) Exchange <=

    0.5400               HF 

   => Correlation Functionals <=

    1.0000   XC_MGGA_C_M06_2X

   => Molecular Quadrature <=

    Radial Scheme          =       TREUTLER
    Pruning Scheme         =           FLAT
    Nuclear Scheme         =       TREUTLER

    BS radius alpha        =              1
    Pruning alpha          =              1
    Radial Points          =             75
    Spherical Points       =            302
    Total Points           =         271800
    Total Blocks           =           2142
    Max Points             =            256
    Max Functions          =            150


  -Total Gradient:
     Atom            X                  Y                   Z
    ------   -----------------  -----------------  -----------------
       1       -0.004209092564    -0.001971042751     0.000000000000
       2       -0.003375311174     0.002007565576     0.000000000000
       3        0.000249215454    -0.004165620039    -0.000000000000
       4       -0.000249215454     0.004165620039     0.000000000000
       5        0.003375311174    -0.002007565576     0.000000000000
       6        0.004209092564     0.001971042751    -0.000000000000
       7       -0.004930745445    -0.002813648894    -0.000000000000
       8       -0.005128684054     0.002987096255     0.000000000000
       9       -0.000065336150    -0.005975659941    -0.000000000000
      10        0.000065336150     0.005975659941     0.000000000000
      11        0.005128684054    -0.002987096255     0.000000000000
      12        0.004930745445     0.002813648894    -0.000000000000


*** tstop() called on atlantis at Wed Apr 20 02:36:12 2022
Module time:
	user time   =       5.44 seconds =       0.09 minutes
	system time =       0.08 seconds =       0.00 minutes
	total time  =          6 seconds =       0.10 minutes
Total time:
	user time   =     120.12 seconds =       2.00 minutes
	system time =       0.72 seconds =       0.01 minutes
	total time  =        121 seconds =       2.02 minutes

  //>>>>>>>>>>>>>>>>>>>>>>>>>>>>>>>>>>>//
  //    Loading displacement 3 of 42   //
  //<<<<<<<<<<<<<<<<<<<<<<<<<<<<<<<<<<<//
gradient() will perform analytic gradient computation.

*** tstart() called on atlantis
*** at Wed Apr 20 02:36:12 2022

   => Loading Basis Set <=

    Name: 6-31++G**
    Role: ORBITAL
    Keyword: BASIS
    atoms 1-6  entry C          line   115 file /home/akrom/software/anaconda3/envs/ffpenv/share/psi4/basis/6-31ppgss.gbs 
    atoms 7-12 entry H          line    46 file /home/akrom/software/anaconda3/envs/ffpenv/share/psi4/basis/6-31ppgss.gbs 


         ---------------------------------------------------------
                                   SCF
               by Justin Turney, Rob Parrish, Andy Simmonett
                          and Daniel G. A. Smith
                              RKS Reference
                        1 Threads,    500 MiB Core
         ---------------------------------------------------------

  ==> Geometry <==

    Molecular point group: c2h
    Full point group: C2h

    Geometry (in Angstrom), charge = 0, multiplicity = 1:

       Center              X                  Y                   Z               Mass       
    ------------   -----------------  -----------------  -----------------  -----------------
         C           -1.220987522409    -0.693186890392     0.000000000000    12.000000000000
         C           -1.211103254647     0.711282573840     0.000000000000    12.000000000000
         C           -0.010442564864    -1.404519464231     0.000000000000    12.000000000000
         C            0.010442564864     1.404519464231     0.000000000000    12.000000000000
         C            1.211103254647    -0.711282573840     0.000000000000    12.000000000000
         C            1.220987522409     0.693186890392     0.000000000000    12.000000000000
         H           -2.173173719775    -1.233207725748     0.000000000000     1.007825032230
         H           -2.154574626421     1.265441319995     0.000000000000     1.007825032230
         H           -0.018609093354    -2.498649045226     0.000000000000     1.007825032230
         H            0.018609093354     2.498649045226     0.000000000000     1.007825032230
         H            2.154574626421    -1.265441319995     0.000000000000     1.007825032230
         H            2.173173719775     1.233207725748     0.000000000000     1.007825032230

  Running in c2h symmetry.

  Rotational constants: A =      0.18760  B =      0.18752  C =      0.09378 [cm^-1]
  Rotational constants: A =   5624.12726  B =   5621.66993  C =   2811.44916 [MHz]
  Nuclear repulsion =  202.028576396706484

  Charge       = 0
  Multiplicity = 1
  Electrons    = 42
  Nalpha       = 21
  Nbeta        = 21

  ==> Algorithm <==

  SCF Algorithm Type is DF.
  DIIS enabled.
  MOM disabled.
  Fractional occupation disabled.
  Guess Type is SAD.
  Energy threshold   = 1.00e-08
  Density threshold  = 1.00e-08
  Integral threshold = 0.00e+00

  ==> Primary Basis <==

  Basis Set: 6-31++G**
    Blend: 6-31++G**
    Number of shells: 72
    Number of basis function: 150
    Number of Cartesian functions: 150
    Spherical Harmonics?: false
    Max angular momentum: 2

  ==> DFT Potential <==

   => Composite Functional: M06-2X <= 

    Hybrid M06-2X Meta-GGA XC Functional

    Y. Zhao and D. G. Truhlar,  Theor. Chem. Acc., 120, 215, 2008


    Deriv               =              1
    GGA                 =           TRUE
    Meta                =           TRUE

    Exchange Hybrid     =           TRUE
    MP2 Hybrid          =          FALSE

   => Exchange Functionals <=

    1.0000   XC_HYB_MGGA_X_M06_2X

   => Exact (HF) Exchange <=

    0.5400               HF 

   => Correlation Functionals <=

    1.0000   XC_MGGA_C_M06_2X

   => Molecular Quadrature <=

    Radial Scheme          =       TREUTLER
    Pruning Scheme         =           FLAT
    Nuclear Scheme         =       TREUTLER

    BS radius alpha        =              1
    Pruning alpha          =              1
    Radial Points          =             75
    Spherical Points       =            302
    Total Points           =         271800
    Total Blocks           =           2140
    Max Points             =            256
    Max Functions          =            150

   => Loading Basis Set <=

    Name: (6-31++G** AUX)
    Role: JKFIT
    Keyword: DF_BASIS_SCF
    atoms 1-6  entry C          line   154 file /home/akrom/software/anaconda3/envs/ffpenv/share/psi4/basis/aug-cc-pvdz-jkfit.gbs 
    atoms 7-12 entry H          line    70 file /home/akrom/software/anaconda3/envs/ffpenv/share/psi4/basis/aug-cc-pvdz-jkfit.gbs 

  ==> Pre-Iterations <==

   -------------------------------------------------------
    Irrep   Nso     Nmo     Nalpha   Nbeta   Ndocc  Nsocc
   -------------------------------------------------------
     Ag        57      57       0       0       0       0
     Bg        18      18       0       0       0       0
     Au        18      18       0       0       0       0
     Bu        57      57       0       0       0       0
   -------------------------------------------------------
    Total     150     150      21      21      21       0
   -------------------------------------------------------

  ==> Integral Setup <==

  DFHelper Memory: AOs need 0.145 GiB; user supplied 0.145 GiB. Using in-core AOs.

  ==> MemDFJK: Density-Fitted J/K Matrices <==

    J tasked:                   Yes
    K tasked:                   Yes
    wK tasked:                   No
    OpenMP threads:               1
    Memory [MiB]:               148
    Algorithm:                 Core
    Schwarz Cutoff:           1E-12
    Mask sparsity (%):       1.5200
    Fitting Condition:        1E-10

   => Auxiliary Basis Set <=

  Basis Set: (6-31++G** AUX)
    Blend: AUG-CC-PVDZ-JKFIT
    Number of shells: 240
    Number of basis function: 816
    Number of Cartesian functions: 816
    Spherical Harmonics?: false
    Max angular momentum: 3

  Cached 10.0% of DFT collocation blocks in 0.232 [GiB].

  Minimum eigenvalue in the overlap matrix is 1.5859160305E-06.
  Using Symmetric Orthogonalization.

  SCF Guess: Superposition of Atomic Densities via on-the-fly atomic UHF.

  ==> Iterations <==

                           Total Energy        Delta E     RMS |[F,P]|

   @DF-RKS iter SAD:  -231.53003460844627   -2.31530e+02   0.00000e+00 
   @DF-RKS iter   1:  -231.80193093735258   -2.71896e-01   9.21370e-03 DIIS
   @DF-RKS iter   2:  -231.87357444337761   -7.16435e-02   8.42553e-03 DIIS
   @DF-RKS iter   3:  -232.15026873349558   -2.76694e-01   5.11827e-04 DIIS
   @DF-RKS iter   4:  -232.15114246181568   -8.73728e-04   7.98763e-05 DIIS
   @DF-RKS iter   5:  -232.15117160558646   -2.91438e-05   9.26438e-06 DIIS
   @DF-RKS iter   6:  -232.15117202933487   -4.23748e-07   1.49000e-06 DIIS
   @DF-RKS iter   7:  -232.15117203609310   -6.75823e-09   1.36069e-06 DIIS
   @DF-RKS iter   8:  -232.15117204252084   -6.42774e-09   5.59595e-08 DIIS
   @DF-RKS iter   9:  -232.15117204254187   -2.10321e-11   3.29462e-09 DIIS
  Energy and wave function converged.


  ==> Post-Iterations <==

    Orbital Energies [Eh]
    ---------------------

    Doubly Occupied:                                                      

       1Ag   -10.560940     1Bu   -10.560611     2Bu   -10.560589  
       2Ag   -10.559874     3Ag   -10.559850     3Bu   -10.559510  
       4Ag    -0.955413     4Bu    -0.841072     5Bu    -0.840955  
       5Ag    -0.684693     6Ag    -0.684562     7Ag    -0.596685  
       6Bu    -0.534747     7Bu    -0.509600     8Bu    -0.487328  
       9Bu    -0.487173     1Au    -0.434739     8Ag    -0.403250  
       9Ag    -0.402994     1Bg    -0.306420     2Bg    -0.306320  

    Virtual:                                                              

      10Ag    -0.000114    10Bu     0.013394    11Bu     0.013400  
       2Au     0.017083     3Au     0.017222    11Ag     0.033807  
      12Ag     0.033808    12Bu     0.061197     4Au     0.080000  
      13Ag     0.101872     3Bg     0.103586     4Bg     0.103605  
      13Bu     0.106249    14Ag     0.129600    15Ag     0.129614  
      16Ag     0.140777     5Bg     0.146793    14Bu     0.147642  
      15Bu     0.147659     5Au     0.150598     6Au     0.150637  
      17Ag     0.172121    18Ag     0.172130    16Bu     0.173004  
      17Bu     0.176898    18Bu     0.176915    19Bu     0.196859  
      20Bu     0.196875     6Bg     0.233133    19Ag     0.242183  
      20Ag     0.242210    21Ag     0.255596    22Ag     0.274369  
      21Bu     0.300590    22Bu     0.320618    23Bu     0.320796  
      23Ag     0.344678    24Ag     0.344789    24Bu     0.370906  
      25Ag     0.418423    26Ag     0.418541    25Bu     0.427683  
      26Bu     0.427853    27Bu     0.608080    27Ag     0.611262  
      28Bu     0.667306     7Au     0.706980    28Ag     0.709511  
       7Bg     0.767552     8Bg     0.767602    29Ag     0.768830  
      30Ag     0.769020     8Au     0.797702     9Au     0.797718  
      29Bu     0.831386    30Bu     0.831512     9Bg     0.851762  
      31Ag     0.921102    31Bu     1.017123    32Ag     1.028183  
      33Ag     1.043735    34Ag     1.043937    32Bu     1.045250  
      33Bu     1.045443    35Ag     1.080908    34Bu     1.136370  
      35Bu     1.136452    36Bu     1.172197    37Bu     1.172339  
      36Ag     1.216579    37Ag     1.216600    10Bg     1.307259  
      38Bu     1.349429    10Au     1.355839    11Bg     1.457505  
      12Bg     1.457850    38Ag     1.468676    39Ag     1.468936  
      11Au     1.476689    12Au     1.477061    40Ag     1.781822  
      39Bu     1.827760    40Bu     1.917224    41Ag     1.920807  
      41Bu     2.003896    42Bu     2.004178    13Au     2.023598  
      14Au     2.023975    42Ag     2.040931    43Ag     2.041392  
      13Bg     2.075027    43Bu     2.105387    44Bu     2.105531  
      14Bg     2.314760    15Bg     2.315154    15Au     2.386373  
      44Ag     2.407130    45Ag     2.407492    45Bu     2.425372  
      16Bg     2.427307    17Bg     2.427731    46Bu     2.510298  
      47Bu     2.510749    46Ag     2.531677    47Ag     2.531845  
      16Au     2.602050    17Au     2.602408    48Bu     2.642465  
      18Au     2.654136    48Ag     2.656033    18Bg     2.764599  
      49Ag     2.821554    50Ag     2.821783    49Bu     3.036486  
      50Bu     3.036777    51Bu     3.177187    51Ag     3.233727  
      52Bu     3.274284    53Bu     3.274795    52Ag     3.358837  
      53Ag     3.518612    54Ag     3.519376    54Bu     3.921606  
      55Ag     4.289716    55Bu     4.318634    56Bu     4.318775  
      56Ag     4.510492    57Ag     4.510576    57Bu     4.854913  

    Final Occupation by Irrep:
             Ag    Bg    Au    Bu 
    DOCC [     9,    2,    1,    9 ]

  @DF-RKS Final Energy:  -232.15117204254187

   => Energetics <=

    Nuclear Repulsion Energy =            202.0285763967064838
    One-Electron Energy =                -710.9402949395107498
    Two-Electron Energy =                 293.4503626938545153
    DFT Exchange-Correlation Energy =     -16.6898161935921721
    Empirical Dispersion Energy =           0.0000000000000000
    VV10 Nonlocal Energy =                  0.0000000000000000
    Total Energy =                       -232.1511720425419014

Computation Completed


Properties will be evaluated at   0.000000,   0.000000,   0.000000 [a0]

Properties computed using the SCF density matrix

  Nuclear Dipole Moment: [e a0]
     X:     0.0000      Y:     0.0000      Z:     0.0000

  Electronic Dipole Moment: [e a0]
     X:     0.0000      Y:     0.0000      Z:     0.0000

  Dipole Moment: [e a0]
     X:     0.0000      Y:     0.0000      Z:     0.0000     Total:     0.0000

  Dipole Moment: [D]
     X:     0.0000      Y:     0.0000      Z:     0.0000     Total:     0.0000


*** tstop() called on atlantis at Wed Apr 20 02:36:40 2022
Module time:
	user time   =      27.84 seconds =       0.46 minutes
	system time =       0.10 seconds =       0.00 minutes
[...]
      5   C                0.23  0.02 -0.00    0.00 -0.00  0.21    0.00 -0.00 -0.03   
      6   C                0.21 -0.03  0.00    0.00  0.00 -0.21    0.00 -0.00 -0.03   
      7   H               -0.04 -0.28 -0.00   -0.00 -0.00  0.35    0.00 -0.00  0.41   
      8   H               -0.07  0.26 -0.00   -0.00 -0.00 -0.35    0.00  0.00  0.41   
      9   H               -0.06  0.35  0.00    0.00  0.00 -0.36   -0.00  0.00  0.41   
     10   H                0.06 -0.35  0.00   -0.00  0.00  0.36    0.00 -0.00  0.41   
     11   H                0.07 -0.26 -0.00    0.00 -0.00  0.35   -0.00 -0.00  0.41   
     12   H                0.04  0.28  0.00   -0.00  0.00 -0.35   -0.00 -0.00  0.41   

  Vibration                       13                  14                  15          
  Freq [cm^-1]                 907.7613            909.6163           1007.1137       
  Irrep                           Bg                  Bg                  Bu          
  Reduced mass [u]              1.2479              1.2479              6.5333        
  Force const [mDyne/A]         0.6058              0.6083              3.9043        
  Turning point v=0 [a0]        0.3260              0.3257              0.1353        
  RMS dev v=0 [a0 u^1/2]        0.2575              0.2573              0.2445        
  Char temp [K]               1306.0664           1308.7354           1449.0123       
  ----------------------------------------------------------------------------------
      1   C                0.00  0.00 -0.07    0.00  0.00 -0.05   -0.25 -0.14  0.00   
      2   C               -0.00 -0.00  0.01    0.00 -0.00 -0.08    0.25 -0.15 -0.00   
      3   C                0.00 -0.00 -0.08    0.00  0.00  0.04    0.00  0.29  0.00   
      4   C               -0.00 -0.00  0.08   -0.00 -0.00 -0.04    0.00  0.29  0.00   
      5   C                0.00 -0.00 -0.01   -0.00  0.00  0.08    0.25 -0.15 -0.00   
      6   C                0.00  0.00  0.07   -0.00 -0.00  0.05   -0.25 -0.14  0.00   
      7   H                0.00  0.00  0.46   -0.00  0.00  0.34   -0.24 -0.15 -0.00   
      8   H               -0.00  0.00 -0.06    0.00  0.00  0.56    0.24 -0.16  0.00   
      9   H               -0.00 -0.00  0.52    0.00  0.00 -0.23   -0.00  0.29 -0.00   
     10   H               -0.00 -0.00 -0.52   -0.00 -0.00  0.23   -0.00  0.29 -0.00   
     11   H               -0.00 -0.00  0.06    0.00  0.00 -0.56    0.24 -0.16  0.00   
     12   H                0.00  0.00 -0.46   -0.00 -0.00 -0.34   -0.24 -0.15 -0.00   

  Vibration                       16                  17                  18          
  Freq [cm^-1]                1008.2708           1025.4027           1026.9634       
  Irrep                           Ag                  Au                  Au          
  Reduced mass [u]              4.7018              1.3558              1.3523        
  Force const [mDyne/A]         2.8162              0.8399              0.8403        
  Turning point v=0 [a0]        0.1594              0.2943              0.2944        
  RMS dev v=0 [a0 u^1/2]        0.2443              0.2423              0.2421        
  Char temp [K]               1450.6772           1475.3262           1477.5716       
  ----------------------------------------------------------------------------------
      1   C                0.19  0.15  0.00    0.00 -0.00  0.08    0.00  0.00  0.06   
      2   C                0.20 -0.11 -0.00   -0.00 -0.00  0.01   -0.00  0.00 -0.10   
      3   C                0.03  0.24  0.00    0.00  0.00 -0.09   -0.00 -0.00  0.04   
      4   C               -0.03 -0.24  0.00    0.00  0.00 -0.09   -0.00 -0.00  0.04   
      5   C               -0.20  0.11 -0.00   -0.00  0.00  0.01   -0.00  0.00 -0.10   
      6   C               -0.19 -0.15  0.00   -0.00  0.00  0.08    0.00  0.00  0.06   
      7   H                0.10  0.35 -0.00    0.00 -0.00 -0.46    0.00 -0.00 -0.34   
      8   H                0.19 -0.17  0.00   -0.00  0.00 -0.07    0.00  0.00  0.57   
      9   H                0.26  0.26 -0.00    0.00  0.00  0.52   -0.00 -0.00 -0.22   
     10   H               -0.26 -0.26 -0.00    0.00  0.00  0.52    0.00 -0.00 -0.22   
     11   H               -0.19  0.17  0.00    0.00  0.00 -0.07    0.00  0.00  0.57   
     12   H               -0.10 -0.35 -0.00    0.00 -0.00 -0.46    0.00 -0.00 -0.34   

  Vibration                       19                  20                  21          
  Freq [cm^-1]                1049.4306           1062.7038           1063.4317       
  Irrep                           Bg                  Bu                  Bu          
  Reduced mass [u]              1.2312              1.7227              1.7276        
  Force const [mDyne/A]         0.7989              1.1463              1.1511        
  Turning point v=0 [a0]        0.3053              0.2564              0.2560        
  RMS dev v=0 [a0 u^1/2]        0.2395              0.2380              0.2379        
  Char temp [K]               1509.8970           1528.9942           1530.0414       
  ----------------------------------------------------------------------------------
      1   C                0.00 -0.00 -0.06   -0.01  0.09  0.00   -0.11 -0.04 -0.00   
      2   C                0.00 -0.00  0.06    0.11 -0.04 -0.00    0.02  0.09  0.00   
      3   C               -0.00 -0.00  0.06   -0.06 -0.08 -0.00    0.06 -0.09 -0.00   
      4   C               -0.00  0.00 -0.06   -0.06 -0.08 -0.00    0.06 -0.09  0.00   
      5   C                0.00 -0.00 -0.06    0.11 -0.04  0.00    0.02  0.09  0.00   
      6   C                0.00 -0.00  0.06   -0.01  0.09  0.00   -0.11 -0.04 -0.00   
      7   H               -0.00  0.00  0.40   -0.23  0.47 -0.00   -0.19  0.07  0.00   
      8   H                0.00 -0.00 -0.41    0.18  0.05  0.00    0.24  0.47 -0.00   
      9   H               -0.00 -0.00 -0.40   -0.40 -0.09  0.00    0.37 -0.10 -0.00   
     10   H               -0.00  0.00  0.40   -0.40 -0.09  0.00    0.37 -0.10  0.00   
     11   H               -0.00 -0.00  0.41    0.18  0.05 -0.00    0.24  0.47 -0.00   
     12   H               -0.00  0.00 -0.40   -0.23  0.47 -0.00   -0.19  0.07  0.00   

  Vibration                       22                  23                  24          
  Freq [cm^-1]                1123.7655           1161.3281           1230.7960       
  Irrep                           Ag                  Bu                  Ag          
  Reduced mass [u]              1.2540              1.2773              1.1420        
  Force const [mDyne/A]         0.9331              1.0150              1.0193        
  Turning point v=0 [a0]        0.2923              0.2849              0.2927        
  RMS dev v=0 [a0 u^1/2]        0.2315              0.2277              0.2212        
  Char temp [K]               1616.8484           1670.8926           1770.8414       
  ----------------------------------------------------------------------------------
      1   C               -0.06  0.03 -0.00   -0.03  0.06  0.00    0.01 -0.03  0.00   
      2   C               -0.04 -0.02 -0.00   -0.03 -0.06 -0.00    0.03  0.04 -0.00   
      3   C                0.06 -0.03 -0.00    0.06 -0.00  0.00    0.05 -0.00 -0.00   
      4   C               -0.06  0.03  0.00    0.06 -0.00  0.00   -0.05  0.00  0.00   
      5   C                0.04  0.02  0.00   -0.03 -0.06 -0.00   -0.03 -0.04 -0.00   
      6   C                0.06 -0.03 -0.00   -0.03  0.06  0.00   -0.01  0.03  0.00   
      7   H               -0.35  0.53  0.00   -0.20  0.35 -0.00    0.06 -0.11 -0.00   
      8   H               -0.03 -0.00  0.00   -0.20 -0.35  0.00    0.32  0.54  0.00   
      9   H                0.29 -0.03  0.00    0.40 -0.00  0.00    0.29 -0.00  0.00   
     10   H               -0.29  0.03 -0.00    0.40 -0.00 -0.00   -0.29  0.00 -0.00   
     11   H                0.03  0.00 -0.00   -0.20 -0.35  0.00   -0.32 -0.54  0.00   
     12   H                0.35 -0.53  0.00   -0.20  0.35 -0.00   -0.06  0.11 -0.00   

  Vibration                       25                  26                  27          
  Freq [cm^-1]                1305.1889           1317.9712           1512.2761       
  Irrep                           Bu                  Ag                  Bu          
  Reduced mass [u]              3.4166              1.2844              1.9825        
  Force const [mDyne/A]         3.4292              1.3145              2.6714        
  Turning point v=0 [a0]        0.1643              0.2667              0.2004        
  RMS dev v=0 [a0 u^1/2]        0.2148              0.2137              0.1995        
  Char temp [K]               1877.8762           1896.2671           2175.8286       
  ----------------------------------------------------------------------------------
      1   C               -0.09  0.17 -0.00   -0.03  0.07  0.00   -0.05  0.13 -0.00   
      2   C               -0.10 -0.17  0.00    0.01  0.07 -0.00    0.10 -0.00  0.00   
      3   C                0.19 -0.00  0.00   -0.03 -0.01  0.00   -0.10 -0.07 -0.00   
      4   C                0.19 -0.00 -0.00    0.03  0.01  0.00   -0.10 -0.07 -0.00   
      5   C               -0.10 -0.17  0.00   -0.01 -0.07 -0.00    0.10 -0.00  0.00   
      6   C               -0.09  0.17 -0.00    0.03 -0.07  0.00   -0.05  0.13 -0.00   
      7   H                0.18 -0.31  0.00    0.14 -0.24 -0.00    0.28 -0.45  0.00   
      8   H                0.19  0.31 -0.00   -0.18 -0.25  0.00    0.01 -0.20 -0.00   
      9   H               -0.36  0.00 -0.00    0.56 -0.02  0.00    0.36 -0.09 -0.00   
     10   H               -0.36  0.00  0.00   -0.56  0.02 -0.00    0.36 -0.09  0.00   
     11   H                0.19  0.31 -0.00    0.18  0.25  0.00    0.01 -0.20 -0.00   
     12   H                0.18 -0.31  0.00   -0.14  0.24 -0.00    0.28 -0.45  0.00   

  Vibration                       28                  29                  30          
  Freq [cm^-1]                1514.5677           1637.4153           1658.3171       
  Irrep                           Bu                  Ag                  Ag          
  Reduced mass [u]              1.9767              5.1712              4.3502        
  Force const [mDyne/A]         2.6716              8.1688              7.0485        
  Turning point v=0 [a0]        0.2005              0.1192              0.1292        
  RMS dev v=0 [a0 u^1/2]        0.1994              0.1917              0.1905        
  Char temp [K]               2179.1258           2355.8760           2385.9491       
  ----------------------------------------------------------------------------------
      1   C               -0.09 -0.02  0.00   -0.04 -0.20  0.00   -0.18  0.19  0.00   
      2   C                0.04  0.13 -0.00    0.16  0.29 -0.00    0.12 -0.07  0.00   
      3   C                0.11 -0.06 -0.00    0.16  0.12 -0.00    0.25 -0.07  0.00   
      4   C                0.11 -0.06  0.00   -0.16 -0.12 -0.00   -0.25  0.07  0.00   
      5   C                0.04  0.13 -0.00   -0.16 -0.29 -0.00   -0.12  0.07 -0.00   
      6   C               -0.09 -0.02  0.00    0.04  0.20 -0.00    0.18 -0.19  0.00   
      7   H               -0.04 -0.15 -0.00   -0.23  0.11  0.00    0.12 -0.37 -0.00   
      8   H               -0.29 -0.42  0.00   -0.23 -0.38 -0.00    0.12 -0.10  0.00   
      9   H               -0.41 -0.07  0.00   -0.17  0.14  0.00   -0.41 -0.07 -0.00   
     10   H               -0.41 -0.07 -0.00    0.17 -0.14  0.00    0.41  0.07 -0.00   
     11   H               -0.29 -0.42  0.00    0.23  0.38 -0.00   -0.12  0.10  0.00   
     12   H               -0.04 -0.15 -0.00    0.23 -0.11  0.00   -0.12  0.37 -0.00   

  Vibration                       31                  32                  33          
  Freq [cm^-1]                3130.0269           3134.4442           3140.5017       
  Irrep                           Bu                  Ag                  Ag          
  Reduced mass [u]              1.0839              1.0899              1.0876        
  Force const [mDyne/A]         6.2564              6.3088              6.3198        
  Turning point v=0 [a0]        0.1884              0.1877              0.1878        
  RMS dev v=0 [a0 u^1/2]        0.1387              0.1386              0.1385        
  Char temp [K]               4503.4118           4509.7673           4518.4828       
  ----------------------------------------------------------------------------------
      1   C                0.03  0.02 -0.00    0.01  0.00 -0.00   -0.05 -0.03 -0.00   
      2   C               -0.03  0.02 -0.00   -0.04  0.02  0.00    0.01 -0.00 -0.00   
      3   C               -0.00 -0.03  0.00   -0.00  0.04 -0.00    0.00  0.03  0.00   
      4   C               -0.00 -0.03  0.00    0.00 -0.04 -0.00   -0.00 -0.03  0.00   
      5   C               -0.03  0.02  0.00    0.04 -0.02 -0.00   -0.01  0.00 -0.00   
      6   C                0.03  0.02  0.00   -0.01 -0.00  0.00    0.05  0.03  0.00   
      7   H               -0.35 -0.20  0.00   -0.12 -0.06  0.00    0.53  0.30  0.00   
      8   H                0.35 -0.21  0.00    0.46 -0.27 -0.00   -0.11  0.06 -0.00   
      9   H                0.00  0.41  0.00   -0.00 -0.44  0.00   -0.00 -0.34  0.00   
     10   H                0.00  0.41 -0.00    0.00  0.44  0.00    0.00  0.34  0.00   
     11   H                0.35 -0.21  0.00   -0.46  0.27 -0.00    0.11 -0.06  0.00   
     12   H               -0.35 -0.20 -0.00    0.12  0.06  0.00   -0.53 -0.30 -0.00   

  Vibration                       34                  35                  36          
  Freq [cm^-1]                3154.4140           3154.9271           3165.2198       
  Irrep                           Bu                  Bu                  Ag          
  Reduced mass [u]              1.0960              1.0958              1.0987        
  Force const [mDyne/A]         6.4251              6.4264              6.4852        
  Turning point v=0 [a0]        0.1866              0.1866              0.1861        
  RMS dev v=0 [a0 u^1/2]        0.1381              0.1381              0.1379        
  Char temp [K]               4538.4994           4539.2377           4554.0466       
  ----------------------------------------------------------------------------------
      1   C               -0.04 -0.02  0.00   -0.02 -0.01  0.00   -0.03 -0.02 -0.00   
      2   C               -0.04  0.02  0.00    0.02 -0.01 -0.00   -0.03  0.02  0.00   
      3   C                0.00  0.00  0.00   -0.00 -0.05 -0.00   -0.00 -0.04 -0.00   
      4   C                0.00  0.00  0.00   -0.00 -0.05  0.00    0.00  0.04  0.00   
      5   C               -0.04  0.02  0.00    0.02 -0.01 -0.00    0.03 -0.02  0.00   
      6   C               -0.04 -0.02  0.00   -0.02 -0.01 -0.00    0.03  0.02  0.00   
      7   H                0.43  0.25 -0.00    0.26  0.14  0.00    0.29  0.16  0.00   
      8   H                0.43 -0.25  0.00   -0.25  0.14 -0.00    0.38 -0.22 -0.00   
      9   H               -0.01 -0.01 -0.00    0.00  0.57  0.00    0.00  0.43 -0.00   
     10   H               -0.01 -0.01  0.00    0.00  0.57 -0.00   -0.00 -0.43 -0.00   
     11   H                0.43 -0.25  0.00   -0.25  0.14 -0.00   -0.38  0.22 -0.00   
     12   H                0.43  0.25 -0.00    0.26  0.14  0.00   -0.29 -0.16 -0.00   

  ==> Thermochemistry Components <==

  Entropy, S
    Electronic S            0.000 [cal/(mol K)]        0.000 [J/(mol K)]       0.00000000 [mEh/K] (multiplicity = 1)
    Translational S        38.979 [cal/(mol K)]      163.089 [J/(mol K)]       0.06211726 [mEh/K] (mol. weight = 78.0470 [u], P = 101325.00 [Pa])
    Rotational S           24.318 [cal/(mol K)]      101.746 [J/(mol K)]       0.03875307 [mEh/K] (symmetry no. = 2)
    Vibrational S           4.215 [cal/(mol K)]       17.634 [J/(mol K)]       0.00671646 [mEh/K]
  Total S                  67.512 [cal/(mol K)]      282.469 [J/(mol K)]       0.10758679 [mEh/K]
  Correction S              0.000 [cal/(mol K)]        0.000 [J/(mol K)]       0.00000000 [mEh/K]

  Constant volume heat capacity, Cv
    Electronic Cv           0.000 [cal/(mol K)]        0.000 [J/(mol K)]       0.00000000 [mEh/K]
    Translational Cv        2.981 [cal/(mol K)]       12.472 [J/(mol K)]       0.00475022 [mEh/K]
    Rotational Cv           2.981 [cal/(mol K)]       12.472 [J/(mol K)]       0.00475022 [mEh/K]
    Vibrational Cv         10.964 [cal/(mol K)]       45.874 [J/(mol K)]       0.01747248 [mEh/K]
  Total Cv                 16.926 [cal/(mol K)]       70.817 [J/(mol K)]       0.02697291 [mEh/K]
  Correction Cv             0.000 [cal/(mol K)]        0.000 [J/(mol K)]       0.00000000 [mEh/K]

  Constant pressure heat capacity, Cp
    Electronic Cp           0.000 [cal/(mol K)]        0.000 [J/(mol K)]       0.00000000 [mEh/K]
    Translational Cp        4.968 [cal/(mol K)]       20.786 [J/(mol K)]       0.00791703 [mEh/K]
    Rotational Cp           2.981 [cal/(mol K)]       12.472 [J/(mol K)]       0.00475022 [mEh/K]
    Vibrational Cp         10.964 [cal/(mol K)]       45.874 [J/(mol K)]       0.01747248 [mEh/K]
  Total Cp                 18.913 [cal/(mol K)]       79.132 [J/(mol K)]       0.03013972 [mEh/K]
  Correction Cp             0.000 [cal/(mol K)]        0.000 [J/(mol K)]       0.00000000 [mEh/K]

  ==> Thermochemistry Energy Analysis <==

  Raw electronic energy, E0
  Total E0, Electronic energy at well bottom at 0 [K]                 -232.15102793 [Eh]

  Zero-point energy, ZPE_vib = Sum_i nu_i / 2
    Electronic ZPE          0.000 [kcal/mol]        0.000 [kJ/mol]       0.00000000 [Eh]
    Translational ZPE       0.000 [kcal/mol]        0.000 [kJ/mol]       0.00000000 [Eh]
    Rotational ZPE          0.000 [kcal/mol]        0.000 [kJ/mol]       0.00000000 [Eh]
    Vibrational ZPE        62.800 [kcal/mol]      262.754 [kJ/mol]       0.10007759 [Eh]       21964.491 [cm^-1]
  Correction ZPE           62.800 [kcal/mol]      262.754 [kJ/mol]       0.10007759 [Eh]       21964.491 [cm^-1]
  Total ZPE, Electronic energy at 0 [K]                               -232.05095034 [Eh]

  Thermal Energy, E (includes ZPE)
    Electronic E            0.000 [kcal/mol]        0.000 [kJ/mol]       0.00000000 [Eh]
    Translational E         0.889 [kcal/mol]        3.718 [kJ/mol]       0.00141628 [Eh]
    Rotational E            0.889 [kcal/mol]        3.718 [kJ/mol]       0.00141628 [Eh]
    Vibrational E          63.743 [kcal/mol]      266.702 [kJ/mol]       0.10158133 [Eh]
  Correction E             65.521 [kcal/mol]      274.139 [kJ/mol]       0.10441389 [Eh]
  Total E, Electronic energy at  298.15 [K]                           -232.04661404 [Eh]

  Enthalpy, H_trans = E_trans + k_B * T
    Electronic H            0.000 [kcal/mol]        0.000 [kJ/mol]       0.00000000 [Eh]
    Translational H         1.481 [kcal/mol]        6.197 [kJ/mol]       0.00236046 [Eh]
    Rotational H            0.889 [kcal/mol]        3.718 [kJ/mol]       0.00141628 [Eh]
    Vibrational H          63.743 [kcal/mol]      266.702 [kJ/mol]       0.10158133 [Eh]
  Correction H             66.113 [kcal/mol]      276.618 [kJ/mol]       0.10535807 [Eh]
  Total H, Enthalpy at  298.15 [K]                                    -232.04566986 [Eh]

  Gibbs free energy, G = H - T * S
    Electronic G            0.000 [kcal/mol]        0.000 [kJ/mol]       0.00000000 [Eh]
    Translational G       -10.140 [kcal/mol]      -42.428 [kJ/mol]      -0.01615980 [Eh]
    Rotational G           -6.362 [kcal/mol]      -26.617 [kJ/mol]      -0.01013795 [Eh]
    Vibrational G          62.487 [kcal/mol]      261.444 [kJ/mol]       0.09957882 [Eh]
  Correction G             45.985 [kcal/mol]      192.399 [kJ/mol]       0.07328107 [Eh]
  Total G, Free enthalpy at  298.15 [K]                               -232.07774686 [Eh]

    Psi4 stopped on: Wednesday, 20 April 2022 02:58AM
    Psi4 wall time for execution: 0:24:42.61

*** Psi4 exiting successfully. Buy a developer a beer!
