
    -----------------------------------------------------------------------
          Psi4: An Open-Source Ab Initio Electronic Structure Package
                               Psi4 1.3.2 release

                         Git: Rev {HEAD} ecbda83 


    R. M. Parrish, L. A. Burns, D. G. A. Smith, A. C. Simmonett,
    A. E. DePrince III, E. G. Hohenstein, U. Bozkaya, A. Yu. Sokolov,
    R. Di Remigio, R. M. Richard, J. F. Gonthier, A. M. James,
    H. R. McAlexander, A. Kumar, M. Saitow, X. Wang, B. P. Pritchard,
    P. Verma, H. F. Schaefer III, K. Patkowski, R. A. King, E. F. Valeev,
    F. A. Evangelista, J. M. Turney, T. D. Crawford, and C. D. Sherrill,
    J. Chem. Theory Comput. 13(7) pp 3185--3197 (2017).
    (doi: 10.1021/acs.jctc.7b00174)


                         Additional Contributions by
    P. Kraus, H. Kruse, M. H. Lechner, M. C. Schieber, R. A. Shaw,
    A. Alenaizan, R. Galvelis, Z. L. Glick, S. Lehtola, and J. P. Misiewicz

    -----------------------------------------------------------------------


    Psi4 started on: Tuesday, 19 April 2022 02:03AM

    Process ID: 25980
    Host:       atlantis
    PSIDATADIR: /home/akrom/software/anaconda3/envs/ffpenv/share/psi4
    Memory:     500.0 MiB
    Threads:    1
    
  ==> Input File <==

--------------------------------------------------------------------------
set basis  aug-cc-pVTZ
molecule {
0 1
   C       -0.61446        0.00000        0.00000
   C        0.61446        0.00000        0.00000
   H       -1.68923        0.00000        0.00000
   H        1.68923        0.00000        0.00000
}
energy('B3LYP')
frequencies('B3LYP')
--------------------------------------------------------------------------

*** tstart() called on atlantis
*** at Tue Apr 19 02:03:15 2022

   => Loading Basis Set <=

    Name: AUG-CC-PVTZ
    Role: ORBITAL
    Keyword: BASIS
    atoms 1-2 entry C          line   235 file /home/akrom/software/anaconda3/envs/ffpenv/share/psi4/basis/aug-cc-pvtz.gbs 
    atoms 3-4 entry H          line    36 file /home/akrom/software/anaconda3/envs/ffpenv/share/psi4/basis/aug-cc-pvtz.gbs 


         ---------------------------------------------------------
                                   SCF
               by Justin Turney, Rob Parrish, Andy Simmonett
                          and Daniel G. A. Smith
                              RKS Reference
                        1 Threads,    500 MiB Core
         ---------------------------------------------------------

  ==> Geometry <==

    Molecular point group: d2h
    Full point group: D_inf_h

    Geometry (in Angstrom), charge = 0, multiplicity = 1:

       Center              X                  Y                   Z               Mass       
    ------------   -----------------  -----------------  -----------------  -----------------
         C           -0.614460000000    -0.000000000000     0.000000000000    12.000000000000
         C            0.614460000000     0.000000000000     0.000000000000    12.000000000000
         H           -1.689230000000    -0.000000000000     0.000000000000     1.007825032230
         H            1.689230000000     0.000000000000     0.000000000000     1.007825032230

  Running in d2h symmetry.

  Rotational constants: A = ************  B =      1.13802  C =      1.13802 [cm^-1]
  Rotational constants: A = ************  B =  34116.98697  C =  34116.98697 [MHz]
  Nuclear repulsion =   24.323218171379235

  Charge       = 0
  Multiplicity = 1
  Electrons    = 14
  Nalpha       = 7
  Nbeta        = 7

  ==> Algorithm <==

  SCF Algorithm Type is DF.
  DIIS enabled.
  MOM disabled.
  Fractional occupation disabled.
  Guess Type is SAD.
  Energy threshold   = 1.00e-06
  Density threshold  = 1.00e-06
  Integral threshold = 0.00e+00

  ==> Primary Basis <==

  Basis Set: AUG-CC-PVTZ
    Blend: AUG-CC-PVTZ
    Number of shells: 46
    Number of basis function: 138
    Number of Cartesian functions: 160
    Spherical Harmonics?: true
    Max angular momentum: 3

  ==> DFT Potential <==

   => Composite Functional: B3LYP <= 

    B3LYP Hyb-GGA Exchange-Correlation Functional

    P. J. Stephens, F. J. Devlin, C. F. Chabalowski, and M. J. Frisch, J. Phys. Chem. 98, 11623 (1994)

    Deriv               =              1
    GGA                 =           TRUE
    Meta                =          FALSE

    Exchange Hybrid     =           TRUE
    MP2 Hybrid          =          FALSE

   => Exchange Functionals <=

    0.0800   Slater exchange
    0.7200         Becke 88

   => Exact (HF) Exchange <=

    0.2000               HF 

   => Correlation Functionals <=

    0.1900   Vosko, Wilk & Nusair (VWN5_RPA)
    0.8100   Lee, Yang & Parr

   => Molecular Quadrature <=

    Radial Scheme          =       TREUTLER
    Pruning Scheme         =           FLAT
    Nuclear Scheme         =       TREUTLER

    BS radius alpha        =              1
    Pruning alpha          =              1
    Radial Points          =             75
    Spherical Points       =            302
    Total Points           =          90600
    Total Blocks           =            752
    Max Points             =            256
    Max Functions          =            138

   => Loading Basis Set <=

    Name: (AUG-CC-PVTZ AUX)
    Role: JKFIT
    Keyword: DF_BASIS_SCF
    atoms 1-2 entry C          line   162 file /home/akrom/software/anaconda3/envs/ffpenv/share/psi4/basis/aug-cc-pvtz-jkfit.gbs 
    atoms 3-4 entry H          line    70 file /home/akrom/software/anaconda3/envs/ffpenv/share/psi4/basis/aug-cc-pvtz-jkfit.gbs 

  ==> Pre-Iterations <==

   -------------------------------------------------------
    Irrep   Nso     Nmo     Nalpha   Nbeta   Ndocc  Nsocc
   -------------------------------------------------------
     Ag        30      30       0       0       0       0
     B1g       16      16       0       0       0       0
     B2g       16      16       0       0       0       0
     B3g        7       7       0       0       0       0
     Au         7       7       0       0       0       0
     B1u       16      16       0       0       0       0
     B2u       16      16       0       0       0       0
     B3u       30      30       0       0       0       0
   -------------------------------------------------------
    Total     138     138       7       7       7       0
   -------------------------------------------------------

  ==> Integral Setup <==

  DFHelper Memory: AOs need 0.047 GiB; user supplied 0.047 GiB. Using in-core AOs.

  ==> MemDFJK: Density-Fitted J/K Matrices <==

    J tasked:                   Yes
    K tasked:                   Yes
    wK tasked:                   No
    OpenMP threads:               1
    Memory [MiB]:                48
    Algorithm:                 Core
    Schwarz Cutoff:           1E-12
    Mask sparsity (%):       0.0420
    Fitting Condition:        1E-10

   => Auxiliary Basis Set <=

  Basis Set: (AUG-CC-PVTZ AUX)
    Blend: AUG-CC-PVTZ-JKFIT
    Number of shells: 88
    Number of basis function: 300
    Number of Cartesian functions: 372
    Spherical Harmonics?: true
    Max angular momentum: 4

  Cached 100.0% of DFT collocation blocks in 0.338 [GiB].

  Minimum eigenvalue in the overlap matrix is 9.1550632594E-06.
  Using Symmetric Orthogonalization.

  SCF Guess: Superposition of Atomic Densities via on-the-fly atomic UHF.

  ==> Iterations <==

                           Total Energy        Delta E     RMS |[F,P]|

   @DF-RKS iter SAD:   -76.66566922559993   -7.66657e+01   0.00000e+00 
   @DF-RKS iter   1:   -77.14646331363895   -4.80794e-01   1.19163e-02 DIIS
   @DF-RKS iter   2:   -77.06810942640529    7.83539e-02   1.31203e-02 DIIS
   @DF-RKS iter   3:   -77.36128422522134   -2.93175e-01   7.59548e-04 DIIS
   @DF-RKS iter   4:   -77.36233852140151   -1.05430e-03   5.41771e-05 DIIS
   @DF-RKS iter   5:   -77.36234355941720   -5.03802e-06   8.16498e-06 DIIS
   @DF-RKS iter   6:   -77.36234364599747   -8.65803e-08   8.99697e-07 DIIS
  Energy and wave function converged.


  ==> Post-Iterations <==

    Orbital Energies [Eh]
    ---------------------

    Doubly Occupied:                                                      

       1Ag   -10.196085     1B3u  -10.194063     2Ag    -0.754558  
       2B3u   -0.574886     3Ag    -0.502209     1B1u   -0.297175  
       1B2u   -0.297175  

    Virtual:                                                              

       4Ag    -0.001206     1B1g    0.003839     1B2g    0.003839  
       3B3u    0.006203     2B1u    0.049587     2B2u    0.049587  
       5Ag     0.055537     4B3u    0.065316     6Ag     0.093822  
       2B1g    0.094315     2B2g    0.094315     5B3u    0.139476  
       7Ag     0.183335     6B3u    0.199553     8Ag     0.203226  
       1B3g    0.203226     3B2u    0.207436     3B1u    0.207436  
       3B1g    0.293056     3B2g    0.293056     9Ag     0.306772  
       7B3u    0.307886     8B3u    0.312568     1Au     0.312568  
      10Ag     0.334977     4B1g    0.345966     4B2g    0.345966  
       4B1u    0.370582     4B2u    0.370582     9B3u    0.438494  
       5B2u    0.489370     5B1u    0.489370    10B3u    0.499474  
      11Ag     0.514520     5B1g    0.696468     5B2g    0.696468  
      11B3u    0.743096    12Ag     0.747154    13Ag     0.748715  
       2B3g    0.748715     6B1u    0.797264     6B2u    0.797264  
      14Ag     0.834745     3B3g    0.834745    15Ag     0.840529  
       7B1u    0.882668     7B2u    0.882668    12B3u    0.883974  
       2Au     0.883974     6B1g    0.885814     6B2g    0.885814  
      13B3u    0.908621    16Ag     0.994831     8B2u    1.003420  
       8B1u    1.003420    14B3u    1.031104     3Au     1.031104  
      15B3u    1.055408    16B3u    1.106726     7B1g    1.129346  
       7B2g    1.129346     8B1g    1.213855     8B2g    1.213855  
       9B2u    1.379075     9B1u    1.379075     4B3g    1.446676  
      17Ag     1.446676     9B1g    1.557816     9B2g    1.557816  
      18Ag     1.577319    10B2u    1.680103    10B1u    1.680103  
      17B3u    1.735721    19Ag     1.805552     4Au     1.815305  
      18B3u    1.815305    19B3u    1.900504    20Ag     1.971074  
      10B1g    2.123082    10B2g    2.123082    11B1u    2.471560  
      11B2u    2.471560    20B3u    2.527751    21Ag     2.686281  
      21B3u    2.824809     5B3g    2.855589    22Ag     2.855589  
      11B1g    2.871311    11B2g    2.871311    12B2u    2.991163  
      12B1u    2.991163    13B2u    3.066047    13B1u    3.066047  
      22B3u    3.135928     5Au     3.135929    23Ag     3.237102  
      24Ag     3.251082     6B3g    3.251083    12B1g    3.378840  
      12B2g    3.378840    25Ag     3.396421    14B2u    3.438149  
      14B1u    3.438149    13B1g    3.495256    13B2g    3.495256  
      23B3u    3.507178    24B3u    3.763306     6Au     3.763306  
      26Ag     3.840261     7B3g    3.840261    25B3u    3.965952  
      27Ag     4.295271    26B3u    4.306597     7Au     4.306598  
      14B1g    4.395181    14B2g    4.395181    15B2u    4.435292  
      15B1u    4.435292    15B1g    4.672856    15B2g    4.672856  
      27B3u    4.931157    28Ag     4.982783    16B2u    5.403743  
      16B1u    5.403743    28B3u    5.750060    29B3u    6.298289  
      16B1g    6.349251    16B2g    6.349251    29Ag     6.416344  
      30Ag    12.760867    30B3u   18.012530  

    Final Occupation by Irrep:
             Ag   B1g   B2g   B3g    Au   B1u   B2u   B3u 
    DOCC [     3,    0,    0,    0,    0,    1,    1,    2 ]

  @DF-RKS Final Energy:   -77.36234364599747

   => Energetics <=

    Nuclear Repulsion Energy =             24.3232181713792350
    One-Electron Energy =                -151.0566524940612680
    Two-Electron Energy =                  58.6490121854112090
    DFT Exchange-Correlation Energy =      -9.2779215087266689
    Empirical Dispersion Energy =           0.0000000000000000
    VV10 Nonlocal Energy =                  0.0000000000000000
    Total Energy =                        -77.3623436459974840

Computation Completed


Properties will be evaluated at   0.000000,   0.000000,   0.000000 [a0]

Properties computed using the SCF density matrix

  Nuclear Dipole Moment: [e a0]
     X:     0.0000      Y:     0.0000      Z:     0.0000

  Electronic Dipole Moment: [e a0]
     X:     0.0000      Y:     0.0000      Z:     0.0000

  Dipole Moment: [e a0]
     X:     0.0000      Y:     0.0000      Z:     0.0000     Total:     0.0000

  Dipole Moment: [D]
     X:     0.0000      Y:     0.0000      Z:     0.0000     Total:     0.0000


*** tstop() called on atlantis at Tue Apr 19 02:03:18 2022
Module time:
	user time   =       3.06 seconds =       0.05 minutes
	system time =       0.12 seconds =       0.00 minutes
	total time  =          3 seconds =       0.05 minutes
Total time:
	user time   =       3.06 seconds =       0.05 minutes
	system time =       0.12 seconds =       0.00 minutes
	total time  =          3 seconds =       0.05 minutes
gradient() will perform analytic gradient computation.

*** tstart() called on atlantis
*** at Tue Apr 19 02:03:18 2022

   => Loading Basis Set <=

    Name: AUG-CC-PVTZ
    Role: ORBITAL
    Keyword: BASIS
    atoms 1-2 entry C          line   235 file /home/akrom/software/anaconda3/envs/ffpenv/share/psi4/basis/aug-cc-pvtz.gbs 
    atoms 3-4 entry H          line    36 file /home/akrom/software/anaconda3/envs/ffpenv/share/psi4/basis/aug-cc-pvtz.gbs 


         ---------------------------------------------------------
                                   SCF
               by Justin Turney, Rob Parrish, Andy Simmonett
                          and Daniel G. A. Smith
                              RKS Reference
                        1 Threads,    500 MiB Core
         ---------------------------------------------------------

  ==> Geometry <==

    Molecular point group: d2h
    Full point group: D_inf_h

    Geometry (in Angstrom), charge = 0, multiplicity = 1:

       Center              X                  Y                   Z               Mass       
    ------------   -----------------  -----------------  -----------------  -----------------
         C           -0.614460000000    -0.000000000000     0.000000000000    12.000000000000
         C            0.614460000000     0.000000000000     0.000000000000    12.000000000000
         H           -1.689230000000    -0.000000000000     0.000000000000     1.007825032230
         H            1.689230000000     0.000000000000     0.000000000000     1.007825032230

  Running in d2h symmetry.

  Rotational constants: A = ************  B =      1.13802  C =      1.13802 [cm^-1]
  Rotational constants: A = ************  B =  34116.98697  C =  34116.98697 [MHz]
  Nuclear repulsion =   24.323218171379235

  Charge       = 0
  Multiplicity = 1
  Electrons    = 14
  Nalpha       = 7
  Nbeta        = 7

  ==> Algorithm <==

  SCF Algorithm Type is DF.
  DIIS enabled.
  MOM disabled.
  Fractional occupation disabled.
  Guess Type is SAD.
  Energy threshold   = 1.00e-08
  Density threshold  = 1.00e-08
  Integral threshold = 0.00e+00

  ==> Primary Basis <==

  Basis Set: AUG-CC-PVTZ
    Blend: AUG-CC-PVTZ
    Number of shells: 46
    Number of basis function: 138
    Number of Cartesian functions: 160
    Spherical Harmonics?: true
    Max angular momentum: 3

  ==> DFT Potential <==

   => Composite Functional: B3LYP <= 

    B3LYP Hyb-GGA Exchange-Correlation Functional

    P. J. Stephens, F. J. Devlin, C. F. Chabalowski, and M. J. Frisch, J. Phys. Chem. 98, 11623 (1994)

    Deriv               =              1
    GGA                 =           TRUE
    Meta                =          FALSE

    Exchange Hybrid     =           TRUE
    MP2 Hybrid          =          FALSE

   => Exchange Functionals <=

    0.0800   Slater exchange
    0.7200         Becke 88

   => Exact (HF) Exchange <=

    0.2000               HF 

   => Correlation Functionals <=

    0.1900   Vosko, Wilk & Nusair (VWN5_RPA)
    0.8100   Lee, Yang & Parr

   => Molecular Quadrature <=

    Radial Scheme          =       TREUTLER
    Pruning Scheme         =           FLAT
    Nuclear Scheme         =       TREUTLER

    BS radius alpha        =              1
    Pruning alpha          =              1
    Radial Points          =             75
    Spherical Points       =            302
    Total Points           =          90600
    Total Blocks           =            752
    Max Points             =            256
    Max Functions          =            138

   => Loading Basis Set <=

    Name: (AUG-CC-PVTZ AUX)
    Role: JKFIT
    Keyword: DF_BASIS_SCF
    atoms 1-2 entry C          line   162 file /home/akrom/software/anaconda3/envs/ffpenv/share/psi4/basis/aug-cc-pvtz-jkfit.gbs 
    atoms 3-4 entry H          line    70 file /home/akrom/software/anaconda3/envs/ffpenv/share/psi4/basis/aug-cc-pvtz-jkfit.gbs 

  ==> Pre-Iterations <==

   -------------------------------------------------------
    Irrep   Nso     Nmo     Nalpha   Nbeta   Ndocc  Nsocc
   -------------------------------------------------------
     Ag        30      30       0       0       0       0
     B1g       16      16       0       0       0       0
     B2g       16      16       0       0       0       0
     B3g        7       7       0       0       0       0
     Au         7       7       0       0       0       0
     B1u       16      16       0       0       0       0
     B2u       16      16       0       0       0       0
     B3u       30      30       0       0       0       0
   -------------------------------------------------------
    Total     138     138       7       7       7       0
   -------------------------------------------------------

  ==> Integral Setup <==

  DFHelper Memory: AOs need 0.047 GiB; user supplied 0.047 GiB. Using in-core AOs.

  ==> MemDFJK: Density-Fitted J/K Matrices <==

    J tasked:                   Yes
    K tasked:                   Yes
    wK tasked:                   No
    OpenMP threads:               1
    Memory [MiB]:                48
    Algorithm:                 Core
    Schwarz Cutoff:           1E-12
    Mask sparsity (%):       0.0420
    Fitting Condition:        1E-10

   => Auxiliary Basis Set <=

  Basis Set: (AUG-CC-PVTZ AUX)
    Blend: AUG-CC-PVTZ-JKFIT
    Number of shells: 88
    Number of basis function: 300
    Number of Cartesian functions: 372
    Spherical Harmonics?: true
    Max angular momentum: 4

  Cached 100.0% of DFT collocation blocks in 0.338 [GiB].

  Minimum eigenvalue in the overlap matrix is 9.1550632594E-06.
  Using Symmetric Orthogonalization.

  SCF Guess: Superposition of Atomic Densities via on-the-fly atomic UHF.

  ==> Iterations <==

                           Total Energy        Delta E     RMS |[F,P]|

   @DF-RKS iter SAD:   -76.66566922559993   -7.66657e+01   0.00000e+00 
   @DF-RKS iter   1:   -77.14646331363895   -4.80794e-01   1.19163e-02 DIIS
   @DF-RKS iter   2:   -77.06810942640529    7.83539e-02   1.31203e-02 DIIS
   @DF-RKS iter   3:   -77.36128422522134   -2.93175e-01   7.59548e-04 DIIS
   @DF-RKS iter   4:   -77.36233852140151   -1.05430e-03   5.41771e-05 DIIS
   @DF-RKS iter   5:   -77.36234355941720   -5.03802e-06   8.16498e-06 DIIS
   @DF-RKS iter   6:   -77.36234364599747   -8.65803e-08   8.99697e-07 DIIS
   @DF-RKS iter   7:   -77.36234364723360   -1.23613e-09   8.35010e-08 DIIS
   @DF-RKS iter   8:   -77.36234364724166   -8.05755e-12   6.63163e-09 DIIS
  Energy and wave function converged.


  ==> Post-Iterations <==

    Orbital Energies [Eh]
    ---------------------

    Doubly Occupied:                                                      

       1Ag   -10.196084     1B3u  -10.194062     2Ag    -0.754555  
       2B3u   -0.574885     3Ag    -0.502207     1B1u   -0.297174  
       1B2u   -0.297174  

    Virtual:                                                              

       4Ag    -0.001205     1B1g    0.003840     1B2g    0.003840  
       3B3u    0.006204     2B1u    0.049588     2B2u    0.049588  
       5Ag     0.055538     4B3u    0.065317     6Ag     0.093823  
       2B1g    0.094316     2B2g    0.094316     5B3u    0.139477  
       7Ag     0.183336     6B3u    0.199553     8Ag     0.203227  
       1B3g    0.203227     3B2u    0.207436     3B1u    0.207436  
       3B1g    0.293057     3B2g    0.293057     9Ag     0.306773  
       7B3u    0.307887     8B3u    0.312568     1Au     0.312568  
      10Ag     0.334978     4B1g    0.345967     4B2g    0.345967  
       4B1u    0.370583     4B2u    0.370583     9B3u    0.438495  
       5B2u    0.489371     5B1u    0.489371    10B3u    0.499474  
      11Ag     0.514521     5B1g    0.696469     5B2g    0.696469  
      11B3u    0.743098    12Ag     0.747155    13Ag     0.748716  
       2B3g    0.748716     6B1u    0.797265     6B2u    0.797265  
      14Ag     0.834746     3B3g    0.834746    15Ag     0.840530  
       7B1u    0.882669     7B2u    0.882669    12B3u    0.883975  
       2Au     0.883975     6B1g    0.885815     6B2g    0.885815  
      13B3u    0.908622    16Ag     0.994832     8B2u    1.003421  
       8B1u    1.003421    14B3u    1.031105     3Au     1.031105  
      15B3u    1.055408    16B3u    1.106728     7B1g    1.129346  
       7B2g    1.129346     8B1g    1.213856     8B2g    1.213856  
       9B2u    1.379076     9B1u    1.379076     4B3g    1.446677  
      17Ag     1.446677     9B1g    1.557817     9B2g    1.557817  
      18Ag     1.577320    10B2u    1.680105    10B1u    1.680105  
      17B3u    1.735722    19Ag     1.805553     4Au     1.815306  
      18B3u    1.815306    19B3u    1.900506    20Ag     1.971076  
      10B1g    2.123083    10B2g    2.123083    11B1u    2.471561  
      11B2u    2.471561    20B3u    2.527753    21Ag     2.686283  
      21B3u    2.824810     5B3g    2.855591    22Ag     2.855591  
      11B1g    2.871312    11B2g    2.871312    12B2u    2.991165  
      12B1u    2.991165    13B2u    3.066048    13B1u    3.066048  
      22B3u    3.135929     5Au     3.135930    23Ag     3.237104  
      24Ag     3.251084     6B3g    3.251084    12B1g    3.378841  
      12B2g    3.378841    25Ag     3.396422    14B2u    3.438151  
      14B1u    3.438151    13B1g    3.495258    13B2g    3.495258  
      23B3u    3.507180    24B3u    3.763307     6Au     3.763307  
      26Ag     3.840262     7B3g    3.840263    25B3u    3.965953  
      27Ag     4.295273    26B3u    4.306599     7Au     4.306599  
      14B1g    4.395183    14B2g    4.395183    15B2u    4.435293  
      15B1u    4.435293    15B1g    4.672858    15B2g    4.672858  
      27B3u    4.931159    28Ag     4.982785    16B2u    5.403745  
      16B1u    5.403745    28B3u    5.750062    29B3u    6.298291  
      16B1g    6.349253    16B2g    6.349253    29Ag     6.416346  
      30Ag    12.760868    30B3u   18.012531  

    Final Occupation by Irrep:
             Ag   B1g   B2g   B3g    Au   B1u   B2u   B3u 
    DOCC [     3,    0,    0,    0,    0,    1,    1,    2 ]

  @DF-RKS Final Energy:   -77.36234364724166

   => Energetics <=

    Nuclear Repulsion Energy =             24.3232181713792350
    One-Electron Energy =                -151.0564270240785731
    Two-Electron Energy =                  58.6487665802079974
    DFT Exchange-Correlation Energy =      -9.2779013747503196
    Empirical Dispersion Energy =           0.0000000000000000
    VV10 Nonlocal Energy =                  0.0000000000000000
    Total Energy =                        -77.3623436472416586

Computation Completed


Properties will be evaluated at   0.000000,   0.000000,   0.000000 [a0]

Properties computed using the SCF density matrix

  Nuclear Dipole Moment: [e a0]
     X:     0.0000      Y:     0.0000      Z:     0.0000

  Electronic Dipole Moment: [e a0]
     X:     0.0000      Y:     0.0000      Z:     0.0000

  Dipole Moment: [e a0]
     X:     0.0000      Y:     0.0000      Z:     0.0000     Total:     0.0000

  Dipole Moment: [D]
     X:     0.0000      Y:     0.0000      Z:     0.0000     Total:     0.0000


*** tstop() called on atlantis at Tue Apr 19 02:03:21 2022
Module time:
	user time   =       3.72 seconds =       0.06 minutes
	system time =       0.04 seconds =       0.00 minutes
	total time  =          3 seconds =       0.05 minutes
Total time:
	user time   =       6.78 seconds =       0.11 minutes
	system time =       0.16 seconds =       0.00 minutes
	total time  =          6 seconds =       0.10 minutes

*** tstart() called on atlantis
*** at Tue Apr 19 02:03:21 2022


         ------------------------------------------------------------
                                   SCF GRAD                          
                          Rob Parrish, Justin Turney,                
                       Andy Simmonett, and Alex Sokolov              
         ------------------------------------------------------------

  ==> Geometry <==

    Molecular point group: d2h
    Full point group: D_inf_h

    Geometry (in Angstrom), charge = 0, multiplicity = 1:

       Center              X                  Y                   Z               Mass       
    ------------   -----------------  -----------------  -----------------  -----------------
         C           -0.614460000000    -0.000000000000     0.000000000000    12.000000000000
         C            0.614460000000     0.000000000000     0.000000000000    12.000000000000
         H           -1.689230000000    -0.000000000000     0.000000000000     1.007825032230
         H            1.689230000000     0.000000000000     0.000000000000     1.007825032230

  Nuclear repulsion =   24.323218171379235

  ==> Basis Set <==

  Basis Set: AUG-CC-PVTZ
    Blend: AUG-CC-PVTZ
    Number of shells: 46
    Number of basis function: 138
    Number of Cartesian functions: 160
    Spherical Harmonics?: true
    Max angular momentum: 3

  ==> DFJKGrad: Density-Fitted SCF Gradients <==

    Gradient:                    1
    J tasked:                  Yes
    K tasked:                  Yes
    wK tasked:                  No
    OpenMP threads:              1
    Integrals threads:           1
    Memory [MiB]:              375
    Schwarz Cutoff:          0E+00
    Fitting Condition:       1E-10

   => Auxiliary Basis Set <=

  Basis Set: (AUG-CC-PVTZ AUX)
    Blend: AUG-CC-PVTZ-JKFIT
    Number of shells: 88
    Number of basis function: 300
    Number of Cartesian functions: 372
    Spherical Harmonics?: true
    Max angular momentum: 4

  ==> DFT Potential <==

   => Composite Functional: B3LYP <= 

    B3LYP Hyb-GGA Exchange-Correlation Functional

    P. J. Stephens, F. J. Devlin, C. F. Chabalowski, and M. J. Frisch, J. Phys. Chem. 98, 11623 (1994)

    Deriv               =              1
    GGA                 =           TRUE
    Meta                =          FALSE

    Exchange Hybrid     =           TRUE
    MP2 Hybrid          =          FALSE

   => Exchange Functionals <=

    0.0800   Slater exchange
    0.7200         Becke 88

   => Exact (HF) Exchange <=

    0.2000               HF 

   => Correlation Functionals <=

    0.1900   Vosko, Wilk & Nusair (VWN5_RPA)
    0.8100   Lee, Yang & Parr

   => Molecular Quadrature <=

    Radial Scheme          =       TREUTLER
    Pruning Scheme         =           FLAT
    Nuclear Scheme         =       TREUTLER

    BS radius alpha        =              1
    Pruning alpha          =              1
    Radial Points          =             75
    Spherical Points       =            302
    Total Points           =          90600
    Total Blocks           =            752
    Max Points             =            256
    Max Functions          =            138


  -Total Gradient:
     Atom            X                  Y                   Z
    ------   -----------------  -----------------  -----------------
       1       -0.052915189385    -0.000000000000     0.000000000000
       2        0.052915189385     0.000000000000     0.000000000000
       3       -0.009427363162    -0.000000000000     0.000000000000
       4        0.009427363162     0.000000000000     0.000000000000


*** tstop() called on atlantis at Tue Apr 19 02:03:23 2022
Module time:
	user time   =       1.46 seconds =       0.02 minutes
	system time =       0.00 seconds =       0.00 minutes
	total time  =          2 seconds =       0.03 minutes
Total time:
	user time   =       8.24 seconds =       0.14 minutes
	system time =       0.16 seconds =       0.00 minutes
	total time  =          8 seconds =       0.13 minutes

  Based on options and gradient (rms=2.19E-02), recommend projecting translations and not projecting rotations.
hessian() will perform frequency computation by finite difference of analytic gradients.

         ----------------------------------------------------------
                                   FINDIF
                     R. A. King and Jonathon Misiewicz
         ---------------------------------------------------------

  Using finite-differences of gradients to determine vibrational frequencies and 
  normal modes.  Resulting frequencies are only valid at stationary points.
    Generating geometries for use with 3-point formula.
    Displacement size will be 5.00e-03.
    Number of atoms is 4.
    Number of irreps is 8.
    Number of SALCs is 9.
    Translations projected? 1. Rotations projected? 0.
    Index of SALCs per irrep:
     1 :  0  1 
     2 :  2  3 
     3 :  4  5 
     4 : 
     5 : 
     6 :  6 
     7 :  7 
     8 :  8 
    Number of SALCs per irrep:
     Irrep 1: 2
     Irrep 2: 2
     Irrep 3: 2
     Irrep 4: 0
     Irrep 5: 0
     Irrep 6: 1
     Irrep 7: 1
     Irrep 8: 1
    Number of geometries (including reference) is 12.
    Number of displacements per irrep:
      Irrep 1: 4
      Irrep 2: 2
      Irrep 3: 2
      Irrep 4: 0
      Irrep 5: 0
      Irrep 6: 1
      Irrep 7: 1
      Irrep 8: 1

  //>>>>>>>>>>>>>>>>>>>>>>>>>>>>>>>>>>>//
  //    Loading displacement 1 of 12   //
  //<<<<<<<<<<<<<<<<<<<<<<<<<<<<<<<<<<<//
gradient() will perform analytic gradient computation.

*** tstart() called on atlantis
*** at Tue Apr 19 02:03:23 2022

   => Loading Basis Set <=

    Name: AUG-CC-PVTZ
    Role: ORBITAL
    Keyword: BASIS
    atoms 1-2 entry C          line   235 file /home/akrom/software/anaconda3/envs/ffpenv/share/psi4/basis/aug-cc-pvtz.gbs 
    atoms 3-4 entry H          line    36 file /home/akrom/software/anaconda3/envs/ffpenv/share/psi4/basis/aug-cc-pvtz.gbs 


         ---------------------------------------------------------
                                   SCF
               by Justin Turney, Rob Parrish, Andy Simmonett
                          and Daniel G. A. Smith
                              RKS Reference
                        1 Threads,    500 MiB Core
         ---------------------------------------------------------

  ==> Geometry <==

    Molecular point group: d2h
    Full point group: D_inf_h

    Geometry (in Angstrom), charge = 0, multiplicity = 1:

       Center              X                  Y                   Z               Mass       
    ------------   -----------------  -----------------  -----------------  -----------------
         C           -0.614460000000    -0.000000000000     0.000000000000    12.000000000000
         C            0.614460000000     0.000000000000     0.000000000000    12.000000000000
         H           -1.689230000000    -0.000000000000     0.000000000000     1.007825032230
         H            1.689230000000     0.000000000000     0.000000000000     1.007825032230

  Running in d2h symmetry.

  Rotational constants: A = ************  B =      1.13802  C =      1.13802 [cm^-1]
  Rotational constants: A = ************  B =  34116.98697  C =  34116.98697 [MHz]
  Nuclear repulsion =   24.323218171379235

  Charge       = 0
  Multiplicity = 1
  Electrons    = 14
  Nalpha       = 7
  Nbeta        = 7

  ==> Algorithm <==

  SCF Algorithm Type is DF.
  DIIS enabled.
  MOM disabled.
  Fractional occupation disabled.
  Guess Type is SAD.
  Energy threshold   = 1.00e-08
  Density threshold  = 1.00e-08
  Integral threshold = 0.00e+00

  ==> Primary Basis <==

  Basis Set: AUG-CC-PVTZ
    Blend: AUG-CC-PVTZ
    Number of shells: 46
    Number of basis function: 138
    Number of Cartesian functions: 160
    Spherical Harmonics?: true
    Max angular momentum: 3

  ==> DFT Potential <==

   => Composite Functional: B3LYP <= 

    B3LYP Hyb-GGA Exchange-Correlation Functional

    P. J. Stephens, F. J. Devlin, C. F. Chabalowski, and M. J. Frisch, J. Phys. Chem. 98, 11623 (1994)

    Deriv               =              1
    GGA                 =           TRUE
    Meta                =          FALSE

    Exchange Hybrid     =           TRUE
    MP2 Hybrid          =          FALSE

   => Exchange Functionals <=

    0.0800   Slater exchange
    0.7200         Becke 88

   => Exact (HF) Exchange <=

    0.2000               HF 

   => Correlation Functionals <=

    0.1900   Vosko, Wilk & Nusair (VWN5_RPA)
    0.8100   Lee, Yang & Parr

   => Molecular Quadrature <=

    Radial Scheme          =       TREUTLER
    Pruning Scheme         =           FLAT
    Nuclear Scheme         =       TREUTLER

    BS radius alpha        =              1
    Pruning alpha          =              1
    Radial Points          =             75
    Spherical Points       =            302
    Total Points           =          90600
    Total Blocks           =            752
    Max Points             =            256
    Max Functions          =            138

   => Loading Basis Set <=

    Name: (AUG-CC-PVTZ AUX)
    Role: JKFIT
    Keyword: DF_BASIS_SCF
    atoms 1-2 entry C          line   162 file /home/akrom/software/anaconda3/envs/ffpenv/share/psi4/basis/aug-cc-pvtz-jkfit.gbs 
    atoms 3-4 entry H          line    70 file /home/akrom/software/anaconda3/envs/ffpenv/share/psi4/basis/aug-cc-pvtz-jkfit.gbs 

  ==> Pre-Iterations <==

   -------------------------------------------------------
    Irrep   Nso     Nmo     Nalpha   Nbeta   Ndocc  Nsocc
   -------------------------------------------------------
     Ag        30      30       0       0       0       0
     B1g       16      16       0       0       0       0
     B2g       16      16       0       0       0       0
     B3g        7       7       0       0       0       0
     Au         7       7       0       0       0       0
     B1u       16      16       0       0       0       0
     B2u       16      16       0       0       0       0
     B3u       30      30       0       0       0       0
   -------------------------------------------------------
    Total     138     138       7       7       7       0
   -------------------------------------------------------

  ==> Integral Setup <==

  DFHelper Memory: AOs need 0.047 GiB; user supplied 0.047 GiB. Using in-core AOs.

  ==> MemDFJK: Density-Fitted J/K Matrices <==

    J tasked:                   Yes
    K tasked:                   Yes
    wK tasked:                   No
    OpenMP threads:               1
    Memory [MiB]:                48
    Algorithm:                 Core
    Schwarz Cutoff:           1E-12
    Mask sparsity (%):       0.0420
    Fitting Condition:        1E-10

   => Auxiliary Basis Set <=

  Basis Set: (AUG-CC-PVTZ AUX)
    Blend: AUG-CC-PVTZ-JKFIT
    Number of shells: 88
    Number of basis function: 300
    Number of Cartesian functions: 372
    Spherical Harmonics?: true
    Max angular momentum: 4

  Cached 100.0% of DFT collocation blocks in 0.338 [GiB].

  Minimum eigenvalue in the overlap matrix is 9.1550632594E-06.
  Using Symmetric Orthogonalization.

  SCF Guess: Superposition of Atomic Densities via on-the-fly atomic UHF.

  ==> Iterations <==

                           Total Energy        Delta E     RMS |[F,P]|

   @DF-RKS iter SAD:   -76.66566922559993   -7.66657e+01   0.00000e+00 
   @DF-RKS iter   1:   -77.14646331363895   -4.80794e-01   1.19163e-02 DIIS
   @DF-RKS iter   2:   -77.06810942640529    7.83539e-02   1.31203e-02 DIIS
   @DF-RKS iter   3:   -77.36128422522134   -2.93175e-01   7.59548e-04 DIIS
   @DF-RKS iter   4:   -77.36233852140151   -1.05430e-03   5.41771e-05 DIIS
   @DF-RKS iter   5:   -77.36234355941720   -5.03802e-06   8.16498e-06 DIIS
   @DF-RKS iter   6:   -77.36234364599747   -8.65803e-08   8.99697e-07 DIIS
   @DF-RKS iter   7:   -77.36234364723360   -1.23613e-09   8.35010e-08 DIIS
   @DF-RKS iter   8:   -77.36234364724166   -8.05755e-12   6.63163e-09 DIIS
  Energy and wave function converged.


  ==> Post-Iterations <==

    Orbital Energies [Eh]
    ---------------------

    Doubly Occupied:                                                      

       1Ag   -10.196084     1B3u  -10.194062     2Ag    -0.754555  
       2B3u   -0.574885     3Ag    -0.502207     1B1u   -0.297174  
       1B2u   -0.297174  

    Virtual:                                                              

       4Ag    -0.001205     1B1g    0.003840     1B2g    0.003840  
       3B3u    0.006204     2B1u    0.049588     2B2u    0.049588  
       5Ag     0.055538     4B3u    0.065317     6Ag     0.093823  
       2B1g    0.094316     2B2g    0.094316     5B3u    0.139477  
       7Ag     0.183336     6B3u    0.199553     8Ag     0.203227  
       1B3g    0.203227     3B2u    0.207436     3B1u    0.207436  
       3B1g    0.293057     3B2g    0.293057     9Ag     0.306773  
       7B3u    0.307887     8B3u    0.312568     1Au     0.312568  
      10Ag     0.334978     4B1g    0.345967     4B2g    0.345967  
       4B1u    0.370583     4B2u    0.370583     9B3u    0.438495  
       5B2u    0.489371     5B1u    0.489371    10B3u    0.499474  
      11Ag     0.514521     5B1g    0.696469     5B2g    0.696469  
      11B3u    0.743098    12Ag     0.747155    13Ag     0.748716  
       2B3g    0.748716     6B1u    0.797265     6B2u    0.797265  
      14Ag     0.834746     3B3g    0.834746    15Ag     0.840530  
       7B1u    0.882669     7B2u    0.882669    12B3u    0.883975  
       2Au     0.883975     6B1g    0.885815     6B2g    0.885815  
      13B3u    0.908622    16Ag     0.994832     8B2u    1.003421  
       8B1u    1.003421    14B3u    1.031105     3Au     1.031105  
      15B3u    1.055408    16B3u    1.106728     7B1g    1.129346  
       7B2g    1.129346     8B1g    1.213856     8B2g    1.213856  
       9B2u    1.379076     9B1u    1.379076     4B3g    1.446677  
      17Ag     1.446677     9B1g    1.557817     9B2g    1.557817  
      18Ag     1.577320    10B2u    1.680105    10B1u    1.680105  
      17B3u    1.735722    19Ag     1.805553     4Au     1.815306  
      18B3u    1.815306    19B3u    1.900506    20Ag     1.971076  
      10B1g    2.123083    10B2g    2.123083    11B1u    2.471561  
      11B2u    2.471561    20B3u    2.527753    21Ag     2.686283  
      21B3u    2.824810     5B3g    2.855591    22Ag     2.855591  
      11B1g    2.871312    11B2g    2.871312    12B2u    2.991165  
      12B1u    2.991165    13B2u    3.066048    13B1u    3.066048  
      22B3u    3.135929     5Au     3.135930    23Ag     3.237104  
      24Ag     3.251084     6B3g    3.251084    12B1g    3.378841  
      12B2g    3.378841    25Ag     3.396422    14B2u    3.438151  
      14B1u    3.438151    13B1g    3.495258    13B2g    3.495258  
      23B3u    3.507180    24B3u    3.763307     6Au     3.763307  
      26Ag     3.840262     7B3g    3.840263    25B3u    3.965953  
      27Ag     4.295273    26B3u    4.306599     7Au     4.306599  
      14B1g    4.395183    14B2g    4.395183    15B2u    4.435293  
      15B1u    4.435293    15B1g    4.672858    15B2g    4.672858  
      27B3u    4.931159    28Ag     4.982785    16B2u    5.403745  
      16B1u    5.403745    28B3u    5.750062    29B3u    6.298291  
      16B1g    6.349253    16B2g    6.349253    29Ag     6.416346  
      30Ag    12.760868    30B3u   18.012531  

    Final Occupation by Irrep:
             Ag   B1g   B2g   B3g    Au   B1u   B2u   B3u 
    DOCC [     3,    0,    0,    0,    0,    1,    1,    2 ]

  @DF-RKS Final Energy:   -77.36234364724166

   => Energetics <=

    Nuclear Repulsion Energy =             24.3232181713792350
    One-Electron Energy =                -151.0564270240785731
    Two-Electron Energy =                  58.6487665802079974
    DFT Exchange-Correlation Energy =      -9.2779013747503196
    Empirical Dispersion Energy =           0.0000000000000000
    VV10 Nonlocal Energy =                  0.0000000000000000
    Total Energy =                        -77.3623436472416586

Computation Completed


Properties will be evaluated at   0.000000,   0.000000,   0.000000 [a0]

Properties computed using the SCF density matrix

  Nuclear Dipole Moment: [e a0]
     X:     0.0000      Y:     0.0000      Z:     0.0000

  Electronic Dipole Moment: [e a0]
     X:     0.0000      Y:     0.0000      Z:     0.0000

  Dipole Moment: [e a0]
     X:     0.0000      Y:     0.0000      Z:     0.0000     Total:     0.0000

  Dipole Moment: [D]
     X:     0.0000      Y:     0.0000      Z:     0.0000     Total:     0.0000


*** tstop() called on atlantis at Tue Apr 19 02:03:27 2022
Module time:
	user time   =       3.74 seconds =       0.06 minutes
	system time =       0.01 seconds =       0.00 minutes
	total time  =          4 seconds =       0.07 minutes
Total time:
	user time   =      12.27 seconds =       0.20 minutes
	system time =       0.18 seconds =       0.00 minutes
	total time  =         12 seconds =       0.20 minutes

*** tstart() called on atlantis
*** at Tue Apr 19 02:03:27 2022


         ------------------------------------------------------------
                                   SCF GRAD                          
                          Rob Parrish, Justin Turney,                
                       Andy Simmonett, and Alex Sokolov              
         ------------------------------------------------------------

  ==> Geometry <==

    Molecular point group: d2h
    Full point group: D_inf_h

    Geometry (in Angstrom), charge = 0, multiplicity = 1:

       Center              X                  Y                   Z               Mass       
    ------------   -----------------  -----------------  -----------------  -----------------
         C           -0.614460000000    -0.000000000000     0.000000000000    12.000000000000
         C            0.614460000000     0.000000000000     0.000000000000    12.000000000000
         H           -1.689230000000    -0.000000000000     0.000000000000     1.007825032230
         H            1.689230000000     0.000000000000     0.000000000000     1.007825032230

  Nuclear repulsion =   24.323218171379235

  ==> Basis Set <==

  Basis Set: AUG-CC-PVTZ
    Blend: AUG-CC-PVTZ
    Number of shells: 46
    Number of basis function: 138
    Number of Cartesian functions: 160
    Spherical Harmonics?: true
    Max angular momentum: 3

  ==> DFJKGrad: Density-Fitted SCF Gradients <==

    Gradient:                    1
    J tasked:                  Yes
    K tasked:                  Yes
    wK tasked:                  No
    OpenMP threads:              1
    Integrals threads:           1
    Memory [MiB]:              375
    Schwarz Cutoff:          0E+00
    Fitting Condition:       1E-10

   => Auxiliary Basis Set <=

  Basis Set: (AUG-CC-PVTZ AUX)
    Blend: AUG-CC-PVTZ-JKFIT
    Number of shells: 88
    Number of basis function: 300
    Number of Cartesian functions: 372
    Spherical Harmonics?: true
    Max angular momentum: 4

  ==> DFT Potential <==

   => Composite Functional: B3LYP <= 

    B3LYP Hyb-GGA Exchange-Correlation Functional

    P. J. Stephens, F. J. Devlin, C. F. Chabalowski, and M. J. Frisch, J. Phys. Chem. 98, 11623 (1994)

    Deriv               =              1
    GGA                 =           TRUE
    Meta                =          FALSE

    Exchange Hybrid     =           TRUE
    MP2 Hybrid          =          FALSE

   => Exchange Functionals <=

    0.0800   Slater exchange
    0.7200         Becke 88

   => Exact (HF) Exchange <=

    0.2000               HF 

   => Correlation Functionals <=

    0.1900   Vosko, Wilk & Nusair (VWN5_RPA)
    0.8100   Lee, Yang & Parr

   => Molecular Quadrature <=

    Radial Scheme          =       TREUTLER
    Pruning Scheme         =           FLAT
    Nuclear Scheme         =       TREUTLER

    BS radius alpha        =              1
    Pruning alpha          =              1
    Radial Points          =             75
    Spherical Points       =            302
    Total Points           =          90600
    Total Blocks           =            752
    Max Points             =            256
    Max Functions          =            138


  -Total Gradient:
     Atom            X                  Y                   Z
    ------   -----------------  -----------------  -----------------
       1       -0.052915189385    -0.000000000000     0.000000000000
       2        0.052915189385     0.000000000000     0.000000000000
       3       -0.009427363162    -0.000000000000     0.000000000000
       4        0.009427363162     0.000000000000     0.000000000000


*** tstop() called on atlantis at Tue Apr 19 02:03:28 2022
Module time:
	user time   =       1.45 seconds =       0.02 minutes
	system time =       0.01 seconds =       0.00 minutes
	total time  =          1 seconds =       0.02 minutes
Total time:
	user time   =      13.72 seconds =       0.23 minutes
	system time =       0.19 seconds =       0.00 minutes
	total time  =         13 seconds =       0.22 minutes

  //>>>>>>>>>>>>>>>>>>>>>>>>>>>>>>>>>>>//
  //    Loading displacement 2 of 12   //
  //<<<<<<<<<<<<<<<<<<<<<<<<<<<<<<<<<<<//
gradient() will perform analytic gradient computation.

*** tstart() called on atlantis
*** at Tue Apr 19 02:03:28 2022

   => Loading Basis Set <=

    Name: AUG-CC-PVTZ
    Role: ORBITAL
    Keyword: BASIS
    atoms 1-2 entry C          line   235 file /home/akrom/software/anaconda3/envs/ffpenv/share/psi4/basis/aug-cc-pvtz.gbs 
    atoms 3-4 entry H          line    36 file /home/akrom/software/anaconda3/envs/ffpenv/share/psi4/basis/aug-cc-pvtz.gbs 


         ---------------------------------------------------------
                                   SCF
               by Justin Turney, Rob Parrish, Andy Simmonett
                          and Daniel G. A. Smith
                              RKS Reference
                        1 Threads,    500 MiB Core
         ---------------------------------------------------------

  ==> Geometry <==

    Molecular point group: d2h
    Full point group: D_inf_h

    Geometry (in Angstrom), charge = 0, multiplicity = 1:

       Center              X                  Y                   Z               Mass       
    ------------   -----------------  -----------------  -----------------  -----------------
         C           -0.615000089229    -0.000000000000     0.000000000000    12.000000000000
         C            0.615000089229     0.000000000000     0.000000000000    12.000000000000
         H           -1.689230000000    -0.000000000000     0.000000000000     1.007825032230
         H            1.689230000000     0.000000000000     0.000000000000     1.007825032230

  Running in d2h symmetry.

  Rotational constants: A = ************  B =      1.13680  C =      1.13680 [cm^-1]
  Rotational constants: A = ************  B =  34080.32226  C =  34080.32226 [MHz]
  Nuclear repulsion =   24.311929094340595

  Charge       = 0
  Multiplicity = 1
  Electrons    = 14
  Nalpha       = 7
  Nbeta        = 7

  ==> Algorithm <==

  SCF Algorithm Type is DF.
  DIIS enabled.
  MOM disabled.
  Fractional occupation disabled.
  Guess Type is SAD.
  Energy threshold   = 1.00e-08
  Density threshold  = 1.00e-08
  Integral threshold = 0.00e+00

  ==> Primary Basis <==

  Basis Set: AUG-CC-PVTZ
    Blend: AUG-CC-PVTZ
    Number of shells: 46
    Number of basis function: 138
    Number of Cartesian functions: 160
    Spherical Harmonics?: true
    Max angular momentum: 3

  ==> DFT Potential <==

   => Composite Functional: B3LYP <= 

    B3LYP Hyb-GGA Exchange-Correlation Functional

    P. J. Stephens, F. J. Devlin, C. F. Chabalowski, and M. J. Frisch, J. Phys. Chem. 98, 11623 (1994)

    Deriv               =              1
    GGA                 =           TRUE
    Meta                =          FALSE

    Exchange Hybrid     =           TRUE
    MP2 Hybrid          =          FALSE

   => Exchange Functionals <=

    0.0800   Slater exchange
    0.7200         Becke 88

   => Exact (HF) Exchange <=

    0.2000               HF 

   => Correlation Functionals <=

    0.1900   Vosko, Wilk & Nusair (VWN5_RPA)
    0.8100   Lee, Yang & Parr

   => Molecular Quadrature <=

    Radial Scheme          =       TREUTLER
    Pruning Scheme         =           FLAT
    Nuclear Scheme         =       TREUTLER

    BS radius alpha        =              1
    Pruning alpha          =              1
    Radial Points          =             75
    Spherical Points       =            302
    Total Points           =          90600
    Total Blocks           =            752
    Max Points             =            256
    Max Functions          =            138

   => Loading Basis Set <=

    Name: (AUG-CC-PVTZ AUX)
    Role: JKFIT
    Keyword: DF_BASIS_SCF
    atoms 1-2 entry C          line   162 file /home/akrom/software/anaconda3/envs/ffpenv/share/psi4/basis/aug-cc-pvtz-jkfit.gbs 
    atoms 3-4 entry H          line    70 file /home/akrom/software/anaconda3/envs/ffpenv/share/psi4/basis/aug-cc-pvtz-jkfit.gbs 

  ==> Pre-Iterations <==

   -------------------------------------------------------
    Irrep   Nso     Nmo     Nalpha   Nbeta   Ndocc  Nsocc
   -------------------------------------------------------
     Ag        30      30       0       0       0       0
     B1g       16      16       0       0       0       0
     B2g       16      16       0       0       0       0
     B3g        7       7       0       0       0       0
     Au         7       7       0       0       0       0
     B1u       16      16       0       0       0       0
     B2u       16      16       0       0       0       0
     B3u       30      30       0       0       0       0
   -------------------------------------------------------
    Total     138     138       7       7       7       0
   -------------------------------------------------------

  ==> Integral Setup <==

  DFHelper Memory: AOs need 0.047 GiB; user supplied 0.047 GiB. Using in-core AOs.

  ==> MemDFJK: Density-Fitted J/K Matrices <==

    J tasked:                   Yes
    K tasked:                   Yes
    wK tasked:                   No
    OpenMP threads:               1
    Memory [MiB]:                48
    Algorithm:                 Core
    Schwarz Cutoff:           1E-12
    Mask sparsity (%):       0.0420
    Fitting Condition:        1E-10

   => Auxiliary Basis Set <=

  Basis Set: (AUG-CC-PVTZ AUX)
    Blend: AUG-CC-PVTZ-JKFIT
    Number of shells: 88
    Number of basis function: 300
    Number of Cartesian functions: 372
    Spherical Harmonics?: true
    Max angular momentum: 4

  Cached 100.0% of DFT collocation blocks in 0.338 [GiB].

  Minimum eigenvalue in the overlap matrix is 9.1814319619E-06.
  Using Symmetric Orthogonalization.

  SCF Guess: Superposition of Atomic Densities via on-the-fly atomic UHF.

  ==> Iterations <==

                           Total Energy        Delta E     RMS |[F,P]|

   @DF-RKS iter SAD:   -76.66495412349558   -7.66650e+01   0.00000e+00 
   @DF-RKS iter   1:   -77.14701198878205   -4.82058e-01   1.18947e-02 DIIS
   @DF-RKS iter   2:   -77.06946079759908    7.75512e-02   1.30869e-02 DIIS
   @DF-RKS iter   3:   -77.36118187552540   -2.91721e-01   7.56699e-04 DIIS
   @DF-RKS iter   4:   -77.36222815675420   -1.04628e-03   5.42438e-05 DIIS
   @DF-RKS iter   5:   -77.36223319558707   -5.03883e-06   8.18469e-06 DIIS
   @DF-RKS iter   6:   -77.36223328256096   -8.69739e-08   8.92451e-07 DIIS
   @DF-RKS iter   7:   -77.36223328377945   -1.21848e-09   8.30613e-08 DIIS
   @DF-RKS iter   8:   -77.36223328378728   -7.83018e-12   6.58754e-09 DIIS
  Energy and wave function converged.


  ==> Post-Iterations <==

    Orbital Energies [Eh]
    ---------------------

    Doubly Occupied:                                                      

       1Ag   -10.196346     1B3u  -10.194341     2Ag    -0.754390  
       2B3u   -0.575182     3Ag    -0.502331     1B1u   -0.297042  
       1B2u   -0.297042  

    Virtual:                                                              

       4Ag    -0.001220     1B1g    0.003590     1B2g    0.003590  
       3B3u    0.006203     2B1u    0.049594     2B2u    0.049594  
       5Ag     0.055570     4B3u    0.065317     6Ag     0.093798  
       2B1g    0.094231     2B2g    0.094231     5B3u    0.139449  
       7Ag     0.183440     6B3u    0.199488     8Ag     0.203197  
       1B3g    0.203197     3B2u    0.207441     3B1u    0.207441  
       3B1g    0.292993     3B2g    0.292993     9Ag     0.306711  
       7B3u    0.307810     8B3u    0.312537     1Au     0.312537  
      10Ag     0.334998     4B1g    0.345913     4B2g    0.345913  
       4B1u    0.370609     4B2u    0.370609     9B3u    0.438364  
       5B2u    0.489420     5B1u    0.489420    10B3u    0.499356  
      11Ag     0.514641     5B1g    0.696419     5B2g    0.696419  
      11B3u    0.742566    12Ag     0.746972    13Ag     0.748671  
       2B3g    0.748671     6B2u    0.797268     6B1u    0.797268  
      14Ag     0.834743     3B3g    0.834743    15Ag     0.840333  
       7B1u    0.882614     7B2u    0.882614    12B3u    0.883888  
       2Au     0.883888     6B1g    0.885673     6B2g    0.885673  
      13B3u    0.908611    16Ag     0.994902     8B2u    1.003254  
       8B1u    1.003254    14B3u    1.031206     3Au     1.031206  
      15B3u    1.055237    16B3u    1.106177     7B2g    1.129172  
       7B1g    1.129172     8B1g    1.213786     8B2g    1.213786  
       9B2u    1.379632     9B1u    1.379632     4B3g    1.446508  
      17Ag     1.446508     9B1g    1.557737     9B2g    1.557737  
      18Ag     1.576569    10B2u    1.679871    10B1u    1.679871  
      17B3u    1.735661    19Ag     1.806283     4Au     1.815075  
      18B3u    1.815075    19B3u    1.899901    20Ag     1.969565  
      10B2g    2.123153    10B1g    2.123153    11B1u    2.471726  
      11B2u    2.471726    20B3u    2.527266    21Ag     2.686499  
      21B3u    2.823974     5B3g    2.855888    22Ag     2.855888  
      11B1g    2.870685    11B2g    2.870685    12B2u    2.990583  
      12B1u    2.990583    13B1u    3.066297    13B2u    3.066297  
      22B3u    3.135674     5Au     3.135675    23Ag     3.236190  
      24Ag     3.250554     6B3g    3.250555    12B1g    3.378313  
      12B2g    3.378313    25Ag     3.396074    14B2u    3.437548  
      14B1u    3.437548    13B1g    3.495239    13B2g    3.495239  
      23B3u    3.507674    24B3u    3.762698     6Au     3.762698  
      26Ag     3.840430     7B3g    3.840431    25B3u    3.965755  
      27Ag     4.294227    26B3u    4.306159     7Au     4.306160  
      14B1g    4.394488    14B2g    4.394488    15B2u    4.435818  
      15B1u    4.435818    15B1g    4.673002    15B2g    4.673002  
      27B3u    4.932717    28Ag     4.983669    16B2u    5.403823  
      16B1u    5.403823    28B3u    5.751436    29B3u    6.298164  
      16B1g    6.349505    16B2g    6.349505    29Ag     6.414279  
      30Ag    12.772516    30B3u   17.982554  

    Final Occupation by Irrep:
             Ag   B1g   B2g   B3g    Au   B1u   B2u   B3u 
    DOCC [     3,    0,    0,    0,    0,    1,    1,    2 ]

  @DF-RKS Final Energy:   -77.36223328378728

   => Energetics <=

    Nuclear Repulsion Energy =             24.3119290943405950
    One-Electron Energy =                -151.0329012987994588
    Two-Electron Energy =                  58.6361390970865131
    DFT Exchange-Correlation Energy =      -9.2774001764149361
    Empirical Dispersion Energy =           0.0000000000000000
    VV10 Nonlocal Energy =                  0.0000000000000000
    Total Energy =                        -77.3622332837872762

Computation Completed


Properties will be evaluated at   0.000000,   0.000000,   0.000000 [a0]

Properties computed using the SCF density matrix

  Nuclear Dipole Moment: [e a0]
     X:     0.0000      Y:     0.0000      Z:     0.0000

  Electronic Dipole Moment: [e a0]
     X:     0.0000      Y:     0.0000      Z:     0.0000

  Dipole Moment: [e a0]
     X:     0.0000      Y:     0.0000      Z:     0.0000     Total:     0.0000

  Dipole Moment: [D]
     X:     0.0000      Y:     0.0000      Z:     0.0000     Total:     0.0000


*** tstop() called on atlantis at Tue Apr 19 02:03:32 2022
Module time:
	user time   =       3.74 seconds =       0.06 minutes
	system time =       0.00 seconds =       0.00 minutes
	total time  =          4 seconds =       0.07 minutes
Total time:
	user time   =      17.47 seconds =       0.29 minutes
	system time =       0.19 seconds =       0.00 minutes
	total time  =         17 seconds =       0.28 minutes

*** tstart() called on atlantis
*** at Tue Apr 19 02:03:32 2022


         ------------------------------------------------------------
                                   SCF GRAD                          
                          Rob Parrish, Justin Turney,                
                       Andy Simmonett, and Alex Sokolov              
         ------------------------------------------------------------

  ==> Geometry <==

    Molecular point group: d2h
    Full point group: D_inf_h

    Geometry (in Angstrom), charge = 0, multiplicity = 1:

       Center              X                  Y                   Z               Mass       
    ------------   -----------------  -----------------  -----------------  -----------------
         C           -0.615000089229    -0.000000000000     0.000000000000    12.000000000000
         C            0.615000089229     0.000000000000     0.000000000000    12.000000000000
         H           -1.689230000000    -0.000000000000     0.000000000000     1.007825032230
         H            1.689230000000     0.000000000000     0.000000000000     1.007825032230

  Nuclear repulsion =   24.311929094340595

  ==> Basis Set <==

  Basis Set: AUG-CC-PVTZ
    Blend: AUG-CC-PVTZ
    Number of shells: 46
    Number of basis function: 138
    Number of Cartesian functions: 160
    Spherical Harmonics?: true
    Max angular momentum: 3

  ==> DFJKGrad: Density-Fitted SCF Gradients <==

    Gradient:                    1
    J tasked:                  Yes
    K tasked:                  Yes
    wK tasked:                  No
    OpenMP threads:              1
    Integrals threads:           1
    Memory [MiB]:              375
    Schwarz Cutoff:          0E+00
    Fitting Condition:       1E-10

   => Auxiliary Basis Set <=

  Basis Set: (AUG-CC-PVTZ AUX)
    Blend: AUG-CC-PVTZ-JKFIT
    Number of shells: 88
    Number of basis function: 300
    Number of Cartesian functions: 372
    Spherical Harmonics?: true
    Max angular momentum: 4

  ==> DFT Potential <==

   => Composite Functional: B3LYP <= 

    B3LYP Hyb-GGA Exchange-Correlation Functional

    P. J. Stephens, F. J. Devlin, C. F. Chabalowski, and M. J. Frisch, J. Phys. Chem. 98, 11623 (1994)

    Deriv               =              1
    GGA                 =           TRUE
    Meta                =          FALSE

    Exchange Hybrid     =           TRUE
    MP2 Hybrid          =          FALSE

   => Exchange Functionals <=

    0.0800   Slater exchange
    0.7200         Becke 88

   => Exact (HF) Exchange <=

    0.2000               HF 

   => Correlation Functionals <=

    0.1900   Vosko, Wilk & Nusair (VWN5_RPA)
    0.8100   Lee, Yang & Parr

   => Molecular Quadrature <=

    Radial Scheme          =       TREUTLER
    Pruning Scheme         =           FLAT
    Nuclear Scheme         =       TREUTLER

    BS radius alpha        =              1
    Pruning alpha          =              1
    Radial Points          =             75
    Spherical Points       =            302
    Total Points           =          90600
    Total Blocks           =            752
    Max Points             =            256
    Max Functions          =            138


  -Total Gradient:
     Atom            X                  Y                   Z
    ------   -----------------  -----------------  -----------------
       1       -0.055213262752    -0.000000000000     0.000000000000
       2        0.055213262752     0.000000000000     0.000000000000
       3       -0.009023352515    -0.000000000000     0.000000000000
       4        0.009023352515     0.000000000000     0.000000000000


*** tstop() called on atlantis at Tue Apr 19 02:03:34 2022
Module time:
	user time   =       1.45 seconds =       0.02 minutes
	system time =       0.00 seconds =       0.00 minutes
	total time  =          2 seconds =       0.03 minutes
Total time:
	user time   =      18.92 seconds =       0.32 minutes
	system time =       0.19 seconds =       0.00 minutes
	total time  =         19 seconds =       0.32 minutes

  //>>>>>>>>>>>>>>>>>>>>>>>>>>>>>>>>>>>//
  //    Loading displacement 3 of 12   //
  //<<<<<<<<<<<<<<<<<<<<<<<<<<<<<<<<<<<//
gradient() will perform analytic gradient computation.

*** tstart() called on atlantis
*** at Tue Apr 19 02:03:34 2022

   => Loading Basis Set <=

    Name: AUG-CC-PVTZ
    Role: ORBITAL
    Keyword: BASIS
    atoms 1-2 entry C          line   235 file /home/akrom/software/anaconda3/envs/ffpenv/share/psi4/basis/aug-cc-pvtz.gbs 
    atoms 3-4 entry H          line    36 file /home/akrom/software/anaconda3/envs/ffpenv/share/psi4/basis/aug-cc-pvtz.gbs 


         ---------------------------------------------------------
                                   SCF
               by Justin Turney, Rob Parrish, Andy Simmonett
                          and Daniel G. A. Smith
                              RKS Reference
                        1 Threads,    500 MiB Core
         ---------------------------------------------------------

  ==> Geometry <==

    Molecular point group: d2h
    Full point group: D_inf_h

    Geometry (in Angstrom), charge = 0, multiplicity = 1:

       Center              X                  Y                   Z               Mass       
    ------------   -----------------  -----------------  -----------------  -----------------
         C           -0.613919910771    -0.000000000000     0.000000000000    12.000000000000
         C            0.613919910771     0.000000000000     0.000000000000    12.000000000000
         H           -1.689230000000    -0.000000000000     0.000000000000     1.007825032230
         H            1.689230000000     0.000000000000     0.000000000000     1.007825032230

  Running in d2h symmetry.

  Rotational constants: A = ************  B =      1.13924  C =      1.13924 [cm^-1]
  Rotational constants: A = ************  B =  34153.69835  C =  34153.69835 [MHz]
  Nuclear repulsion =   24.334534488106961

  Charge       = 0
  Multiplicity = 1
  Electrons    = 14
  Nalpha       = 7
  Nbeta        = 7

  ==> Algorithm <==

  SCF Algorithm Type is DF.
  DIIS enabled.
  MOM disabled.
  Fractional occupation disabled.
  Guess Type is SAD.
  Energy threshold   = 1.00e-08
  Density threshold  = 1.00e-08
  Integral threshold = 0.00e+00

  ==> Primary Basis <==

  Basis Set: AUG-CC-PVTZ
    Blend: AUG-CC-PVTZ
    Number of shells: 46
    Number of basis function: 138
    Number of Cartesian functions: 160
    Spherical Harmonics?: true
    Max angular momentum: 3

  ==> DFT Potential <==

   => Composite Functional: B3LYP <= 

    B3LYP Hyb-GGA Exchange-Correlation Functional

    P. J. Stephens, F. J. Devlin, C. F. Chabalowski, and M. J. Frisch, J. Phys. Chem. 98, 11623 (1994)

    Deriv               =              1
    GGA                 =           TRUE
    Meta                =          FALSE

    Exchange Hybrid     =           TRUE
    MP2 Hybrid          =          FALSE

   => Exchange Functionals <=

    0.0800   Slater exchange
    0.7200         Becke 88

   => Exact (HF) Exchange <=

    0.2000               HF 

   => Correlation Functionals <=

    0.1900   Vosko, Wilk & Nusair (VWN5_RPA)
    0.8100   Lee, Yang & Parr

   => Molecular Quadrature <=

    Radial Scheme          =       TREUTLER
    Pruning Scheme         =           FLAT
    Nuclear Scheme         =       TREUTLER

    BS radius alpha        =              1
    Pruning alpha          =              1
    Radial Points          =             75
    Spherical Points       =            302
    Total Points           =          90600
    Total Blocks           =            752
    Max Points             =            256
    Max Functions          =            138

   => Loading Basis Set <=

    Name: (AUG-CC-PVTZ AUX)
    Role: JKFIT
    Keyword: DF_BASIS_SCF
    atoms 1-2 entry C          line   162 file /home/akrom/software/anaconda3/envs/ffpenv/share/psi4/basis/aug-cc-pvtz-jkfit.gbs 
    atoms 3-4 entry H          line    70 file /home/akrom/software/anaconda3/envs/ffpenv/share/psi4/basis/aug-cc-pvtz-jkfit.gbs 

  ==> Pre-Iterations <==

   -------------------------------------------------------
    Irrep   Nso     Nmo     Nalpha   Nbeta   Ndocc  Nsocc
   -------------------------------------------------------
     Ag        30      30       0       0       0       0
     B1g       16      16       0       0       0       0
     B2g       16      16       0       0       0       0
     B3g        7       7       0       0       0       0
     Au         7       7       0       0       0       0
     B1u       16      16       0       0       0       0
     B2u       16      16       0       0       0       0
     B3u       30      30       0       0       0       0
   -------------------------------------------------------
    Total     138     138       7       7       7       0
   -------------------------------------------------------

  ==> Integral Setup <==

  DFHelper Memory: AOs need 0.047 GiB; user supplied 0.047 GiB. Using in-core AOs.

  ==> MemDFJK: Density-Fitted J/K Matrices <==

    J tasked:                   Yes
    K tasked:                   Yes
    wK tasked:                   No
    OpenMP threads:               1
    Memory [MiB]:                48
    Algorithm:                 Core
    Schwarz Cutoff:           1E-12
    Mask sparsity (%):       0.0420
    Fitting Condition:        1E-10

   => Auxiliary Basis Set <=

  Basis Set: (AUG-CC-PVTZ AUX)
    Blend: AUG-CC-PVTZ-JKFIT
    Number of shells: 88
    Number of basis function: 300
    Number of Cartesian functions: 372
    Spherical Harmonics?: true
    Max angular momentum: 4

  Cached 100.0% of DFT collocation blocks in 0.338 [GiB].

  Minimum eigenvalue in the overlap matrix is 9.1287963205E-06.
  Using Symmetric Orthogonalization.

  SCF Guess: Superposition of Atomic Densities via on-the-fly atomic UHF.

  ==> Iterations <==

                           Total Energy        Delta E     RMS |[F,P]|

   @DF-RKS iter SAD:   -76.66638242287473   -7.66664e+01   0.00000e+00 
   @DF-RKS iter   1:   -77.14590702169103   -4.79525e-01   1.19380e-02 DIIS
   @DF-RKS iter   2:   -77.06674432256175    7.91627e-02   1.31539e-02 DIIS
   @DF-RKS iter   3:   -77.36138179140272   -2.94637e-01   7.62416e-04 DIIS
   @DF-RKS iter   4:   -77.36244418373941   -1.06239e-03   5.41132e-05 DIIS
   @DF-RKS iter   5:   -77.36244922141525   -5.03768e-06   8.14449e-06 DIIS
   @DF-RKS iter   6:   -77.36244930759014   -8.61749e-08   9.07000e-07 DIIS
   @DF-RKS iter   7:   -77.36244930884405   -1.25391e-09   8.39432e-08 DIIS
   @DF-RKS iter   8:   -77.36244930885223   -8.18545e-12   6.67581e-09 DIIS
  Energy and wave function converged.


  ==> Post-Iterations <==

    Orbital Energies [Eh]
    ---------------------

    Doubly Occupied:                                                      

       1Ag   -10.195821     1B3u  -10.193782     2Ag    -0.754721  
       2B3u   -0.574587     3Ag    -0.502082     1B1u   -0.297306  
       1B2u   -0.297306  

    Virtual:                                                              

       4Ag    -0.001191     1B1g    0.004089     1B2g    0.004089  
       3B3u    0.006205     2B2u    0.049583     2B1u    0.049583  
       5Ag     0.055505     4B3u    0.065315     6Ag     0.093847  
       2B1g    0.094401     2B2g    0.094401     5B3u    0.139504  
       7Ag     0.183231     6B3u    0.199619     8Ag     0.203257  
       1B3g    0.203257     3B1u    0.207432     3B2u    0.207432  
       3B2g    0.293122     3B1g    0.293122     9Ag     0.306834  
       7B3u    0.307964     8B3u    0.312600     1Au     0.312600  
      10Ag     0.334958     4B2g    0.346021     4B1g    0.346021  
       4B1u    0.370557     4B2u    0.370557     9B3u    0.438626  
       5B1u    0.489322     5B2u    0.489322    10B3u    0.499592  
      11Ag     0.514401     5B2g    0.696518     5B1g    0.696518  
      11B3u    0.743629    12Ag     0.747337    13Ag     0.748760  
       2B3g    0.748761     6B1u    0.797262     6B2u    0.797262  
      14Ag     0.834749     3B3g    0.834749    15Ag     0.840729  
       7B2u    0.882723     7B1u    0.882723    12B3u    0.884062  
       2Au     0.884062     6B2g    0.885956     6B1g    0.885956  
      13B3u    0.908631    16Ag     0.994762     8B1u    1.003587  
       8B2u    1.003587    14B3u    1.031004     3Au     1.031004  
      15B3u    1.055577    16B3u    1.107287     7B1g    1.129521  
       7B2g    1.129521     8B2g    1.213926     8B1g    1.213926  
       9B1u    1.378519     9B2u    1.378519     4B3g    1.446845  
      17Ag     1.446845     9B2g    1.557897     9B1g    1.557897  
      18Ag     1.578070    10B1u    1.680339    10B2u    1.680339  
      17B3u    1.735783    19Ag     1.804819     4Au     1.815537  
      18B3u    1.815537    19B3u    1.901113    20Ag     1.972599  
      10B2g    2.123013    10B1g    2.123013    11B2u    2.471395  
      11B1u    2.471395    20B3u    2.528233    21Ag     2.686069  
      21B3u    2.825665     5B3g    2.855295    22Ag     2.855296  
      11B2g    2.871939    11B1g    2.871939    12B1u    2.991748  
      12B2u    2.991748    13B1u    3.065799    13B2u    3.065799  
      22B3u    3.136184     5Au     3.136185    23Ag     3.238011  
      24Ag     3.251614     6B3g    3.251615    12B1g    3.379369  
      12B2g    3.379369    25Ag     3.396773    14B1u    3.438755  
      14B2u    3.438755    13B2g    3.495276    13B1g    3.495276  
      23B3u    3.506691    24B3u    3.763916     6Au     3.763916  
      26Ag     3.840095     7B3g    3.840096    25B3u    3.966150  
      27Ag     4.296321    26B3u    4.307040     7Au     4.307041  
      14B1g    4.395874    14B2g    4.395874    15B1u    4.434768  
      15B2u    4.434768    15B1g    4.672714    15B2g    4.672714  
      27B3u    4.929613    28Ag     4.981908    16B2u    5.403667  
      16B1u    5.403667    28B3u    5.748702    29B3u    6.298463  
      16B2g    6.349001    16B1g    6.349001    29Ag     6.418430  
      30Ag    12.749231    30B3u   18.042556  

    Final Occupation by Irrep:
             Ag   B1g   B2g   B3g    Au   B1u   B2u   B3u 
    DOCC [     3,    0,    0,    0,    0,    1,    1,    2 ]

  @DF-RKS Final Energy:   -77.36244930885223

   => Energetics <=

    Nuclear Repulsion Energy =             24.3345344881069607
    One-Electron Energy =                -151.0799966990081771
    Two-Electron Energy =                  58.6614174087721878
    DFT Exchange-Correlation Energy =      -9.2784045067232039
    Empirical Dispersion Energy =           0.0000000000000000
    VV10 Nonlocal Energy =                  0.0000000000000000
    Total Energy =                        -77.3624493088522343

Computation Completed


Properties will be evaluated at   0.000000,   0.000000,   0.000000 [a0]

Properties computed using the SCF density matrix

  Nuclear Dipole Moment: [e a0]
     X:     0.0000      Y:     0.0000      Z:     0.0000

  Electronic Dipole Moment: [e a0]
     X:     0.0000      Y:     0.0000      Z:     0.0000

  Dipole Moment: [e a0]
     X:     0.0000      Y:     0.0000      Z:     0.0000     Total:     0.0000

  Dipole Moment: [D]
     X:     0.0000      Y:     0.0000      Z:     0.0000     Total:     0.0000


*** tstop() called on atlantis at Tue Apr 19 02:03:37 2022
Module time:
	user time   =       3.73 seconds =       0.06 minutes
	system time =       0.02 seconds =       0.00 minutes
	total time  =          3 seconds =       0.05 minutes
Total time:
	user time   =      22.66 seconds =       0.38 minutes
	system time =       0.21 seconds =       0.00 minutes
	total time  =         22 seconds =       0.37 minutes

*** tstart() called on atlantis
*** at Tue Apr 19 02:03:37 2022


         ------------------------------------------------------------
                                   SCF GRAD                          
                          Rob Parrish, Justin Turney,                
                       Andy Simmonett, and Alex Sokolov              
         ------------------------------------------------------------

  ==> Geometry <==

    Molecular point group: d2h
    Full point group: D_inf_h

    Geometry (in Angstrom), charge = 0, multiplicity = 1:

       Center              X                  Y                   Z               Mass       
    ------------   -----------------  -----------------  -----------------  -----------------
         C           -0.613919910771    -0.000000000000     0.000000000000    12.000000000000
         C            0.613919910771     0.000000000000     0.000000000000    12.000000000000
         H           -1.689230000000    -0.000000000000     0.000000000000     1.007825032230
         H            1.689230000000     0.000000000000     0.000000000000     1.007825032230

  Nuclear repulsion =   24.334534488106961

  ==> Basis Set <==

  Basis Set: AUG-CC-PVTZ
    Blend: AUG-CC-PVTZ
    Number of shells: 46
    Number of basis function: 138
    Number of Cartesian functions: 160
    Spherical Harmonics?: true
    Max angular momentum: 3

  ==> DFJKGrad: Density-Fitted SCF Gradients <==

    Gradient:                    1
    J tasked:                  Yes
    K tasked:                  Yes
    wK tasked:                  No
    OpenMP threads:              1
    Integrals threads:           1
    Memory [MiB]:              375
    Schwarz Cutoff:          0E+00
    Fitting Condition:       1E-10

   => Auxiliary Basis Set <=

  Basis Set: (AUG-CC-PVTZ AUX)
    Blend: AUG-CC-PVTZ-JKFIT
    Number of shells: 88
    Number of basis function: 300
    Number of Cartesian functions: 372
    Spherical Harmonics?: true
    Max angular momentum: 4

  ==> DFT Potential <==

   => Composite Functional: B3LYP <= 

    B3LYP Hyb-GGA Exchange-Correlation Functional

    P. J. Stephens, F. J. Devlin, C. F. Chabalowski, and M. J. Frisch, J. Phys. Chem. 98, 11623 (1994)

    Deriv               =              1
    GGA                 =           TRUE
    Meta                =          FALSE

    Exchange Hybrid     =           TRUE
    MP2 Hybrid          =          FALSE

   => Exchange Functionals <=

    0.0800   Slater exchange
    0.7200         Becke 88

   => Exact (HF) Exchange <=

    0.2000               HF 

   => Correlation Functionals <=

    0.1900   Vosko, Wilk & Nusair (VWN5_RPA)
    0.8100   Lee, Yang & Parr

   => Molecular Quadrature <=

    Radial Scheme          =       TREUTLER
    Pruning Scheme         =           FLAT
    Nuclear Scheme         =       TREUTLER

    BS radius alpha        =              1
    Pruning alpha          =              1
    Radial Points          =             75
    Spherical Points       =            302
    Total Points           =          90600
    Total Blocks           =            752
    Max Points             =            256
    Max Functions          =            138


  -Total Gradient:
     Atom            X                  Y                   Z
    ------   -----------------  -----------------  -----------------
       1       -0.050606373420    -0.000000000000    -0.000000000000
       2        0.050606373420     0.000000000000     0.000000000000
       3       -0.009830052240    -0.000000000000     0.000000000000
       4        0.009830052240     0.000000000000     0.000000000000


*** tstop() called on atlantis at Tue Apr 19 02:03:39 2022
Module time:
	user time   =       1.46 seconds =       0.02 minutes
	system time =       0.01 seconds =       0.00 minutes
	total time  =          2 seconds =       0.03 minutes
Total time:
	user time   =      24.12 seconds =       0.40 minutes
	system time =       0.22 seconds =       0.00 minutes
	total time  =         24 seconds =       0.40 minutes

  //>>>>>>>>>>>>>>>>>>>>>>>>>>>>>>>>>>>//
  //    Loading displacement 4 of 12   //
  //<<<<<<<<<<<<<<<<<<<<<<<<<<<<<<<<<<<//
gradient() will perform analytic gradient computation.

*** tstart() called on atlantis
*** at Tue Apr 19 02:03:39 2022

   => Loading Basis Set <=

    Name: AUG-CC-PVTZ
    Role: ORBITAL
    Keyword: BASIS
    atoms 1-2 entry C          line   235 file /home/akrom/software/anaconda3/envs/ffpenv/share/psi4/basis/aug-cc-pvtz.gbs 
    atoms 3-4 entry H          line    36 file /home/akrom/software/anaconda3/envs/ffpenv/share/psi4/basis/aug-cc-pvtz.gbs 


         ---------------------------------------------------------
                                   SCF
               by Justin Turney, Rob Parrish, Andy Simmonett
                          and Daniel G. A. Smith
                              RKS Reference
                        1 Threads,    500 MiB Core
         ---------------------------------------------------------

  ==> Geometry <==

    Molecular point group: d2h
    Full point group: D_inf_h

    Geometry (in Angstrom), charge = 0, multiplicity = 1:

       Center              X                  Y                   Z               Mass       
    ------------   -----------------  -----------------  -----------------  -----------------
         C           -0.614460000000    -0.000000000000     0.000000000000    12.000000000000
         C            0.614460000000     0.000000000000     0.000000000000    12.000000000000
         H           -1.691093646632    -0.000000000000     0.000000000000     1.007825032230
         H            1.691093646632     0.000000000000     0.000000000000     1.007825032230

  Running in d2h symmetry.

  Rotational constants: A = ************  B =      1.13705  C =      1.13705 [cm^-1]
  Rotational constants: A = ************  B =  34087.76638  C =  34087.76638 [MHz]
  Nuclear repulsion =   24.310590060340044

  Charge       = 0
  Multiplicity = 1
  Electrons    = 14
  Nalpha       = 7
  Nbeta        = 7

  ==> Algorithm <==

  SCF Algorithm Type is DF.
  DIIS enabled.
  MOM disabled.
  Fractional occupation disabled.
  Guess Type is SAD.
  Energy threshold   = 1.00e-08
  Density threshold  = 1.00e-08
  Integral threshold = 0.00e+00

  ==> Primary Basis <==

  Basis Set: AUG-CC-PVTZ
    Blend: AUG-CC-PVTZ
    Number of shells: 46
    Number of basis function: 138
    Number of Cartesian functions: 160
    Spherical Harmonics?: true
    Max angular momentum: 3

  ==> DFT Potential <==

   => Composite Functional: B3LYP <= 

    B3LYP Hyb-GGA Exchange-Correlation Functional

    P. J. Stephens, F. J. Devlin, C. F. Chabalowski, and M. J. Frisch, J. Phys. Chem. 98, 11623 (1994)

    Deriv               =              1
    GGA                 =           TRUE
    Meta                =          FALSE

    Exchange Hybrid     =           TRUE
    MP2 Hybrid          =          FALSE

   => Exchange Functionals <=

    0.0800   Slater exchange
    0.7200         Becke 88

   => Exact (HF) Exchange <=

[...]
   @DF-RKS iter   2:   -77.06808586964098    7.83683e-02   9.27772e-03 DIIS
   @DF-RKS iter   3:   -77.36127416649937   -2.93188e-01   5.38551e-04 DIIS
   @DF-RKS iter   4:   -77.36230728162062   -1.03312e-03   1.01000e-04 DIIS
   @DF-RKS iter   5:   -77.36227592600099    3.13556e-05   1.44933e-04 DIIS
   @DF-RKS iter   6:   -77.36233846150451   -6.25355e-05   4.88512e-06 DIIS
   @DF-RKS iter   7:   -77.36233852630488   -6.48004e-08   4.72012e-07 DIIS
   @DF-RKS iter   8:   -77.36233852698159   -6.76707e-10   4.24506e-08 DIIS
   @DF-RKS iter   9:   -77.36233852698612   -4.53326e-12   3.37769e-09 DIIS
  Energy and wave function converged.


  ==> Post-Iterations <==

    Orbital Energies [Eh]
    ---------------------

    Doubly Occupied:                                                      

       1A1   -10.196099     2A1   -10.194046     3A1    -0.754555  
       4A1    -0.574888     5A1    -0.502204     1B2    -0.297174  
       1B1    -0.297174  

    Virtual:                                                              

       6A1    -0.001206     2B1     0.003840     2B2     0.003840  
       7A1     0.006204     3B2     0.049588     3B1     0.049588  
       8A1     0.055536     9A1     0.065316    10A1     0.093823  
       4B1     0.094316     4B2     0.094316    11A1     0.139475  
      12A1     0.183338    13A1     0.199553    14A1     0.203227  
       1A2     0.203227     5B2     0.207436     5B1     0.207436  
       6B1     0.293057     6B2     0.293057    15A1     0.306770  
      16A1     0.307887    17A1     0.312568     2A2     0.312568  
      18A1     0.334982     7B1     0.345961     7B2     0.345961  
       8B2     0.370589     8B1     0.370589    19A1     0.438494  
       9B2     0.489372     9B1     0.489372    20A1     0.499475  
      21A1     0.514519    10B1     0.696469    10B2     0.696469  
      22A1     0.743046    23A1     0.747207    24A1     0.748715  
       3A2     0.748715    11B2     0.797265    11B1     0.797265  
      25A1     0.834744     4A2     0.834744    26A1     0.840523  
      12B2     0.882669    12B1     0.882669    27A1     0.883976  
       5A2     0.883976    13B1     0.885814    13B2     0.885814  
      28A1     0.908627    29A1     0.994836    14B2     1.003419  
      14B1     1.003419    30A1     1.031106     6A2     1.031106  
      31A1     1.055408    32A1     1.106735    15B1     1.129346  
      15B2     1.129346    16B2     1.213856    16B1     1.213856  
      17B2     1.379078    17B1     1.379078     7A2     1.446677  
      33A1     1.446677    18B1     1.557819    18B2     1.557819  
      34A1     1.577311    19B2     1.680104    19B1     1.680104  
      35A1     1.735646    36A1     1.805540     8A2     1.815306  
      37A1     1.815306    38A1     1.900515    39A1     1.971143  
      20B1     2.123079    20B2     2.123079    21B2     2.471562  
      21B1     2.471562    40A1     2.527758    41A1     2.686268  
      42A1     2.824879     9A2     2.855591    43A1     2.855591  
      22B1     2.871314    22B2     2.871314    23B2     2.991166  
      23B1     2.991166    24B2     3.066048    24B1     3.066048  
      44A1     3.135928    10A2     3.135929    45A1     3.237080  
      46A1     3.251090    11A2     3.251090    25B1     3.378841  
      25B2     3.378841    47A1     3.396414    26B2     3.438151  
      26B1     3.438151    27B1     3.495256    27B2     3.495256  
      48A1     3.507215    49A1     3.763300    12A2     3.763300  
      50A1     3.840268    13A2     3.840268    51A1     3.965934  
      52A1     4.295281    53A1     4.306608    14A2     4.306609  
      28B2     4.395173    28B1     4.395173    29B2     4.435290  
      29B1     4.435290    30B1     4.672856    30B2     4.672856  
      54A1     4.930936    55A1     4.983067    31B1     5.403749  
      31B2     5.403749    56A1     5.750118    57A1     6.298325  
      32B1     6.349279    32B2     6.349279    58A1     6.416467  
      59A1    12.761114    60A1    18.012673  

    Final Occupation by Irrep:
             A1    A2    B1    B2 
    DOCC [     5,    0,    1,    1 ]

  @DF-RKS Final Energy:   -77.36233852698612

   => Energetics <=

    Nuclear Repulsion Energy =             24.3232393838559098
    One-Electron Energy =                -151.0564558426094379
    Two-Electron Energy =                  58.6487811111193693
    DFT Exchange-Correlation Energy =      -9.2779031793519504
    Empirical Dispersion Energy =           0.0000000000000000
    VV10 Nonlocal Energy =                  0.0000000000000000
    Total Energy =                        -77.3623385269861075

Computation Completed


Properties will be evaluated at   0.000000,   0.000000,   0.000000 [a0]

Properties computed using the SCF density matrix

  Nuclear Dipole Moment: [e a0]
     X:     0.0034      Y:     0.0000      Z:     0.0000

  Electronic Dipole Moment: [e a0]
     X:    -0.0018      Y:     0.0000      Z:     0.0000

  Dipole Moment: [e a0]
     X:     0.0016      Y:     0.0000      Z:     0.0000     Total:     0.0016

  Dipole Moment: [D]
     X:     0.0040      Y:     0.0000      Z:     0.0000     Total:     0.0040


*** tstop() called on atlantis at Tue Apr 19 02:04:25 2022
Module time:
	user time   =       4.04 seconds =       0.07 minutes
	system time =       0.03 seconds =       0.00 minutes
	total time  =          4 seconds =       0.07 minutes
Total time:
	user time   =      70.17 seconds =       1.17 minutes
	system time =       0.37 seconds =       0.01 minutes
	total time  =         70 seconds =       1.17 minutes

*** tstart() called on atlantis
*** at Tue Apr 19 02:04:25 2022


         ------------------------------------------------------------
                                   SCF GRAD                          
                          Rob Parrish, Justin Turney,                
                       Andy Simmonett, and Alex Sokolov              
         ------------------------------------------------------------

  ==> Geometry <==

    Molecular point group: c2v
    Full point group: C_inf_v

    Geometry (in Angstrom), charge = 0, multiplicity = 1:

       Center              X                  Y                   Z               Mass       
    ------------   -----------------  -----------------  -----------------  -----------------
         C           -0.614610333491     0.000000000000     0.000000000000    12.000000000000
         C            0.614309666509     0.000000000000     0.000000000000    12.000000000000
         H           -1.687440004874     0.000000000000     0.000000000000     1.007825032230
         H            1.691019995126     0.000000000000     0.000000000000     1.007825032230

  Nuclear repulsion =   24.323239383855910

  ==> Basis Set <==

  Basis Set: AUG-CC-PVTZ
    Blend: AUG-CC-PVTZ
    Number of shells: 46
    Number of basis function: 138
    Number of Cartesian functions: 160
    Spherical Harmonics?: true
    Max angular momentum: 3

  ==> DFJKGrad: Density-Fitted SCF Gradients <==

    Gradient:                    1
    J tasked:                  Yes
    K tasked:                  Yes
    wK tasked:                  No
    OpenMP threads:              1
    Integrals threads:           1
    Memory [MiB]:              375
    Schwarz Cutoff:          0E+00
    Fitting Condition:       1E-10

   => Auxiliary Basis Set <=

  Basis Set: (AUG-CC-PVTZ AUX)
    Blend: AUG-CC-PVTZ-JKFIT
    Number of shells: 88
    Number of basis function: 300
    Number of Cartesian functions: 372
    Spherical Harmonics?: true
    Max angular momentum: 4

  ==> DFT Potential <==

   => Composite Functional: B3LYP <= 

    B3LYP Hyb-GGA Exchange-Correlation Functional

    P. J. Stephens, F. J. Devlin, C. F. Chabalowski, and M. J. Frisch, J. Phys. Chem. 98, 11623 (1994)

    Deriv               =              1
    GGA                 =           TRUE
    Meta                =          FALSE

    Exchange Hybrid     =           TRUE
    MP2 Hybrid          =          FALSE

   => Exchange Functionals <=

    0.0800   Slater exchange
    0.7200         Becke 88

   => Exact (HF) Exchange <=

    0.2000               HF 

   => Correlation Functionals <=

    0.1900   Vosko, Wilk & Nusair (VWN5_RPA)
    0.8100   Lee, Yang & Parr

   => Molecular Quadrature <=

    Radial Scheme          =       TREUTLER
    Pruning Scheme         =           FLAT
    Nuclear Scheme         =       TREUTLER

    BS radius alpha        =              1
    Pruning alpha          =              1
    Radial Points          =             75
    Spherical Points       =            302
    Total Points           =          90600
    Total Blocks           =            752
    Max Points             =            256
    Max Functions          =            138


  -Total Gradient:
     Atom            X                  Y                   Z
    ------   -----------------  -----------------  -----------------
       1       -0.054319573291     0.000000000000     0.000000000000
       2        0.051526625545     0.000000000000     0.000000000000
       3       -0.008023155563     0.000000000000     0.000000000000
       4        0.010816115008     0.000000000000     0.000000000000


*** tstop() called on atlantis at Tue Apr 19 02:04:27 2022
Module time:
	user time   =       1.47 seconds =       0.02 minutes
	system time =       0.00 seconds =       0.00 minutes
	total time  =          2 seconds =       0.03 minutes
Total time:
	user time   =      71.64 seconds =       1.19 minutes
	system time =       0.37 seconds =       0.01 minutes
	total time  =         72 seconds =       1.20 minutes

         ----------------------------------------------------------
                                   FINDIF
                     R. A. King and Jonathon Misiewicz
         ---------------------------------------------------------

  Computing second-derivative from gradients using projected, 
  symmetry-adapted, cartesian coordinates.

  12 gradients passed in, including the reference geometry.
  Generating complete list of displacements from unique ones.

    Operation 3 takes plus displacements of irrep B1g to minus ones.
    Operation 2 takes plus displacements of irrep B2g to minus ones.
    Operation 3 takes plus displacements of irrep B1u to minus ones.
    Operation 2 takes plus displacements of irrep B2u to minus ones.
    Operation 2 takes plus displacements of irrep B3u to minus ones.

-------------------------------------------------------------


  ==> Harmonic Vibrational Analysis <==

  non-mass-weighted Hessian:       Symmetric? True   Hermitian? True   Lin Dep Dim?  3 (0)
  projection of translations (True) and rotations (False) removed 3 degrees of freedom (5)
  total projector:                 Symmetric? True   Hermitian? True   Lin Dep Dim?  3 (3)
  mass-weighted Hessian:           Symmetric? True   Hermitian? True   Lin Dep Dim?  3 (0)
  pre-proj  low-frequency mode:    0.0000  [cm^-1]
  pre-proj  low-frequency mode:    0.0000  [cm^-1]
  pre-proj  low-frequency mode:    0.0000  [cm^-1]
  pre-proj  low-frequency mode:  301.9217  [cm^-1]
  pre-proj  low-frequency mode:  301.9218  [cm^-1]
  pre-proj  all modes:['0.0000' '0.0000' '0.0000' '301.9217' '301.9218' '708.9961' '708.9966'
 '825.6869' '825.6869' '1889.0662' '3290.0583' '3376.9984']
  projected mass-weighted Hessian: Symmetric? True   Hermitian? True   Lin Dep Dim?  3 (3)
  post-proj low-frequency mode:    0.0000i [cm^-1] (TR)
  post-proj low-frequency mode:    0.0000i [cm^-1] (TR)
  post-proj low-frequency mode:    0.0000  [cm^-1] (TR)
  post-proj low-frequency mode:  301.9217  [cm^-1] (V)
  post-proj low-frequency mode:  301.9218  [cm^-1] (V)
  post-proj  all modes:['0.0000i' '0.0000i' '0.0000' '301.9217' '301.9218' '708.9961' '708.9966'
 '825.6869' '825.6869' '1889.0662' '3290.0583' '3376.9984']

  Note that "Vibration"s include 2 un-projected rotation-like modes.
  Vibration                       4                   5                   6           
  Freq [cm^-1]                 301.9217            301.9218            708.9961       
  Irrep                          B2g                 B1g                 B2g          
  Reduced mass [u]              2.1725              2.1726              1.6253        
  Force const [mDyne/A]         0.1167              0.1167              0.4814        
  Turning point v=0 [a0]        0.4284              0.4284              0.3232        
  RMS dev v=0 [a0 u^1/2]        0.4465              0.4465              0.2914        
  Char temp [K]                434.3982            434.3983           1020.0876       
  ----------------------------------------------------------------------------------
      1   C               -0.00  0.00  0.23   -0.00  0.23 -0.00    0.00 -0.00 -0.17   
      2   C               -0.00 -0.00 -0.23   -0.00 -0.23  0.00    0.00  0.00  0.17   
      3   H               -0.00  0.00  0.67   -0.00  0.67 -0.00    0.00  0.00  0.69   
      4   H               -0.00 -0.00 -0.67   -0.00 -0.67  0.00    0.00 -0.00 -0.69   

  Vibration                       7                   8                   9           
  Freq [cm^-1]                 708.9966            825.6869            825.6869       
  Irrep                          B1g                 B1u                 B2u          
  Reduced mass [u]              1.6253              1.0848              1.0848        
  Force const [mDyne/A]         0.4814              0.4357              0.4357        
  Turning point v=0 [a0]        0.3232              0.3666              0.3666        
  RMS dev v=0 [a0 u^1/2]        0.2914              0.2700              0.2700        
  Char temp [K]               1020.0883           1187.9796           1187.9796       
  ----------------------------------------------------------------------------------
      1   C                0.00 -0.17  0.00    0.00  0.00 -0.06    0.00 -0.06 -0.00   
      2   C                0.00  0.17 -0.00    0.00  0.00 -0.06    0.00 -0.06 -0.00   
      3   H                0.00  0.69 -0.00    0.00 -0.00  0.70    0.00  0.70  0.00   
      4   H                0.00 -0.69  0.00    0.00 -0.00  0.70    0.00  0.70  0.00   

  Vibration                       10                  11                  12          
  Freq [cm^-1]                1889.0662           3290.0583           3376.9984       
  Irrep                           Ag                 B3u                  Ag          
  Reduced mass [u]              4.0671              1.0848              1.2053        
  Force const [mDyne/A]         8.5513              6.9185              8.0983        
  Turning point v=0 [a0]        0.1252              0.1837              0.1720        
  RMS dev v=0 [a0 u^1/2]        0.1785              0.1353              0.1335        
  Char temp [K]               2717.9457           4733.6614           4858.7488       
  ----------------------------------------------------------------------------------
      1   C                0.37 -0.00  0.00   -0.06 -0.00  0.00   -0.09 -0.00 -0.00   
      2   C               -0.37  0.00 -0.00   -0.06  0.00 -0.00    0.09  0.00  0.00   
      3   H                0.60  0.00 -0.00    0.70  0.00 -0.00    0.70  0.00 -0.00   
      4   H               -0.60 -0.00  0.00    0.70 -0.00  0.00   -0.70 -0.00 -0.00   

  ==> Thermochemistry Components <==

  Entropy, S
    Electronic S            0.000 [cal/(mol K)]        0.000 [J/(mol K)]       0.00000000 [mEh/K] (multiplicity = 1)
    Translational S        35.704 [cal/(mol K)]      149.387 [J/(mol K)]       0.05689862 [mEh/K] (mol. weight = 26.0157 [u], P = 101325.00 [Pa])
    Rotational S           10.952 [cal/(mol K)]       45.824 [J/(mol K)]       0.01745345 [mEh/K] (symmetry no. = 2)
    Vibrational S           3.781 [cal/(mol K)]       15.818 [J/(mol K)]       0.00602487 [mEh/K]
  Total S                  50.437 [cal/(mol K)]      211.030 [J/(mol K)]       0.08037693 [mEh/K]
  Correction S              0.000 [cal/(mol K)]        0.000 [J/(mol K)]       0.00000000 [mEh/K]

  Constant volume heat capacity, Cv
    Electronic Cv           0.000 [cal/(mol K)]        0.000 [J/(mol K)]       0.00000000 [mEh/K]
    Translational Cv        2.981 [cal/(mol K)]       12.472 [J/(mol K)]       0.00475022 [mEh/K]
    Rotational Cv           1.987 [cal/(mol K)]        8.314 [J/(mol K)]       0.00316681 [mEh/K]
    Vibrational Cv          6.201 [cal/(mol K)]       25.946 [J/(mol K)]       0.00988226 [mEh/K]
  Total Cv                 11.169 [cal/(mol K)]       46.732 [J/(mol K)]       0.01779929 [mEh/K]
  Correction Cv             0.000 [cal/(mol K)]        0.000 [J/(mol K)]       0.00000000 [mEh/K]

  Constant pressure heat capacity, Cp
    Electronic Cp           0.000 [cal/(mol K)]        0.000 [J/(mol K)]       0.00000000 [mEh/K]
    Translational Cp        4.968 [cal/(mol K)]       20.786 [J/(mol K)]       0.00791703 [mEh/K]
    Rotational Cp           1.987 [cal/(mol K)]        8.314 [J/(mol K)]       0.00316681 [mEh/K]
    Vibrational Cp          6.201 [cal/(mol K)]       25.946 [J/(mol K)]       0.00988226 [mEh/K]
  Total Cp                 13.156 [cal/(mol K)]       55.046 [J/(mol K)]       0.02096610 [mEh/K]
  Correction Cp             0.000 [cal/(mol K)]        0.000 [J/(mol K)]       0.00000000 [mEh/K]

  ==> Thermochemistry Energy Analysis <==

  Raw electronic energy, E0
  Total E0, Electronic energy at well bottom at 0 [K]                  -77.36234365 [Eh]

  Zero-point energy, ZPE_vib = Sum_i nu_i / 2
    Electronic ZPE          0.000 [kcal/mol]        0.000 [kJ/mol]       0.00000000 [Eh]
    Translational ZPE       0.000 [kcal/mol]        0.000 [kJ/mol]       0.00000000 [Eh]
    Rotational ZPE          0.000 [kcal/mol]        0.000 [kJ/mol]       0.00000000 [Eh]
    Vibrational ZPE        17.483 [kcal/mol]       73.148 [kJ/mol]       0.02786047 [Eh]        6114.666 [cm^-1]
  Correction ZPE           17.483 [kcal/mol]       73.148 [kJ/mol]       0.02786047 [Eh]        6114.666 [cm^-1]
  Total ZPE, Electronic energy at 0 [K]                                -77.33448318 [Eh]

  Thermal Energy, E (includes ZPE)
    Electronic E            0.000 [kcal/mol]        0.000 [kJ/mol]       0.00000000 [Eh]
    Translational E         0.889 [kcal/mol]        3.718 [kJ/mol]       0.00141628 [Eh]
    Rotational E            0.592 [kcal/mol]        2.479 [kJ/mol]       0.00094418 [Eh]
    Vibrational E          18.234 [kcal/mol]       76.291 [kJ/mol]       0.02905773 [Eh]
  Correction E             19.715 [kcal/mol]       82.488 [kJ/mol]       0.03141819 [Eh]
  Total E, Electronic energy at  298.15 [K]                            -77.33092546 [Eh]

  Enthalpy, H_trans = E_trans + k_B * T
    Electronic H            0.000 [kcal/mol]        0.000 [kJ/mol]       0.00000000 [Eh]
    Translational H         1.481 [kcal/mol]        6.197 [kJ/mol]       0.00236046 [Eh]
    Rotational H            0.592 [kcal/mol]        2.479 [kJ/mol]       0.00094418 [Eh]
    Vibrational H          18.234 [kcal/mol]       76.291 [kJ/mol]       0.02905773 [Eh]
  Correction H             20.308 [kcal/mol]       84.967 [kJ/mol]       0.03236238 [Eh]
  Total H, Enthalpy at  298.15 [K]                                     -77.32998127 [Eh]

  Gibbs free energy, G = H - T * S
    Electronic G            0.000 [kcal/mol]        0.000 [kJ/mol]       0.00000000 [Eh]
    Translational G        -9.164 [kcal/mol]      -38.342 [kJ/mol]      -0.01460386 [Eh]
    Rotational G           -2.673 [kcal/mol]      -11.183 [kJ/mol]      -0.00425956 [Eh]
    Vibrational G          17.107 [kcal/mol]       71.575 [kJ/mol]       0.02726142 [Eh]
  Correction G              5.270 [kcal/mol]       22.049 [kJ/mol]       0.00839799 [Eh]
  Total G, Free enthalpy at  298.15 [K]                                -77.35394565 [Eh]

    Psi4 stopped on: Tuesday, 19 April 2022 02:04AM
    Psi4 wall time for execution: 0:01:12.29

*** Psi4 exiting successfully. Buy a developer a beer!
