
    -----------------------------------------------------------------------
          Psi4: An Open-Source Ab Initio Electronic Structure Package
                               Psi4 1.3.2 release

                         Git: Rev {HEAD} ecbda83 


    R. M. Parrish, L. A. Burns, D. G. A. Smith, A. C. Simmonett,
    A. E. DePrince III, E. G. Hohenstein, U. Bozkaya, A. Yu. Sokolov,
    R. Di Remigio, R. M. Richard, J. F. Gonthier, A. M. James,
    H. R. McAlexander, A. Kumar, M. Saitow, X. Wang, B. P. Pritchard,
    P. Verma, H. F. Schaefer III, K. Patkowski, R. A. King, E. F. Valeev,
    F. A. Evangelista, J. M. Turney, T. D. Crawford, and C. D. Sherrill,
    J. Chem. Theory Comput. 13(7) pp 3185--3197 (2017).
    (doi: 10.1021/acs.jctc.7b00174)


                         Additional Contributions by
    P. Kraus, H. Kruse, M. H. Lechner, M. C. Schieber, R. A. Shaw,
    A. Alenaizan, R. Galvelis, Z. L. Glick, S. Lehtola, and J. P. Misiewicz

    -----------------------------------------------------------------------


    Psi4 started on: Wednesday, 20 April 2022 06:35AM

    Process ID: 13474
    Host:       atlantis
    PSIDATADIR: /home/akrom/software/anaconda3/envs/ffpenv/share/psi4
    Memory:     500.0 MiB
    Threads:    1
    
  ==> Input File <==

--------------------------------------------------------------------------
set basis  cc-pVDZ
molecule {
0 1
   C       -1.22151       -0.69325        0.00000
   C       -1.21114        0.71122        0.00000
   C       -0.01037       -1.40452        0.00000
   C        0.01037        1.40452        0.00000
   C        1.21114       -0.71122        0.00000
   C        1.22151        0.69325        0.00000
   H       -2.17311       -1.23332        0.00000
   H       -2.15464        1.26533        0.00000
   H       -0.01848       -2.49865        0.00000
   H        0.01848        2.49865        0.00000
   H        2.15464       -1.26533        0.00000
   H        2.17311        1.23332        0.00000
}
energy('m06-2x')
frequencies('m06-2x')
--------------------------------------------------------------------------

*** tstart() called on atlantis
*** at Wed Apr 20 06:35:11 2022

   => Loading Basis Set <=

    Name: CC-PVDZ
    Role: ORBITAL
    Keyword: BASIS
    atoms 1-6  entry C          line   138 file /home/akrom/software/anaconda3/envs/ffpenv/share/psi4/basis/cc-pvdz.gbs 
    atoms 7-12 entry H          line    22 file /home/akrom/software/anaconda3/envs/ffpenv/share/psi4/basis/cc-pvdz.gbs 


         ---------------------------------------------------------
                                   SCF
               by Justin Turney, Rob Parrish, Andy Simmonett
                          and Daniel G. A. Smith
                              RKS Reference
                        1 Threads,    500 MiB Core
         ---------------------------------------------------------

  ==> Geometry <==

    Molecular point group: c2h
    Full point group: C2h

    Geometry (in Angstrom), charge = 0, multiplicity = 1:

       Center              X                  Y                   Z               Mass       
    ------------   -----------------  -----------------  -----------------  -----------------
         C           -1.221510000000    -0.693250000000     0.000000000000    12.000000000000
         C           -1.211140000000     0.711220000000     0.000000000000    12.000000000000
         C           -0.010370000000    -1.404520000000     0.000000000000    12.000000000000
         C            0.010370000000     1.404520000000     0.000000000000    12.000000000000
         C            1.211140000000    -0.711220000000     0.000000000000    12.000000000000
         C            1.221510000000     0.693250000000     0.000000000000    12.000000000000
         H           -2.173110000000    -1.233320000000     0.000000000000     1.007825032230
         H           -2.154640000000     1.265330000000     0.000000000000     1.007825032230
         H           -0.018480000000    -2.498650000000     0.000000000000     1.007825032230
         H            0.018480000000     2.498650000000     0.000000000000     1.007825032230
         H            2.154640000000    -1.265330000000     0.000000000000     1.007825032230
         H            2.173110000000     1.233320000000     0.000000000000     1.007825032230

  Running in c2h symmetry.

  Rotational constants: A =      0.18753  B =      0.18752  C =      0.09376 [cm^-1]
  Rotational constants: A =   5621.92707  B =   5621.82252  C =   2810.93740 [MHz]
  Nuclear repulsion =  202.013308935380167

  Charge       = 0
  Multiplicity = 1
  Electrons    = 42
  Nalpha       = 21
  Nbeta        = 21

  ==> Algorithm <==

  SCF Algorithm Type is DF.
  DIIS enabled.
  MOM disabled.
  Fractional occupation disabled.
  Guess Type is SAD.
  Energy threshold   = 1.00e-06
  Density threshold  = 1.00e-06
  Integral threshold = 0.00e+00

  ==> Primary Basis <==

  Basis Set: CC-PVDZ
    Blend: CC-PVDZ
    Number of shells: 54
    Number of basis function: 114
    Number of Cartesian functions: 120
    Spherical Harmonics?: true
    Max angular momentum: 2

  ==> DFT Potential <==

   => Composite Functional: M06-2X <= 

    Hybrid M06-2X Meta-GGA XC Functional

    Y. Zhao and D. G. Truhlar,  Theor. Chem. Acc., 120, 215, 2008


    Deriv               =              1
    GGA                 =           TRUE
    Meta                =           TRUE

    Exchange Hybrid     =           TRUE
    MP2 Hybrid          =          FALSE

   => Exchange Functionals <=

    1.0000   XC_HYB_MGGA_X_M06_2X

   => Exact (HF) Exchange <=

    0.5400               HF 

   => Correlation Functionals <=

    1.0000   XC_MGGA_C_M06_2X

   => Molecular Quadrature <=

    Radial Scheme          =       TREUTLER
    Pruning Scheme         =           FLAT
    Nuclear Scheme         =       TREUTLER

    BS radius alpha        =              1
    Pruning alpha          =              1
    Radial Points          =             75
    Spherical Points       =            302
    Total Points           =         266174
    Total Blocks           =           2094
    Max Points             =            256
    Max Functions          =            114

   => Loading Basis Set <=

    Name: (CC-PVDZ AUX)
    Role: JKFIT
    Keyword: DF_BASIS_SCF
    atoms 1-6  entry C          line   121 file /home/akrom/software/anaconda3/envs/ffpenv/share/psi4/basis/cc-pvdz-jkfit.gbs 
    atoms 7-12 entry H          line    51 file /home/akrom/software/anaconda3/envs/ffpenv/share/psi4/basis/cc-pvdz-jkfit.gbs 

  ==> Pre-Iterations <==

   -------------------------------------------------------
    Irrep   Nso     Nmo     Nalpha   Nbeta   Ndocc  Nsocc
   -------------------------------------------------------
     Ag        42      42       0       0       0       0
     Bg        15      15       0       0       0       0
     Au        15      15       0       0       0       0
     Bu        42      42       0       0       0       0
   -------------------------------------------------------
    Total     114     114      21      21      21       0
   -------------------------------------------------------

  ==> Integral Setup <==

  DFHelper Memory: AOs need 0.058 GiB; user supplied 0.058 GiB. Using in-core AOs.

  ==> MemDFJK: Density-Fitted J/K Matrices <==

    J tasked:                   Yes
    K tasked:                   Yes
    wK tasked:                   No
    OpenMP threads:               1
    Memory [MiB]:                59
    Algorithm:                 Core
    Schwarz Cutoff:           1E-12
    Mask sparsity (%):       0.4155
    Fitting Condition:        1E-10

   => Auxiliary Basis Set <=

  Basis Set: (CC-PVDZ AUX)
    Blend: CC-PVDZ-JKFIT
    Number of shells: 198
    Number of basis function: 558
    Number of Cartesian functions: 636
    Spherical Harmonics?: true
    Max angular momentum: 3

  Cached 16.7% of DFT collocation blocks in 0.325 [GiB].

  Minimum eigenvalue in the overlap matrix is 3.8592942748E-04.
  Using Symmetric Orthogonalization.

  SCF Guess: Superposition of Atomic Densities via on-the-fly atomic UHF.

  ==> Iterations <==

                           Total Energy        Delta E     RMS |[F,P]|

   @DF-RKS iter SAD:  -231.65163216646843   -2.31652e+02   0.00000e+00 
   @DF-RKS iter   1:  -231.94330853752456   -2.91676e-01   9.49228e-03 DIIS
   @DF-RKS iter   2:  -232.01430748169270   -7.09989e-02   8.25983e-03 DIIS
   @DF-RKS iter   3:  -232.16118858498064   -1.46881e-01   4.77163e-04 DIIS
   @DF-RKS iter   4:  -232.16161509246899   -4.26507e-04   7.72554e-05 DIIS
   @DF-RKS iter   5:  -232.16163088076254   -1.57883e-05   4.55449e-06 DIIS
   @DF-RKS iter   6:  -232.16163096648995   -8.57274e-08   4.54582e-07 DIIS
  Energy and wave function converged.


  ==> Post-Iterations <==

    Orbital Energies [Eh]
    ---------------------

    Doubly Occupied:                                                      

       1Ag   -10.555692     1Bu   -10.555399     2Bu   -10.555391  
       2Ag   -10.554715     3Ag   -10.554707     3Bu   -10.554388  
       4Ag    -0.949847     4Bu    -0.835716     5Bu    -0.835710  
       5Ag    -0.679574     6Ag    -0.679560     7Ag    -0.591132  
       6Bu    -0.529773     7Bu    -0.504736     8Bu    -0.481805  
       9Bu    -0.481790     1Au    -0.431214     8Ag    -0.397642  
       9Ag    -0.397638     1Bg    -0.302417     2Bg    -0.302408  

    Virtual:                                                              

       2Au     0.028838     3Au     0.028844    10Ag     0.099947  
      10Bu     0.141495    11Bu     0.141502    11Ag     0.174885  
      12Ag     0.174891    12Bu     0.193670     3Bg     0.201003  
      13Ag     0.314244    14Ag     0.314248    13Bu     0.335150  
      14Bu     0.335182    15Ag     0.451223    15Bu     0.452418  
      16Bu     0.506808     4Au     0.515167    16Ag     0.562445  
      17Ag     0.562475    18Ag     0.567581    17Bu     0.570209  
      18Bu     0.570252     4Bg     0.571341     5Bg     0.571345  
      19Ag     0.588189     5Au     0.645852     6Au     0.645854  
      19Bu     0.692296    20Bu     0.692303    20Ag     0.700845  
      21Ag     0.700870     6Bg     0.721819    21Bu     0.778214  
      22Ag     0.827036     7Au     0.881861    23Ag     0.909774  
      22Bu     0.927690    23Bu     0.927721     7Bg     0.974055  
      24Ag     1.029040    25Ag     1.029053    24Bu     1.049179  
      25Bu     1.049261     8Bg     1.059103     9Bg     1.059112  
      26Bu     1.095719     8Au     1.124281     9Au     1.124313  
      26Ag     1.258620    27Ag     1.314648    28Ag     1.314685  
      27Bu     1.505853    10Au     1.517668    11Au     1.517702  
      10Bg     1.556146    29Ag     1.571162    30Ag     1.640331  
      31Ag     1.640362    28Bu     1.641860    29Bu     1.641938  
      12Au     1.665125    11Bg     1.711172    12Bg     1.711212  
      30Bu     1.733177    31Bu     1.733234    32Bu     1.749813  
      13Bg     1.824692    14Bg     1.824707    33Bu     1.865002  
      34Bu     1.872143    35Bu     1.872187    32Ag     1.874780  
      33Ag     1.874856    34Ag     1.929162    13Au     1.997826  
      14Au     1.997839    35Ag     2.010676    36Ag     2.010694  
      36Bu     2.043370    15Au     2.206641    15Bg     2.268071  
      37Ag     2.377257    38Ag     2.436157    39Ag     2.436189  
      37Bu     2.443839    38Bu     2.443890    39Bu     2.626594  
      40Bu     2.626653    41Bu     2.696692    40Ag     2.785613  
      41Ag     2.904538    42Ag     2.904689    42Bu     3.612322  

    Final Occupation by Irrep:
             Ag    Bg    Au    Bu 
    DOCC [     9,    2,    1,    9 ]

  @DF-RKS Final Energy:  -232.16163096648995

   => Energetics <=

    Nuclear Repulsion Energy =            202.0133089353801665
    One-Electron Energy =                -711.1178359916148111
    Two-Electron Energy =                 293.6638587195403716
    DFT Exchange-Correlation Energy =     -16.7209626297957179
    Empirical Dispersion Energy =           0.0000000000000000
    VV10 Nonlocal Energy =                  0.0000000000000000
    Total Energy =                       -232.1616309664899802

Computation Completed


Properties will be evaluated at   0.000000,   0.000000,   0.000000 [a0]

Properties computed using the SCF density matrix

  Nuclear Dipole Moment: [e a0]
     X:    -0.0000      Y:    -0.0000      Z:     0.0000

  Electronic Dipole Moment: [e a0]
     X:     0.0000      Y:     0.0000      Z:     0.0000

  Dipole Moment: [e a0]
     X:    -0.0000      Y:    -0.0000      Z:     0.0000     Total:     0.0000

  Dipole Moment: [D]
     X:    -0.0000      Y:    -0.0000      Z:     0.0000     Total:     0.0000


*** tstop() called on atlantis at Wed Apr 20 06:35:26 2022
Module time:
	user time   =      14.81 seconds =       0.25 minutes
	system time =       0.15 seconds =       0.00 minutes
	total time  =         15 seconds =       0.25 minutes
Total time:
	user time   =      14.81 seconds =       0.25 minutes
	system time =       0.15 seconds =       0.00 minutes
	total time  =         15 seconds =       0.25 minutes
gradient() will perform analytic gradient computation.

*** tstart() called on atlantis
*** at Wed Apr 20 06:35:26 2022

   => Loading Basis Set <=

    Name: CC-PVDZ
    Role: ORBITAL
    Keyword: BASIS
    atoms 1-6  entry C          line   138 file /home/akrom/software/anaconda3/envs/ffpenv/share/psi4/basis/cc-pvdz.gbs 
    atoms 7-12 entry H          line    22 file /home/akrom/software/anaconda3/envs/ffpenv/share/psi4/basis/cc-pvdz.gbs 


         ---------------------------------------------------------
                                   SCF
               by Justin Turney, Rob Parrish, Andy Simmonett
                          and Daniel G. A. Smith
                              RKS Reference
                        1 Threads,    500 MiB Core
         ---------------------------------------------------------

  ==> Geometry <==

    Molecular point group: c2h
    Full point group: C2h

    Geometry (in Angstrom), charge = 0, multiplicity = 1:

       Center              X                  Y                   Z               Mass       
    ------------   -----------------  -----------------  -----------------  -----------------
         C           -1.221510000000    -0.693250000000     0.000000000000    12.000000000000
         C           -1.211140000000     0.711220000000     0.000000000000    12.000000000000
         C           -0.010370000000    -1.404520000000     0.000000000000    12.000000000000
         C            0.010370000000     1.404520000000     0.000000000000    12.000000000000
         C            1.211140000000    -0.711220000000     0.000000000000    12.000000000000
         C            1.221510000000     0.693250000000     0.000000000000    12.000000000000
         H           -2.173110000000    -1.233320000000     0.000000000000     1.007825032230
         H           -2.154640000000     1.265330000000     0.000000000000     1.007825032230
         H           -0.018480000000    -2.498650000000     0.000000000000     1.007825032230
         H            0.018480000000     2.498650000000     0.000000000000     1.007825032230
         H            2.154640000000    -1.265330000000     0.000000000000     1.007825032230
         H            2.173110000000     1.233320000000     0.000000000000     1.007825032230

  Running in c2h symmetry.

  Rotational constants: A =      0.18753  B =      0.18752  C =      0.09376 [cm^-1]
  Rotational constants: A =   5621.92707  B =   5621.82252  C =   2810.93740 [MHz]
  Nuclear repulsion =  202.013308935380167

  Charge       = 0
  Multiplicity = 1
  Electrons    = 42
  Nalpha       = 21
  Nbeta        = 21

  ==> Algorithm <==

  SCF Algorithm Type is DF.
  DIIS enabled.
  MOM disabled.
  Fractional occupation disabled.
  Guess Type is SAD.
  Energy threshold   = 1.00e-08
  Density threshold  = 1.00e-08
  Integral threshold = 0.00e+00

  ==> Primary Basis <==

  Basis Set: CC-PVDZ
    Blend: CC-PVDZ
    Number of shells: 54
    Number of basis function: 114
    Number of Cartesian functions: 120
    Spherical Harmonics?: true
    Max angular momentum: 2

  ==> DFT Potential <==

   => Composite Functional: M06-2X <= 

    Hybrid M06-2X Meta-GGA XC Functional

    Y. Zhao and D. G. Truhlar,  Theor. Chem. Acc., 120, 215, 2008


    Deriv               =              1
    GGA                 =           TRUE
    Meta                =           TRUE

    Exchange Hybrid     =           TRUE
    MP2 Hybrid          =          FALSE

   => Exchange Functionals <=

    1.0000   XC_HYB_MGGA_X_M06_2X

   => Exact (HF) Exchange <=

    0.5400               HF 

   => Correlation Functionals <=

    1.0000   XC_MGGA_C_M06_2X

   => Molecular Quadrature <=

    Radial Scheme          =       TREUTLER
    Pruning Scheme         =           FLAT
    Nuclear Scheme         =       TREUTLER

    BS radius alpha        =              1
    Pruning alpha          =              1
    Radial Points          =             75
    Spherical Points       =            302
    Total Points           =         266174
    Total Blocks           =           2094
    Max Points             =            256
    Max Functions          =            114

   => Loading Basis Set <=

    Name: (CC-PVDZ AUX)
    Role: JKFIT
    Keyword: DF_BASIS_SCF
    atoms 1-6  entry C          line   121 file /home/akrom/software/anaconda3/envs/ffpenv/share/psi4/basis/cc-pvdz-jkfit.gbs 
    atoms 7-12 entry H          line    51 file /home/akrom/software/anaconda3/envs/ffpenv/share/psi4/basis/cc-pvdz-jkfit.gbs 

  ==> Pre-Iterations <==

   -------------------------------------------------------
    Irrep   Nso     Nmo     Nalpha   Nbeta   Ndocc  Nsocc
   -------------------------------------------------------
     Ag        42      42       0       0       0       0
     Bg        15      15       0       0       0       0
     Au        15      15       0       0       0       0
     Bu        42      42       0       0       0       0
   -------------------------------------------------------
    Total     114     114      21      21      21       0
   -------------------------------------------------------

  ==> Integral Setup <==

  DFHelper Memory: AOs need 0.058 GiB; user supplied 0.058 GiB. Using in-core AOs.

  ==> MemDFJK: Density-Fitted J/K Matrices <==

    J tasked:                   Yes
    K tasked:                   Yes
    wK tasked:                   No
    OpenMP threads:               1
    Memory [MiB]:                59
    Algorithm:                 Core
    Schwarz Cutoff:           1E-12
    Mask sparsity (%):       0.4155
    Fitting Condition:        1E-10

   => Auxiliary Basis Set <=

  Basis Set: (CC-PVDZ AUX)
    Blend: CC-PVDZ-JKFIT
    Number of shells: 198
    Number of basis function: 558
    Number of Cartesian functions: 636
    Spherical Harmonics?: true
    Max angular momentum: 3

  Cached 16.7% of DFT collocation blocks in 0.325 [GiB].

  Minimum eigenvalue in the overlap matrix is 3.8592942748E-04.
  Using Symmetric Orthogonalization.

  SCF Guess: Superposition of Atomic Densities via on-the-fly atomic UHF.

  ==> Iterations <==

                           Total Energy        Delta E     RMS |[F,P]|

   @DF-RKS iter SAD:  -231.65163216637202   -2.31652e+02   0.00000e+00 
   @DF-RKS iter   1:  -231.94330853742991   -2.91676e-01   9.49228e-03 DIIS
   @DF-RKS iter   2:  -232.01430748159808   -7.09989e-02   8.25983e-03 DIIS
   @DF-RKS iter   3:  -232.16118858488602   -1.46881e-01   4.77163e-04 DIIS
   @DF-RKS iter   4:  -232.16161509237463   -4.26507e-04   7.72554e-05 DIIS
   @DF-RKS iter   5:  -232.16163088066781   -1.57883e-05   4.55449e-06 DIIS
   @DF-RKS iter   6:  -232.16163096639588   -8.57281e-08   4.54582e-07 DIIS
   @DF-RKS iter   7:  -232.16163096728940   -8.93522e-10   1.20740e-07 DIIS
   @DF-RKS iter   8:  -232.16163096730651   -1.71099e-11   8.41092e-08 DIIS
   @DF-RKS iter   9:  -232.16163096732043   -1.39266e-11   2.02285e-09 DIIS
  Energy and wave function converged.


  ==> Post-Iterations <==

    Orbital Energies [Eh]
    ---------------------

    Doubly Occupied:                                                      

       1Ag   -10.555693     1Bu   -10.555399     2Bu   -10.555393  
       2Ag   -10.554715     3Ag   -10.554709     3Bu   -10.554389  
       4Ag    -0.949848     4Bu    -0.835717     5Bu    -0.835712  
       5Ag    -0.679575     6Ag    -0.679561     7Ag    -0.591133  
       6Bu    -0.529773     7Bu    -0.504737     8Bu    -0.481805  
       9Bu    -0.481791     1Au    -0.431215     8Ag    -0.397643  
       9Ag    -0.397639     1Bg    -0.302418     2Bg    -0.302409  

    Virtual:                                                              

       2Au     0.028837     3Au     0.028844    10Ag     0.099947  
      10Bu     0.141496    11Bu     0.141503    11Ag     0.174885  
      12Ag     0.174891    12Bu     0.193671     3Bg     0.201002  
      13Ag     0.314243    14Ag     0.314247    13Bu     0.335150  
      14Bu     0.335181    15Ag     0.451223    15Bu     0.452417  
      16Bu     0.506807     4Au     0.515166    16Ag     0.562444  
      17Ag     0.562474    18Ag     0.567579    17Bu     0.570208  
      18Bu     0.570252     4Bg     0.571341     5Bg     0.571344  
      19Ag     0.588189     5Au     0.645851     6Au     0.645853  
      19Bu     0.692296    20Bu     0.692302    20Ag     0.700844  
      21Ag     0.700870     6Bg     0.721818    21Bu     0.778213  
      22Ag     0.827035     7Au     0.881860    23Ag     0.909773  
      22Bu     0.927690    23Bu     0.927721     7Bg     0.974054  
      24Ag     1.029040    25Ag     1.029053    24Bu     1.049178  
      25Bu     1.049261     8Bg     1.059102     9Bg     1.059110  
      26Bu     1.095718     8Au     1.124280     9Au     1.124312  
      26Ag     1.258618    27Ag     1.314647    28Ag     1.314684  
      27Bu     1.505852    10Au     1.517667    11Au     1.517701  
      10Bg     1.556145    29Ag     1.571161    30Ag     1.640330  
      31Ag     1.640360    28Bu     1.641859    29Bu     1.641937  
      12Au     1.665124    11Bg     1.711171    12Bg     1.711211  
      30Bu     1.733176    31Bu     1.733232    32Bu     1.749812  
      13Bg     1.824691    14Bg     1.824706    33Bu     1.865001  
      34Bu     1.872142    35Bu     1.872186    32Ag     1.874779  
      33Ag     1.874855    34Ag     1.929161    13Au     1.997825  
      14Au     1.997838    35Ag     2.010676    36Ag     2.010693  
      36Bu     2.043370    15Au     2.206640    15Bg     2.268070  
      37Ag     2.377257    38Ag     2.436156    39Ag     2.436188  
      37Bu     2.443838    38Bu     2.443890    39Bu     2.626593  
      40Bu     2.626652    41Bu     2.696691    40Ag     2.785612  
      41Ag     2.904536    42Ag     2.904688    42Bu     3.612319  

    Final Occupation by Irrep:
             Ag    Bg    Au    Bu 
    DOCC [     9,    2,    1,    9 ]

  @DF-RKS Final Energy:  -232.16163096732043

   => Energetics <=

    Nuclear Repulsion Energy =            202.0133089353801665
    One-Electron Energy =                -711.1178357025723926
    Two-Electron Energy =                 293.6638603773737373
    DFT Exchange-Correlation Energy =     -16.7209645775019453
    Empirical Dispersion Energy =           0.0000000000000000
    VV10 Nonlocal Energy =                  0.0000000000000000
    Total Energy =                       -232.1616309673204341

Computation Completed


Properties will be evaluated at   0.000000,   0.000000,   0.000000 [a0]

Properties computed using the SCF density matrix

  Nuclear Dipole Moment: [e a0]
     X:    -0.0000      Y:    -0.0000      Z:     0.0000

  Electronic Dipole Moment: [e a0]
     X:     0.0000      Y:     0.0000      Z:     0.0000

  Dipole Moment: [e a0]
     X:    -0.0000      Y:    -0.0000      Z:     0.0000     Total:     0.0000

  Dipole Moment: [D]
     X:    -0.0000      Y:    -0.0000      Z:     0.0000     Total:     0.0000


*** tstop() called on atlantis at Wed Apr 20 06:35:46 2022
Module time:
	user time   =      20.46 seconds =       0.34 minutes
	system time =       0.07 seconds =       0.00 minutes
	total time  =         20 seconds =       0.33 minutes
Total time:
	user time   =      35.27 seconds =       0.59 minutes
	system time =       0.22 seconds =       0.00 minutes
	total time  =         35 seconds =       0.58 minutes

*** tstart() called on atlantis
*** at Wed Apr 20 06:35:46 2022


         ------------------------------------------------------------
                                   SCF GRAD                          
                          Rob Parrish, Justin Turney,                
                       Andy Simmonett, and Alex Sokolov              
         ------------------------------------------------------------

  ==> Geometry <==

    Molecular point group: c2h
    Full point group: C2h

    Geometry (in Angstrom), charge = 0, multiplicity = 1:

       Center              X                  Y                   Z               Mass       
    ------------   -----------------  -----------------  -----------------  -----------------
         C           -1.221510000000    -0.693250000000     0.000000000000    12.000000000000
         C           -1.211140000000     0.711220000000     0.000000000000    12.000000000000
         C           -0.010370000000    -1.404520000000     0.000000000000    12.000000000000
         C            0.010370000000     1.404520000000     0.000000000000    12.000000000000
         C            1.211140000000    -0.711220000000     0.000000000000    12.000000000000
         C            1.221510000000     0.693250000000     0.000000000000    12.000000000000
         H           -2.173110000000    -1.233320000000     0.000000000000     1.007825032230
         H           -2.154640000000     1.265330000000     0.000000000000     1.007825032230
         H           -0.018480000000    -2.498650000000     0.000000000000     1.007825032230
         H            0.018480000000     2.498650000000     0.000000000000     1.007825032230
         H            2.154640000000    -1.265330000000     0.000000000000     1.007825032230
         H            2.173110000000     1.233320000000     0.000000000000     1.007825032230

  Nuclear repulsion =  202.013308935380167

  ==> Basis Set <==

  Basis Set: CC-PVDZ
    Blend: CC-PVDZ
    Number of shells: 54
    Number of basis function: 114
    Number of Cartesian functions: 120
    Spherical Harmonics?: true
    Max angular momentum: 2

  ==> DFJKGrad: Density-Fitted SCF Gradients <==

    Gradient:                    1
    J tasked:                  Yes
    K tasked:                  Yes
    wK tasked:                  No
    OpenMP threads:              1
    Integrals threads:           1
    Memory [MiB]:              375
    Schwarz Cutoff:          0E+00
    Fitting Condition:       1E-10

   => Auxiliary Basis Set <=

  Basis Set: (CC-PVDZ AUX)
    Blend: CC-PVDZ-JKFIT
    Number of shells: 198
    Number of basis function: 558
    Number of Cartesian functions: 636
    Spherical Harmonics?: true
    Max angular momentum: 3

  ==> DFT Potential <==

   => Composite Functional: M06-2X <= 

    Hybrid M06-2X Meta-GGA XC Functional

    Y. Zhao and D. G. Truhlar,  Theor. Chem. Acc., 120, 215, 2008


    Deriv               =              1
    GGA                 =           TRUE
    Meta                =           TRUE

    Exchange Hybrid     =           TRUE
    MP2 Hybrid          =          FALSE

   => Exchange Functionals <=

    1.0000   XC_HYB_MGGA_X_M06_2X

   => Exact (HF) Exchange <=

    0.5400               HF 

   => Correlation Functionals <=

    1.0000   XC_MGGA_C_M06_2X

   => Molecular Quadrature <=

    Radial Scheme          =       TREUTLER
    Pruning Scheme         =           FLAT
    Nuclear Scheme         =       TREUTLER

    BS radius alpha        =              1
    Pruning alpha          =              1
    Radial Points          =             75
    Spherical Points       =            302
    Total Points           =         266174
    Total Blocks           =           2094
    Max Points             =            256
    Max Functions          =            114


  -Total Gradient:
     Atom            X                  Y                   Z
    ------   -----------------  -----------------  -----------------
       1       -0.006402188043    -0.003612662801     0.000000000000
       2       -0.006363581196     0.003749518801     0.000000000000
       3       -0.000035904099    -0.007402710549     0.000000000000
       4        0.000035904099     0.007402710549    -0.000000000000
       5        0.006363581196    -0.003749518801     0.000000000000
       6        0.006402188043     0.003612662801     0.000000000000
       7       -0.002045357026    -0.001203660047     0.000000000000
       8       -0.002018980268     0.001277433202     0.000000000000
       9       -0.000004798974    -0.002371084709     0.000000000000
      10        0.000004798974     0.002371084709     0.000000000000
      11        0.002018980268    -0.001277433202     0.000000000000
      12        0.002045357026     0.001203660047     0.000000000000


*** tstop() called on atlantis at Wed Apr 20 06:35:51 2022
Module time:
	user time   =       4.30 seconds =       0.07 minutes
	system time =       0.03 seconds =       0.00 minutes
	total time  =          5 seconds =       0.08 minutes
Total time:
	user time   =      39.57 seconds =       0.66 minutes
	system time =       0.25 seconds =       0.00 minutes
	total time  =         40 seconds =       0.67 minutes

  Based on options and gradient (rms=3.17E-03), recommend projecting translations and projecting rotations.
hessian() will perform frequency computation by finite difference of analytic gradients.

         ----------------------------------------------------------
                                   FINDIF
                     R. A. King and Jonathon Misiewicz
         ---------------------------------------------------------

  Using finite-differences of gradients to determine vibrational frequencies and 
  normal modes.  Resulting frequencies are only valid at stationary points.
    Generating geometries for use with 3-point formula.
    Displacement size will be 5.00e-03.
    Number of atoms is 12.
    Number of irreps is 4.
    Number of SALCs is 30.
    Translations projected? 1. Rotations projected? 1.
    Index of SALCs per irrep:
     1 :  0  1  2  3  4  5  6  7  8  9  10 
     2 :  11  12  13  14 
     3 :  15  16  17  18  19 
     4 :  20  21  22  23  24  25  26  27  28  29 
    Number of SALCs per irrep:
     Irrep 1: 11
     Irrep 2: 4
     Irrep 3: 5
     Irrep 4: 10
    Number of geometries (including reference) is 42.
    Number of displacements per irrep:
      Irrep 1: 22
      Irrep 2: 4
      Irrep 3: 5
      Irrep 4: 10

  //>>>>>>>>>>>>>>>>>>>>>>>>>>>>>>>>>>>//
  //    Loading displacement 1 of 42   //
  //<<<<<<<<<<<<<<<<<<<<<<<<<<<<<<<<<<<//
gradient() will perform analytic gradient computation.

*** tstart() called on atlantis
*** at Wed Apr 20 06:35:51 2022

   => Loading Basis Set <=

    Name: CC-PVDZ
    Role: ORBITAL
    Keyword: BASIS
    atoms 1-6  entry C          line   138 file /home/akrom/software/anaconda3/envs/ffpenv/share/psi4/basis/cc-pvdz.gbs 
    atoms 7-12 entry H          line    22 file /home/akrom/software/anaconda3/envs/ffpenv/share/psi4/basis/cc-pvdz.gbs 


         ---------------------------------------------------------
                                   SCF
               by Justin Turney, Rob Parrish, Andy Simmonett
                          and Daniel G. A. Smith
                              RKS Reference
                        1 Threads,    500 MiB Core
         ---------------------------------------------------------

  ==> Geometry <==

    Molecular point group: c2h
    Full point group: C2h

    Geometry (in Angstrom), charge = 0, multiplicity = 1:

       Center              X                  Y                   Z               Mass       
    ------------   -----------------  -----------------  -----------------  -----------------
         C           -1.221510000000    -0.693250000000     0.000000000000    12.000000000000
         C           -1.211140000000     0.711220000000     0.000000000000    12.000000000000
         C           -0.010370000000    -1.404520000000     0.000000000000    12.000000000000
         C            0.010370000000     1.404520000000     0.000000000000    12.000000000000
         C            1.211140000000    -0.711220000000     0.000000000000    12.000000000000
         C            1.221510000000     0.693250000000     0.000000000000    12.000000000000
         H           -2.173110000000    -1.233320000000     0.000000000000     1.007825032230
         H           -2.154640000000     1.265330000000     0.000000000000     1.007825032230
         H           -0.018480000000    -2.498650000000     0.000000000000     1.007825032230
         H            0.018480000000     2.498650000000     0.000000000000     1.007825032230
         H            2.154640000000    -1.265330000000     0.000000000000     1.007825032230
         H            2.173110000000     1.233320000000     0.000000000000     1.007825032230

  Running in c2h symmetry.

  Rotational constants: A =      0.18753  B =      0.18752  C =      0.09376 [cm^-1]
  Rotational constants: A =   5621.92707  B =   5621.82252  C =   2810.93740 [MHz]
  Nuclear repulsion =  202.013308935380167

  Charge       = 0
  Multiplicity = 1
  Electrons    = 42
  Nalpha       = 21
  Nbeta        = 21

  ==> Algorithm <==

  SCF Algorithm Type is DF.
  DIIS enabled.
  MOM disabled.
  Fractional occupation disabled.
  Guess Type is SAD.
  Energy threshold   = 1.00e-08
  Density threshold  = 1.00e-08
  Integral threshold = 0.00e+00

  ==> Primary Basis <==

  Basis Set: CC-PVDZ
    Blend: CC-PVDZ
    Number of shells: 54
    Number of basis function: 114
    Number of Cartesian functions: 120
    Spherical Harmonics?: true
    Max angular momentum: 2

  ==> DFT Potential <==

   => Composite Functional: M06-2X <= 

    Hybrid M06-2X Meta-GGA XC Functional

    Y. Zhao and D. G. Truhlar,  Theor. Chem. Acc., 120, 215, 2008


    Deriv               =              1
    GGA                 =           TRUE
    Meta                =           TRUE

    Exchange Hybrid     =           TRUE
    MP2 Hybrid          =          FALSE

   => Exchange Functionals <=

    1.0000   XC_HYB_MGGA_X_M06_2X

   => Exact (HF) Exchange <=

    0.5400               HF 

   => Correlation Functionals <=

    1.0000   XC_MGGA_C_M06_2X

   => Molecular Quadrature <=

    Radial Scheme          =       TREUTLER
    Pruning Scheme         =           FLAT
    Nuclear Scheme         =       TREUTLER

    BS radius alpha        =              1
    Pruning alpha          =              1
    Radial Points          =             75
    Spherical Points       =            302
    Total Points           =         266174
    Total Blocks           =           2094
    Max Points             =            256
    Max Functions          =            114

   => Loading Basis Set <=

    Name: (CC-PVDZ AUX)
    Role: JKFIT
    Keyword: DF_BASIS_SCF
    atoms 1-6  entry C          line   121 file /home/akrom/software/anaconda3/envs/ffpenv/share/psi4/basis/cc-pvdz-jkfit.gbs 
    atoms 7-12 entry H          line    51 file /home/akrom/software/anaconda3/envs/ffpenv/share/psi4/basis/cc-pvdz-jkfit.gbs 

  ==> Pre-Iterations <==

   -------------------------------------------------------
    Irrep   Nso     Nmo     Nalpha   Nbeta   Ndocc  Nsocc
   -------------------------------------------------------
     Ag        42      42       0       0       0       0
     Bg        15      15       0       0       0       0
     Au        15      15       0       0       0       0
     Bu        42      42       0       0       0       0
   -------------------------------------------------------
    Total     114     114      21      21      21       0
   -------------------------------------------------------

  ==> Integral Setup <==

  DFHelper Memory: AOs need 0.058 GiB; user supplied 0.058 GiB. Using in-core AOs.

  ==> MemDFJK: Density-Fitted J/K Matrices <==

    J tasked:                   Yes
    K tasked:                   Yes
    wK tasked:                   No
    OpenMP threads:               1
    Memory [MiB]:                59
    Algorithm:                 Core
    Schwarz Cutoff:           1E-12
    Mask sparsity (%):       0.4155
    Fitting Condition:        1E-10

   => Auxiliary Basis Set <=

  Basis Set: (CC-PVDZ AUX)
    Blend: CC-PVDZ-JKFIT
    Number of shells: 198
    Number of basis function: 558
    Number of Cartesian functions: 636
    Spherical Harmonics?: true
    Max angular momentum: 3

  Cached 16.7% of DFT collocation blocks in 0.325 [GiB].

  Minimum eigenvalue in the overlap matrix is 3.8592942748E-04.
  Using Symmetric Orthogonalization.

  SCF Guess: Superposition of Atomic Densities via on-the-fly atomic UHF.

  ==> Iterations <==

                           Total Energy        Delta E     RMS |[F,P]|

   @DF-RKS iter SAD:  -231.65163216661651   -2.31652e+02   0.00000e+00 
   @DF-RKS iter   1:  -231.94330853767329   -2.91676e-01   9.49228e-03 DIIS
   @DF-RKS iter   2:  -232.01430748184251   -7.09989e-02   8.25983e-03 DIIS
   @DF-RKS iter   3:  -232.16118858513408   -1.46881e-01   4.77163e-04 DIIS
   @DF-RKS iter   4:  -232.16161509262258   -4.26507e-04   7.72554e-05 DIIS
   @DF-RKS iter   5:  -232.16163088091628   -1.57883e-05   4.55449e-06 DIIS
   @DF-RKS iter   6:  -232.16163096664343   -8.57272e-08   4.54582e-07 DIIS
   @DF-RKS iter   7:  -232.16163096753763   -8.94204e-10   1.20740e-07 DIIS
   @DF-RKS iter   8:  -232.16163096755466   -1.70246e-11   8.41092e-08 DIIS
   @DF-RKS iter   9:  -232.16163096756830   -1.36424e-11   2.02285e-09 DIIS
  Energy and wave function converged.


  ==> Post-Iterations <==

    Orbital Energies [Eh]
    ---------------------

    Doubly Occupied:                                                      

       1Ag   -10.555693     1Bu   -10.555399     2Bu   -10.555393  
       2Ag   -10.554715     3Ag   -10.554709     3Bu   -10.554389  
       4Ag    -0.949848     4Bu    -0.835717     5Bu    -0.835712  
       5Ag    -0.679575     6Ag    -0.679561     7Ag    -0.591133  
       6Bu    -0.529773     7Bu    -0.504737     8Bu    -0.481805  
       9Bu    -0.481791     1Au    -0.431215     8Ag    -0.397643  
       9Ag    -0.397639     1Bg    -0.302418     2Bg    -0.302409  

    Virtual:                                                              

       2Au     0.028837     3Au     0.028844    10Ag     0.099947  
      10Bu     0.141496    11Bu     0.141503    11Ag     0.174885  
      12Ag     0.174891    12Bu     0.193671     3Bg     0.201002  
      13Ag     0.314243    14Ag     0.314247    13Bu     0.335150  
      14Bu     0.335181    15Ag     0.451223    15Bu     0.452417  
      16Bu     0.506807     4Au     0.515166    16Ag     0.562444  
      17Ag     0.562474    18Ag     0.567579    17Bu     0.570208  
      18Bu     0.570252     4Bg     0.571341     5Bg     0.571344  
      19Ag     0.588189     5Au     0.645851     6Au     0.645853  
      19Bu     0.692296    20Bu     0.692302    20Ag     0.700844  
      21Ag     0.700870     6Bg     0.721818    21Bu     0.778213  
      22Ag     0.827035     7Au     0.881860    23Ag     0.909773  
      22Bu     0.927690    23Bu     0.927721     7Bg     0.974054  
      24Ag     1.029040    25Ag     1.029053    24Bu     1.049178  
      25Bu     1.049261     8Bg     1.059102     9Bg     1.059110  
      26Bu     1.095718     8Au     1.124280     9Au     1.124312  
      26Ag     1.258618    27Ag     1.314647    28Ag     1.314684  
      27Bu     1.505852    10Au     1.517667    11Au     1.517701  
      10Bg     1.556145    29Ag     1.571161    30Ag     1.640330  
      31Ag     1.640360    28Bu     1.641859    29Bu     1.641937  
      12Au     1.665124    11Bg     1.711171    12Bg     1.711211  
      30Bu     1.733176    31Bu     1.733232    32Bu     1.749812  
      13Bg     1.824691    14Bg     1.824706    33Bu     1.865001  
      34Bu     1.872142    35Bu     1.872186    32Ag     1.874779  
      33Ag     1.874855    34Ag     1.929161    13Au     1.997825  
      14Au     1.997838    35Ag     2.010676    36Ag     2.010693  
      36Bu     2.043370    15Au     2.206640    15Bg     2.268070  
      37Ag     2.377257    38Ag     2.436156    39Ag     2.436188  
      37Bu     2.443838    38Bu     2.443890    39Bu     2.626593  
      40Bu     2.626652    41Bu     2.696691    40Ag     2.785612  
      41Ag     2.904536    42Ag     2.904688    42Bu     3.612319  

    Final Occupation by Irrep:
             Ag    Bg    Au    Bu 
    DOCC [     9,    2,    1,    9 ]

  @DF-RKS Final Energy:  -232.16163096756830

   => Energetics <=

    Nuclear Repulsion Energy =            202.0133089353801665
    One-Electron Energy =                -711.1178357026735739
    Two-Electron Energy =                 293.6638603772274791
    DFT Exchange-Correlation Energy =     -16.7209645775023610
    Empirical Dispersion Energy =           0.0000000000000000
    VV10 Nonlocal Energy =                  0.0000000000000000
    Total Energy =                       -232.1616309675682999

Computation Completed


Properties will be evaluated at   0.000000,   0.000000,   0.000000 [a0]

Properties computed using the SCF density matrix

  Nuclear Dipole Moment: [e a0]
     X:    -0.0000      Y:    -0.0000      Z:     0.0000

  Electronic Dipole Moment: [e a0]
     X:     0.0000      Y:     0.0000      Z:     0.0000

  Dipole Moment: [e a0]
     X:    -0.0000      Y:    -0.0000      Z:     0.0000     Total:     0.0000

  Dipole Moment: [D]
     X:    -0.0000      Y:    -0.0000      Z:     0.0000     Total:     0.0000


*** tstop() called on atlantis at Wed Apr 20 06:36:12 2022
Module time:
	user time   =      20.56 seconds =       0.34 minutes
	system time =       0.05 seconds =       0.00 minutes
	total time  =         21 seconds =       0.35 minutes
Total time:
	user time   =      60.41 seconds =       1.01 minutes
	system time =       0.31 seconds =       0.01 minutes
	total time  =         61 seconds =       1.02 minutes

*** tstart() called on atlantis
*** at Wed Apr 20 06:36:12 2022


         ------------------------------------------------------------
                                   SCF GRAD                          
                          Rob Parrish, Justin Turney,                
                       Andy Simmonett, and Alex Sokolov              
         ------------------------------------------------------------

  ==> Geometry <==

    Molecular point group: c2h
    Full point group: C2h

    Geometry (in Angstrom), charge = 0, multiplicity = 1:

       Center              X                  Y                   Z               Mass       
    ------------   -----------------  -----------------  -----------------  -----------------
         C           -1.221510000000    -0.693250000000     0.000000000000    12.000000000000
         C           -1.211140000000     0.711220000000     0.000000000000    12.000000000000
         C           -0.010370000000    -1.404520000000     0.000000000000    12.000000000000
         C            0.010370000000     1.404520000000     0.000000000000    12.000000000000
         C            1.211140000000    -0.711220000000     0.000000000000    12.000000000000
         C            1.221510000000     0.693250000000     0.000000000000    12.000000000000
         H           -2.173110000000    -1.233320000000     0.000000000000     1.007825032230
         H           -2.154640000000     1.265330000000     0.000000000000     1.007825032230
         H           -0.018480000000    -2.498650000000     0.000000000000     1.007825032230
         H            0.018480000000     2.498650000000     0.000000000000     1.007825032230
         H            2.154640000000    -1.265330000000     0.000000000000     1.007825032230
         H            2.173110000000     1.233320000000     0.000000000000     1.007825032230

  Nuclear repulsion =  202.013308935380167

  ==> Basis Set <==

  Basis Set: CC-PVDZ
    Blend: CC-PVDZ
    Number of shells: 54
    Number of basis function: 114
    Number of Cartesian functions: 120
    Spherical Harmonics?: true
    Max angular momentum: 2

  ==> DFJKGrad: Density-Fitted SCF Gradients <==

    Gradient:                    1
    J tasked:                  Yes
    K tasked:                  Yes
    wK tasked:                  No
    OpenMP threads:              1
    Integrals threads:           1
    Memory [MiB]:              375
    Schwarz Cutoff:          0E+00
    Fitting Condition:       1E-10

   => Auxiliary Basis Set <=

  Basis Set: (CC-PVDZ AUX)
    Blend: CC-PVDZ-JKFIT
    Number of shells: 198
    Number of basis function: 558
    Number of Cartesian functions: 636
    Spherical Harmonics?: true
    Max angular momentum: 3

  ==> DFT Potential <==

   => Composite Functional: M06-2X <= 

    Hybrid M06-2X Meta-GGA XC Functional

    Y. Zhao and D. G. Truhlar,  Theor. Chem. Acc., 120, 215, 2008


    Deriv               =              1
    GGA                 =           TRUE
    Meta                =           TRUE

    Exchange Hybrid     =           TRUE
    MP2 Hybrid          =          FALSE

   => Exchange Functionals <=

    1.0000   XC_HYB_MGGA_X_M06_2X

   => Exact (HF) Exchange <=

    0.5400               HF 

   => Correlation Functionals <=

    1.0000   XC_MGGA_C_M06_2X

   => Molecular Quadrature <=

    Radial Scheme          =       TREUTLER
    Pruning Scheme         =           FLAT
    Nuclear Scheme         =       TREUTLER

    BS radius alpha        =              1
    Pruning alpha          =              1
    Radial Points          =             75
    Spherical Points       =            302
    Total Points           =         266174
    Total Blocks           =           2094
    Max Points             =            256
    Max Functions          =            114


  -Total Gradient:
     Atom            X                  Y                   Z
    ------   -----------------  -----------------  -----------------
       1       -0.006402187475    -0.003612662578     0.000000000000
       2       -0.006363579905     0.003749518692     0.000000000000
       3       -0.000035903619    -0.007402708742    -0.000000000000
       4        0.000035903619     0.007402708742    -0.000000000000
       5        0.006363579905    -0.003749518692     0.000000000000
       6        0.006402187475     0.003612662578     0.000000000000
       7       -0.002045356051    -0.001203659524     0.000000000000
       8       -0.002018979493     0.001277432771     0.000000000000
       9       -0.000004798968    -0.002371084293     0.000000000000
      10        0.000004798968     0.002371084293     0.000000000000
      11        0.002018979493    -0.001277432771     0.000000000000
      12        0.002045356051     0.001203659524     0.000000000000


*** tstop() called on atlantis at Wed Apr 20 06:36:16 2022
Module time:
	user time   =       4.31 seconds =       0.07 minutes
	system time =       0.03 seconds =       0.00 minutes
	total time  =          4 seconds =       0.07 minutes
Total time:
	user time   =      64.72 seconds =       1.08 minutes
	system time =       0.34 seconds =       0.01 minutes
	total time  =         65 seconds =       1.08 minutes

  //>>>>>>>>>>>>>>>>>>>>>>>>>>>>>>>>>>>//
  //    Loading displacement 2 of 42   //
  //<<<<<<<<<<<<<<<<<<<<<<<<<<<<<<<<<<<//
gradient() will perform analytic gradient computation.

*** tstart() called on atlantis
*** at Wed Apr 20 06:36:16 2022

   => Loading Basis Set <=

    Name: CC-PVDZ
    Role: ORBITAL
    Keyword: BASIS
    atoms 1-6  entry C          line   138 file /home/akrom/software/anaconda3/envs/ffpenv/share/psi4/basis/cc-pvdz.gbs 
    atoms 7-12 entry H          line    22 file /home/akrom/software/anaconda3/envs/ffpenv/share/psi4/basis/cc-pvdz.gbs 


         ---------------------------------------------------------
                                   SCF
               by Justin Turney, Rob Parrish, Andy Simmonett
                          and Daniel G. A. Smith
                              RKS Reference
                        1 Threads,    500 MiB Core
         ---------------------------------------------------------

  ==> Geometry <==

    Molecular point group: c2h
    Full point group: C2h

    Geometry (in Angstrom), charge = 0, multiplicity = 1:

       Center              X                  Y                   Z               Mass       
    ------------   -----------------  -----------------  -----------------  -----------------
         C           -1.222032477591    -0.693313109608     0.000000000000    12.000000000000
         C           -1.211176745353     0.711157426160     0.000000000000    12.000000000000
         C           -0.010297435136    -1.404520535769     0.000000000000    12.000000000000
         C            0.010297435136     1.404520535769     0.000000000000    12.000000000000
         C            1.211176745353    -0.711157426160     0.000000000000    12.000000000000
         C            1.222032477591     0.693313109608     0.000000000000    12.000000000000
         H           -2.173046280225    -1.233432274252     0.000000000000     1.007825032230
         H           -2.154705373579     1.265218680005     0.000000000000     1.007825032230
         H           -0.018350906646    -2.498650954774     0.000000000000     1.007825032230
         H            0.018350906646     2.498650954774     0.000000000000     1.007825032230
         H            2.154705373579    -1.265218680005     0.000000000000     1.007825032230
         H            2.173046280225     1.233432274252     0.000000000000     1.007825032230

  Running in c2h symmetry.

  Rotational constants: A =      0.18753  B =      0.18745  C =      0.09375 [cm^-1]
  Rotational constants: A =   5621.97670  B =   5619.72613  C =   2810.42560 [MHz]
  Nuclear repulsion =  201.998047561272216

  Charge       = 0
  Multiplicity = 1
  Electrons    = 42
  Nalpha       = 21
  Nbeta        = 21

  ==> Algorithm <==

  SCF Algorithm Type is DF.
  DIIS enabled.
  MOM disabled.
  Fractional occupation disabled.
  Guess Type is SAD.
  Energy threshold   = 1.00e-08
  Density threshold  = 1.00e-08
  Integral threshold = 0.00e+00

  ==> Primary Basis <==

  Basis Set: CC-PVDZ
    Blend: CC-PVDZ
    Number of shells: 54
    Number of basis function: 114
    Number of Cartesian functions: 120
    Spherical Harmonics?: true
    Max angular momentum: 2

  ==> DFT Potential <==

   => Composite Functional: M06-2X <= 

    Hybrid M06-2X Meta-GGA XC Functional

    Y. Zhao and D. G. Truhlar,  Theor. Chem. Acc., 120, 215, 2008


    Deriv               =              1
    GGA                 =           TRUE
    Meta                =           TRUE

    Exchange Hybrid     =           TRUE
    MP2 Hybrid          =          FALSE

   => Exchange Functionals <=

    1.0000   XC_HYB_MGGA_X_M06_2X

   => Exact (HF) Exchange <=

    0.5400               HF 

   => Correlation Functionals <=

    1.0000   XC_MGGA_C_M06_2X

   => Molecular Quadrature <=

    Radial Scheme          =       TREUTLER
    Pruning Scheme         =           FLAT
    Nuclear Scheme         =       TREUTLER

    BS radius alpha        =              1
    Pruning alpha          =              1
    Radial Points          =             75
    Spherical Points       =            302
    Total Points           =         266208
    Total Blocks           =           2088
    Max Points             =            256
    Max Functions          =            114

   => Loading Basis Set <=

    Name: (CC-PVDZ AUX)
    Role: JKFIT
    Keyword: DF_BASIS_SCF
    atoms 1-6  entry C          line   121 file /home/akrom/software/anaconda3/envs/ffpenv/share/psi4/basis/cc-pvdz-jkfit.gbs 
    atoms 7-12 entry H          line    51 file /home/akrom/software/anaconda3/envs/ffpenv/share/psi4/basis/cc-pvdz-jkfit.gbs 

  ==> Pre-Iterations <==

   -------------------------------------------------------
    Irrep   Nso     Nmo     Nalpha   Nbeta   Ndocc  Nsocc
   -------------------------------------------------------
     Ag        42      42       0       0       0       0
     Bg        15      15       0       0       0       0
     Au        15      15       0       0       0       0
     Bu        42      42       0       0       0       0
   -------------------------------------------------------
    Total     114     114      21      21      21       0
   -------------------------------------------------------

  ==> Integral Setup <==

  DFHelper Memory: AOs need 0.058 GiB; user supplied 0.058 GiB. Using in-core AOs.

  ==> MemDFJK: Density-Fitted J/K Matrices <==

    J tasked:                   Yes
    K tasked:                   Yes
    wK tasked:                   No
    OpenMP threads:               1
    Memory [MiB]:                59
    Algorithm:                 Core
    Schwarz Cutoff:           1E-12
    Mask sparsity (%):       0.4155
    Fitting Condition:        1E-10

   => Auxiliary Basis Set <=

  Basis Set: (CC-PVDZ AUX)
    Blend: CC-PVDZ-JKFIT
    Number of shells: 198
    Number of basis function: 558
    Number of Cartesian functions: 636
    Spherical Harmonics?: true
    Max angular momentum: 3

  Cached 16.7% of DFT collocation blocks in 0.314 [GiB].

  Minimum eigenvalue in the overlap matrix is 3.8629145329E-04.
  Using Symmetric Orthogonalization.

  SCF Guess: Superposition of Atomic Densities via on-the-fly atomic UHF.

  ==> Iterations <==

                           Total Energy        Delta E     RMS |[F,P]|

   @DF-RKS iter SAD:  -231.65073724466038   -2.31651e+02   0.00000e+00 
   @DF-RKS iter   1:  -231.94356840243574   -2.92831e-01   9.48886e-03 DIIS
   @DF-RKS iter   2:  -232.01461145571776   -7.10431e-02   8.25422e-03 DIIS
   @DF-RKS iter   3:  -232.16129169872644   -1.46680e-01   4.77028e-04 DIIS
   @DF-RKS iter   4:  -232.16171793402881   -4.26235e-04   7.71645e-05 DIIS
   @DF-RKS iter   5:  -232.16173367539542   -1.57414e-05   4.67200e-06 DIIS
   @DF-RKS iter   6:  -232.16173375969794   -8.43025e-08   1.39709e-06 DIIS
   @DF-RKS iter   7:  -232.16173376187294   -2.17500e-09   1.04926e-06 DIIS
   @DF-RKS iter   8:  -232.16173376402753   -2.15459e-09   3.01778e-08 DIIS
   @DF-RKS iter   9:  -232.16173376403040   -2.87059e-12   1.77855e-09 DIIS
  Energy and wave function converged.


  ==> Post-Iterations <==

    Orbital Energies [Eh]
    ---------------------

    Doubly Occupied:                                                      

       1Ag   -10.555728     1Bu   -10.555441     2Bu   -10.555420  
       2Ag   -10.554758     3Ag   -10.554736     3Bu   -10.554424  
       4Ag    -0.949780     4Bu    -0.835742     5Bu    -0.835631  
       5Ag    -0.679656     6Ag    -0.679496     7Ag    -0.591140  
       6Bu    -0.529859     7Bu    -0.504698     8Bu    -0.481882  
       9Bu    -0.481735     1Au    -0.431156     8Ag    -0.397807  
       9Ag    -0.397514     1Bg    -0.302447     2Bg    -0.302329  

    Virtual:                                                              

       2Au     0.028735     3Au     0.028881    10Ag     0.099987  
      10Bu     0.141500    11Bu     0.141540    11Ag     0.174870  
      12Ag     0.174897    12Bu     0.193675     3Bg     0.200921  
      13Ag     0.314132    14Ag     0.314284    13Bu     0.334984  
      14Bu     0.335190    15Ag     0.451212    15Bu     0.452452  
      16Bu     0.506736     4Au     0.515228    16Ag     0.562357  
      17Ag     0.562502    18Ag     0.567623    17Bu     0.570133  
      18Bu     0.570308     4Bg     0.571343     5Bg     0.571391  
      19Ag     0.588047     5Au     0.645821     6Au     0.645880  
      19Bu     0.692258    20Bu     0.692438    20Ag     0.700836  
      21Ag     0.700979     6Bg     0.721799    21Bu     0.778118  
      22Ag     0.827097     7Au     0.881875    23Ag     0.909694  
      22Bu     0.927538    23Bu     0.927755     7Bg     0.974020  
      24Ag     1.028957    25Ag     1.028992    24Bu     1.048947  
      25Bu     1.049084     8Bg     1.058965     9Bg     1.059117  
      26Bu     1.095668     8Au     1.124166     9Au     1.124270  
      26Ag     1.258711    27Ag     1.314671    28Ag     1.314710  
      27Bu     1.505758    10Au     1.517555    11Au     1.517745  
      10Bg     1.556099    29Ag     1.571180    30Ag     1.640121  
      31Ag     1.640349    28Bu     1.641695    29Bu     1.641865  
      12Au     1.665246    11Bg     1.711095    12Bg     1.711465  
      30Bu     1.733161    31Bu     1.733215    32Bu     1.749686  
      13Bg     1.824483    14Bg     1.824717    33Bu     1.865104  
      34Bu     1.871835    35Bu     1.872007    32Ag     1.874474  
      33Ag     1.874905    34Ag     1.929149    13Au     1.997771  
      14Au     1.998071    35Ag     2.010715    36Ag     2.010959  
      36Bu     2.043571    15Au     2.206420    15Bg     2.268117  
      37Ag     2.377595    38Ag     2.435805    39Ag     2.436175  
      37Bu     2.443767    38Bu     2.444238    39Bu     2.626314  
      40Bu     2.626719    41Bu     2.696533    40Ag     2.785578  
      41Ag     2.904377    42Ag     2.904958    42Bu     3.612302  

    Final Occupation by Irrep:
             Ag    Bg    Au    Bu 
    DOCC [     9,    2,    1,    9 ]

  @DF-RKS Final Energy:  -232.16173376403040

   => Energetics <=

    Nuclear Repulsion Energy =            201.9980475612722159
    One-Electron Energy =                -711.0872643266377509
    Two-Electron Energy =                 293.6484451898649581
    DFT Exchange-Correlation Energy =     -16.7209621885297572
    Empirical Dispersion Energy =           0.0000000000000000
    VV10 Nonlocal Energy =                  0.0000000000000000
    Total Energy =                       -232.1617337640303731

Computation Completed


Properties will be evaluated at   0.000000,   0.000000,   0.000000 [a0]

Properties computed using the SCF density matrix

  Nuclear Dipole Moment: [e a0]
     X:     0.0000      Y:     0.0000      Z:     0.0000

  Electronic Dipole Moment: [e a0]
     X:     0.0000      Y:     0.0000      Z:     0.0000

  Dipole Moment: [e a0]
     X:     0.0000      Y:     0.0000      Z:     0.0000     Total:     0.0000

  Dipole Moment: [D]
     X:     0.0000      Y:     0.0000      Z:     0.0000     Total:     0.0000


*** tstop() called on atlantis at Wed Apr 20 06:36:37 2022
Module time:
	user time   =      20.45 seconds =       0.34 minutes
	system time =       0.05 seconds =       0.00 minutes
	total time  =         21 seconds =       0.35 minutes
Total time:
	user time   =      85.18 seconds =       1.42 minutes
	system time =       0.39 seconds =       0.01 minutes
	total time  =         86 seconds =       1.43 minutes

*** tstart() called on atlantis
*** at Wed Apr 20 06:36:37 2022


         ------------------------------------------------------------
                                   SCF GRAD                          
                          Rob Parrish, Justin Turney,                
                       Andy Simmonett, and Alex Sokolov              
         ------------------------------------------------------------

  ==> Geometry <==

    Molecular point group: c2h
    Full point group: C2h

    Geometry (in Angstrom), charge = 0, multiplicity = 1:

       Center              X                  Y                   Z               Mass       
    ------------   -----------------  -----------------  -----------------  -----------------
         C           -1.222032477591    -0.693313109608     0.000000000000    12.000000000000
         C           -1.211176745353     0.711157426160     0.000000000000    12.000000000000
         C           -0.010297435136    -1.404520535769     0.000000000000    12.000000000000
         C            0.010297435136     1.404520535769     0.000000000000    12.000000000000
         C            1.211176745353    -0.711157426160     0.000000000000    12.000000000000
         C            1.222032477591     0.693313109608     0.000000000000    12.000000000000
         H           -2.173046280225    -1.233432274252     0.000000000000     1.007825032230
         H           -2.154705373579     1.265218680005     0.000000000000     1.007825032230
         H           -0.018350906646    -2.498650954774     0.000000000000     1.007825032230
         H            0.018350906646     2.498650954774     0.000000000000     1.007825032230
         H            2.154705373579    -1.265218680005     0.000000000000     1.007825032230
         H            2.173046280225     1.233432274252     0.000000000000     1.007825032230

  Nuclear repulsion =  201.998047561272216

  ==> Basis Set <==

  Basis Set: CC-PVDZ
    Blend: CC-PVDZ
    Number of shells: 54
    Number of basis function: 114
    Number of Cartesian functions: 120
    Spherical Harmonics?: true
    Max angular momentum: 2

  ==> DFJKGrad: Density-Fitted SCF Gradients <==

    Gradient:                    1
    J tasked:                  Yes
    K tasked:                  Yes
    wK tasked:                  No
    OpenMP threads:              1
    Integrals threads:           1
    Memory [MiB]:              375
    Schwarz Cutoff:          0E+00
    Fitting Condition:       1E-10

   => Auxiliary Basis Set <=

  Basis Set: (CC-PVDZ AUX)
    Blend: CC-PVDZ-JKFIT
    Number of shells: 198
    Number of basis function: 558
    Number of Cartesian functions: 636
    Spherical Harmonics?: true
    Max angular momentum: 3

  ==> DFT Potential <==

   => Composite Functional: M06-2X <= 

    Hybrid M06-2X Meta-GGA XC Functional

    Y. Zhao and D. G. Truhlar,  Theor. Chem. Acc., 120, 215, 2008


    Deriv               =              1
    GGA                 =           TRUE
    Meta                =           TRUE

    Exchange Hybrid     =           TRUE
    MP2 Hybrid          =          FALSE

   => Exchange Functionals <=

    1.0000   XC_HYB_MGGA_X_M06_2X

   => Exact (HF) Exchange <=

    0.5400               HF 

   => Correlation Functionals <=

    1.0000   XC_MGGA_C_M06_2X

   => Molecular Quadrature <=

    Radial Scheme          =       TREUTLER
    Pruning Scheme         =           FLAT
    Nuclear Scheme         =       TREUTLER

    BS radius alpha        =              1
    Pruning alpha          =              1
    Radial Points          =             75
    Spherical Points       =            302
    Total Points           =         266208
    Total Blocks           =           2088
    Max Points             =            256
    Max Functions          =            114


  -Total Gradient:
     Atom            X                  Y                   Z
    ------   -----------------  -----------------  -----------------
       1       -0.007215577670    -0.003700439654     0.000000000000
       2       -0.006368378378     0.003760764225     0.000000000000
       3        0.000210922115    -0.007628747462     0.000000000000
       4       -0.000210922115     0.007628747462     0.000000000000
       5        0.006368378378    -0.003760764225     0.000000000000
       6        0.007215577670     0.003700439654     0.000000000000
       7       -0.001808314573    -0.001047013426     0.000000000000
       8       -0.002035730642     0.001164525707     0.000000000000
       9       -0.000043041781    -0.002394447765     0.000000000000
      10        0.000043041781     0.002394447765     0.000000000000
      11        0.002035730642    -0.001164525707     0.000000000000
      12        0.001808314573     0.001047013426     0.000000000000


*** tstop() called on atlantis at Wed Apr 20 06:36:41 2022
Module time:
	user time   =       4.30 seconds =       0.07 minutes
	system time =       0.04 seconds =       0.00 minutes
	total time  =          4 seconds =       0.07 minutes
Total time:
	user time   =      89.48 seconds =       1.49 minutes
	system time =       0.43 seconds =       0.01 minutes
	total time  =         90 seconds =       1.50 minutes

  //>>>>>>>>>>>>>>>>>>>>>>>>>>>>>>>>>>>//
  //    Loading displacement 3 of 42   //
  //<<<<<<<<<<<<<<<<<<<<<<<<<<<<<<<<<<<//
gradient() will perform analytic gradient computation.

*** tstart() called on atlantis
*** at Wed Apr 20 06:36:41 2022

   => Loading Basis Set <=

    Name: CC-PVDZ
    Role: ORBITAL
    Keyword: BASIS
    atoms 1-6  entry C          line   138 file /home/akrom/software/anaconda3/envs/ffpenv/share/psi4/basis/cc-pvdz.gbs 
    atoms 7-12 entry H          line    22 file /home/akrom/software/anaconda3/envs/ffpenv/share/psi4/basis/cc-pvdz.gbs 


         ---------------------------------------------------------
                                   SCF
               by Justin Turney, Rob Parrish, Andy Simmonett
                          and Daniel G. A. Smith
                              RKS Reference
                        1 Threads,    500 MiB Core
         ---------------------------------------------------------

  ==> Geometry <==

    Molecular point group: c2h
    Full point group: C2h

    Geometry (in Angstrom), charge = 0, multiplicity = 1:

       Center              X                  Y                   Z               Mass       
    ------------   -----------------  -----------------  -----------------  -----------------
         C           -1.220987522409    -0.693186890392     0.000000000000    12.000000000000
         C           -1.211103254647     0.711282573840     0.000000000000    12.000000000000
         C           -0.010442564864    -1.404519464231     0.000000000000    12.000000000000
         C            0.010442564864     1.404519464231     0.000000000000    12.000000000000
         C            1.211103254647    -0.711282573840     0.000000000000    12.000000000000
         C            1.220987522409     0.693186890392     0.000000000000    12.000000000000
         H           -2.173173719775    -1.233207725748     0.000000000000     1.007825032230
         H           -2.154574626421     1.265441319995     0.000000000000     1.007825032230
         H           -0.018609093354    -2.498649045226     0.000000000000     1.007825032230
         H            0.018609093354     2.498649045226     0.000000000000     1.007825032230
         H            2.154574626421    -1.265441319995     0.000000000000     1.007825032230
         H            2.173173719775     1.233207725748     0.000000000000     1.007825032230

  Running in c2h symmetry.

  Rotational constants: A =      0.18760  B =      0.18752  C =      0.09378 [cm^-1]
  Rotational constants: A =   5624.12726  B =   5621.66993  C =   2811.44916 [MHz]
  Nuclear repulsion =  202.028576396706484

  Charge       = 0
  Multiplicity = 1
  Electrons    = 42
  Nalpha       = 21
  Nbeta        = 21

  ==> Algorithm <==

  SCF Algorithm Type is DF.
  DIIS enabled.
  MOM disabled.
  Fractional occupation disabled.
  Guess Type is SAD.
  Energy threshold   = 1.00e-08
  Density threshold  = 1.00e-08
  Integral threshold = 0.00e+00

  ==> Primary Basis <==

  Basis Set: CC-PVDZ
    Blend: CC-PVDZ
    Number of shells: 54
    Number of basis function: 114
    Number of Cartesian functions: 120
    Spherical Harmonics?: true
    Max angular momentum: 2

  ==> DFT Potential <==

   => Composite Functional: M06-2X <= 

    Hybrid M06-2X Meta-GGA XC Functional

    Y. Zhao and D. G. Truhlar,  Theor. Chem. Acc., 120, 215, 2008


    Deriv               =              1
    GGA                 =           TRUE
    Meta                =           TRUE

    Exchange Hybrid     =           TRUE
    MP2 Hybrid          =          FALSE

   => Exchange Functionals <=

    1.0000   XC_HYB_MGGA_X_M06_2X

   => Exact (HF) Exchange <=

    0.5400               HF 

   => Correlation Functionals <=

    1.0000   XC_MGGA_C_M06_2X

   => Molecular Quadrature <=

    Radial Scheme          =       TREUTLER
    Pruning Scheme         =           FLAT
    Nuclear Scheme         =       TREUTLER

    BS radius alpha        =              1
    Pruning alpha          =              1
    Radial Points          =             75
    Spherical Points       =            302
    Total Points           =         266212
    Total Blocks           =           2094
    Max Points             =            256
    Max Functions          =            114

   => Loading Basis Set <=

    Name: (CC-PVDZ AUX)
    Role: JKFIT
    Keyword: DF_BASIS_SCF
    atoms 1-6  entry C          line   121 file /home/akrom/software/anaconda3/envs/ffpenv/share/psi4/basis/cc-pvdz-jkfit.gbs 
    atoms 7-12 entry H          line    51 file /home/akrom/software/anaconda3/envs/ffpenv/share/psi4/basis/cc-pvdz-jkfit.gbs 

  ==> Pre-Iterations <==

   -------------------------------------------------------
    Irrep   Nso     Nmo     Nalpha   Nbeta   Ndocc  Nsocc
   -------------------------------------------------------
     Ag        42      42       0       0       0       0
     Bg        15      15       0       0       0       0
     Au        15      15       0       0       0       0
     Bu        42      42       0       0       0       0
   -------------------------------------------------------
    Total     114     114      21      21      21       0
   -------------------------------------------------------

  ==> Integral Setup <==

  DFHelper Memory: AOs need 0.058 GiB; user supplied 0.058 GiB. Using in-core AOs.

  ==> MemDFJK: Density-Fitted J/K Matrices <==

    J tasked:                   Yes
    K tasked:                   Yes
    wK tasked:                   No
    OpenMP threads:               1
    Memory [MiB]:                59
    Algorithm:                 Core
    Schwarz Cutoff:           1E-12
    Mask sparsity (%):       0.4155
    Fitting Condition:        1E-10

   => Auxiliary Basis Set <=

  Basis Set: (CC-PVDZ AUX)
    Blend: CC-PVDZ-JKFIT
    Number of shells: 198
    Number of basis function: 558
    Number of Cartesian functions: 636
    Spherical Harmonics?: true
    Max angular momentum: 3

  Cached 16.7% of DFT collocation blocks in 0.313 [GiB].

  Minimum eigenvalue in the overlap matrix is 3.8556844988E-04.
  Using Symmetric Orthogonalization.

  SCF Guess: Superposition of Atomic Densities via on-the-fly atomic UHF.

  ==> Iterations <==

                           Total Energy        Delta E     RMS |[F,P]|

   @DF-RKS iter SAD:  -231.65277794473971   -2.31653e+02   0.00000e+00 
   @DF-RKS iter   1:  -231.94325153930706   -2.90474e-01   9.49680e-03 DIIS
   @DF-RKS iter   2:  -232.01419556863206   -7.09440e-02   8.26696e-03 DIIS
   @DF-RKS iter   3:  -232.16132234824386   -1.47127e-01   4.77048e-04 DIIS
   @DF-RKS iter   4:  -232.16174855798951   -4.26210e-04   7.72582e-05 DIIS
   @DF-RKS iter   5:  -232.16176432464243   -1.57667e-05   4.72116e-06 DIIS
   @DF-RKS iter   6:  -232.16176440861989   -8.39775e-08   1.61095e-06 DIIS
   @DF-RKS iter   7:  -232.16176441189043   -3.27054e-09   1.08590e-06 DIIS
   @DF-RKS iter   8:  -232.16176441420535   -2.31492e-09   2.95302e-08 DIIS
   @DF-RKS iter   9:  -232.16176441420765   -2.30216e-12   1.79166e-09 DIIS
  Energy and wave function converged.


  ==> Post-Iterations <==

    Orbital Energies [Eh]
    ---------------------

    Doubly Occupied:                                                      

       1Ag   -10.555684     1Bu   -10.555397     2Bu   -10.555376  
       2Ag   -10.554713     3Ag   -10.554691     3Bu   -10.554378  
       4Ag    -0.949948     4Bu    -0.835804     5Bu    -0.835689  
       5Ag    -0.679629     6Ag    -0.679494     7Ag    -0.591154  
       6Bu    -0.529676     7Bu    -0.504805     8Bu    -0.481865  
       9Bu    -0.481710     1Au    -0.431280     8Ag    -0.397745  
       9Ag    -0.397484     1Bg    -0.302495     2Bg    -0.302391  

    Virtual:                                                              

       2Au     0.028799     3Au     0.028956    10Ag     0.099899  
      10Bu     0.141456    11Bu     0.141489    11Ag     0.174883  
      12Ag     0.174909    12Bu     0.193659     3Bg     0.201081  
      13Ag     0.314262    14Ag     0.314341    13Bu     0.335094  
      14Bu     0.335331    15Ag     0.451179    15Bu     0.452365  
      16Bu     0.506881     4Au     0.515177    16Ag     0.562385  
      17Ag     0.562595    18Ag     0.567606    17Bu     0.570153  
      18Bu     0.570238     4Bg     0.571270     5Bg     0.571334  
      19Ag     0.588301     5Au     0.645825     6Au     0.645867  
      19Bu     0.692190    20Bu     0.692314    20Ag     0.700733  
      21Ag     0.700922     6Bg     0.721833    21Bu     0.778319  
      22Ag     0.827054     7Au     0.881772    23Ag     0.909929  
      22Bu     0.927659    23Bu     0.927843     7Bg     0.974117  
      24Ag     1.029075    25Ag     1.029089    24Bu     1.049111  
      25Bu     1.049218     8Bg     1.059007     9Bg     1.059256  
      26Bu     1.095753     8Au     1.124291     9Au     1.124476  
      26Ag     1.258445    27Ag     1.314563    28Ag     1.314720  
      27Bu     1.505955    10Au     1.517653    11Au     1.517829  
      10Bg     1.556181    29Ag     1.571298    30Ag     1.640385  
      31Ag     1.640571    28Bu     1.641760    29Bu     1.641977  
      12Au     1.665011    11Bg     1.710966    12Bg     1.711317  
      30Bu     1.733239    31Bu     1.733376    32Bu     1.749930  
      13Bg     1.824748    14Bg     1.824891    33Bu     1.864969  
      34Bu     1.872076    35Bu     1.872263    32Ag     1.874713  
      33Ag     1.875132    34Ag     1.929263    13Au     1.997730  
      14Au     1.997919    35Ag     2.010501    36Ag     2.010744  
      36Bu     2.043160    15Au     2.206898    15Bg     2.268081  
      37Ag     2.376865    38Ag     2.436137    39Ag     2.436401  
      37Bu     2.443401    38Bu     2.443746    39Bu     2.626516  
      40Bu     2.626778    41Bu     2.696698    40Ag     2.785585  
      41Ag     2.904403    42Ag     2.904995    42Bu     3.612762  

    Final Occupation by Irrep:
             Ag    Bg    Au    Bu 
    DOCC [     9,    2,    1,    9 ]

  @DF-RKS Final Energy:  -232.16176441420765

   => Energetics <=

    Nuclear Repulsion Energy =            202.0285763967064838
    One-Electron Energy =                -711.1481375442485842
    Two-Electron Energy =                 293.6789503488683408
    DFT Exchange-Correlation Energy =     -16.7211536155339289
    Empirical Dispersion Energy =           0.0000000000000000
    VV10 Nonlocal Energy =                  0.0000000000000000
    Total Energy =                       -232.1617644142076529

Computation Completed


Properties will be evaluated at   0.000000,   0.000000,   0.000000 [a0]

Properties computed using the SCF density matrix

  Nuclear Dipole Moment: [e a0]
     X:     0.0000      Y:     0.0000      Z:     0.0000

  Electronic Dipole Moment: [e a0]
     X:     0.0000      Y:     0.0000      Z:     0.0000

  Dipole Moment: [e a0]
     X:     0.0000      Y:     0.0000      Z:     0.0000     Total:     0.0000

  Dipole Moment: [D]
     X:     0.0000      Y:     0.0000      Z:     0.0000     Total:     0.0000


*** tstop() called on atlantis at Wed Apr 20 06:37:01 2022
Module time:
	user time   =      20.46 seconds =       0.34 minutes
	system time =       0.05 seconds =       0.00 minutes
	total time  =         20 seconds =       0.33 minutes
Total time:
	user time   =     109.95 seconds =       1.83 minutes
	system time =       0.48 seconds =       0.01 minutes
	total time  =        110 seconds =       1.83 minutes

*** tstart() called on atlantis
*** at Wed Apr 20 06:37:01 2022


         ------------------------------------------------------------
                                   SCF GRAD                          
                          Rob Parrish, Justin Turney,                
                       Andy Simmonett, and Alex Sokolov              
         ------------------------------------------------------------

  ==> Geometry <==

    Molecular point group: c2h
    Full point group: C2h

    Geometry (in Angstrom), charge = 0, multiplicity = 1:

       Center              X                  Y                   Z               Mass       
    ------------   -----------------  -----------------  -----------------  -----------------
         C           -1.220987522409    -0.693186890392     0.000000000000    12.000000000000
         C           -1.211103254647     0.711282573840     0.000000000000    12.000000000000
         C           -0.010442564864    -1.404519464231     0.000000000000    12.000000000000
         C            0.010442564864     1.404519464231     0.000000000000    12.000000000000
         C            1.211103254647    -0.711282573840     0.000000000000    12.000000000000
         C            1.220987522409     0.693186890392     0.000000000000    12.000000000000
         H           -2.173173719775    -1.233207725748     0.000000000000     1.007825032230
         H           -2.154574626421     1.265441319995     0.000000000000     1.007825032230
         H           -0.018609093354    -2.498649045226     0.000000000000     1.007825032230
         H            0.018609093354     2.498649045226     0.000000000000     1.007825032230
         H            2.154574626421    -1.265441319995     0.000000000000     1.007825032230
         H            2.173173719775     1.233207725748     0.000000000000     1.007825032230

  Nuclear repulsion =  202.028576396706484

  ==> Basis Set <==

  Basis Set: CC-PVDZ
    Blend: CC-PVDZ
    Number of shells: 54
    Number of basis function: 114
    Number of Cartesian functions: 120
    Spherical Harmonics?: true
    Max angular momentum: 2

  ==> DFJKGrad: Density-Fitted SCF Gradients <==

    Gradient:                    1
    J tasked:                  Yes
    K tasked:                  Yes
    wK tasked:                  No
    OpenMP threads:              1
    Integrals threads:           1
    Memory [MiB]:              375
    Schwarz Cutoff:          0E+00
    Fitting Condition:       1E-10

   => Auxiliary Basis Set <=

  Basis Set: (CC-PVDZ AUX)
    Blend: CC-PVDZ-JKFIT
    Number of shells: 198
    Number of basis function: 558
    Number of Cartesian functions: 636
    Spherical Harmonics?: true
    Max angular momentum: 3

  ==> DFT Potential <==

   => Composite Functional: M06-2X <= 

    Hybrid M06-2X Meta-GGA XC Functional

    Y. Zhao and D. G. Truhlar,  Theor. Chem. Acc., 120, 215, 2008


    Deriv               =              1
    GGA                 =           TRUE
    Meta                =           TRUE

    Exchange Hybrid     =           TRUE
    MP2 Hybrid          =          FALSE

   => Exchange Functionals <=

    1.0000   XC_HYB_MGGA_X_M06_2X

   => Exact (HF) Exchange <=

    0.5400               HF 

   => Correlation Functionals <=

    1.0000   XC_MGGA_C_M06_2X

   => Molecular Quadrature <=

    Radial Scheme          =       TREUTLER
    Pruning Scheme         =           FLAT
    Nuclear Scheme         =       TREUTLER

    BS radius alpha        =              1
    Pruning alpha          =              1
    Radial Points          =             75
    Spherical Points       =            302
    Total Points           =         266212
    Total Blocks           =           2094
    Max Points             =            256
    Max Functions          =            114


  -Total Gradient:
     Atom            X                  Y                   Z
    ------   -----------------  -----------------  -----------------
       1       -0.005648954731    -0.003702958469     0.000000000000
[...]
      5   C                0.18 -0.21 -0.00    0.00  0.00 -0.03   -0.00 -0.00  0.19   
      6   C               -0.27 -0.19  0.00   -0.00 -0.00 -0.04   -0.00 -0.00 -0.19   
      7   H                0.27  0.19  0.00    0.00 -0.00  0.41    0.00 -0.00  0.37   
      8   H               -0.26  0.09 -0.00   -0.00 -0.00  0.41   -0.00 -0.00 -0.35   
      9   H               -0.30 -0.08 -0.00    0.00  0.00  0.41   -0.00  0.00 -0.36   
     10   H                0.30  0.08 -0.00   -0.00 -0.00  0.41    0.00  0.00  0.36   
     11   H                0.26 -0.09 -0.00    0.00  0.00  0.41    0.00  0.00  0.35   
     12   H               -0.27 -0.19 -0.00   -0.00 -0.00  0.41   -0.00 -0.00 -0.37   

  Vibration                       13                  14                  15          
  Freq [cm^-1]                 885.5153            888.8445            964.7713       
  Irrep                           Bg                  Bg                  Ag          
  Reduced mass [u]              1.2480              1.2479              1.9540        
  Force const [mDyne/A]         0.5766              0.5809              1.0716        
  Turning point v=0 [a0]        0.3301              0.3295              0.2527        
  RMS dev v=0 [a0 u^1/2]        0.2607              0.2602              0.2498        
  Char temp [K]               1274.0594           1278.8494           1388.0911       
  ----------------------------------------------------------------------------------
      1   C                0.00  0.00 -0.09    0.00  0.00 -0.01    0.06  0.10  0.00   
      2   C                0.00 -0.00 -0.03    0.00 -0.00 -0.08    0.07 -0.07  0.00   
      3   C               -0.00  0.00 -0.05   -0.00  0.00  0.07    0.06  0.13 -0.00   
      4   C               -0.00 -0.00  0.05   -0.00 -0.00 -0.07   -0.06 -0.13  0.00   
      5   C                0.00  0.00  0.03    0.00  0.00  0.08   -0.07  0.07  0.00   
      6   C               -0.00 -0.00  0.09   -0.00 -0.00  0.01   -0.06 -0.10 -0.00   
      7   H                0.00  0.00  0.57   -0.00  0.00  0.05   -0.16  0.52 -0.00   
      8   H               -0.00 -0.00  0.24   -0.00 -0.00  0.52    0.07 -0.09 -0.00   
      9   H                0.00  0.00  0.32    0.00  0.00 -0.47    0.35  0.13  0.00   
     10   H               -0.00 -0.00 -0.32   -0.00 -0.00  0.47   -0.35 -0.13 -0.00   
     11   H                0.00  0.00 -0.24    0.00  0.00 -0.52   -0.07  0.09 -0.00   
     12   H               -0.00 -0.00 -0.57   -0.00 -0.00 -0.05    0.16 -0.52  0.00   

  Vibration                       16                  17                  18          
  Freq [cm^-1]                1004.1075           1006.8364           1009.5220       
  Irrep                           Bu                  Au                  Au          
  Reduced mass [u]              6.5543              1.3766              1.3708        
  Force const [mDyne/A]         3.8935              0.8222              0.8231        
  Turning point v=0 [a0]        0.1353              0.2947              0.2950        
  RMS dev v=0 [a0 u^1/2]        0.2449              0.2445              0.2442        
  Char temp [K]               1444.6871           1448.6134           1452.4774       
  ----------------------------------------------------------------------------------
      1   C               -0.25 -0.14  0.00    0.00  0.00 -0.11    0.00  0.00  0.01   
      2   C                0.25 -0.15 -0.00    0.00  0.00  0.05    0.00 -0.00 -0.09   
      3   C                0.00  0.29 -0.00   -0.00 -0.00  0.06    0.00  0.00  0.09   
      4   C                0.00  0.29  0.00    0.00 -0.00  0.06   -0.00  0.00  0.09   
      5   C                0.25 -0.15  0.00    0.00  0.00  0.05   -0.00 -0.00 -0.09   
      6   C               -0.25 -0.14 -0.00    0.00 -0.00 -0.11   -0.00 -0.00  0.01   
      7   H               -0.25 -0.14 -0.00   -0.00  0.00  0.56   -0.00  0.00 -0.04   
      8   H                0.25 -0.15  0.00   -0.00  0.00 -0.25   -0.00 -0.00  0.51   
      9   H               -0.00  0.29  0.00   -0.00 -0.00 -0.32    0.00  0.00 -0.47   
     10   H               -0.00  0.29 -0.00    0.00 -0.00 -0.32   -0.00  0.00 -0.47   
     11   H                0.25 -0.15 -0.00    0.00  0.00 -0.25   -0.00 -0.00  0.51   
     12   H               -0.25 -0.14  0.00   -0.00  0.00  0.56    0.00 -0.00 -0.04   

  Vibration                       19                  20                  21          
  Freq [cm^-1]                1038.8289           1054.3022           1055.2340       
  Irrep                           Bg                  Bu                  Bu          
  Reduced mass [u]              1.2665              1.6293              1.6327        
  Force const [mDyne/A]         0.8053              1.0671              1.0712        
  Turning point v=0 [a0]        0.3025              0.2647              0.2644        
  RMS dev v=0 [a0 u^1/2]        0.2407              0.2390              0.2388        
  Char temp [K]               1494.6434           1516.9061           1518.2468       
  ----------------------------------------------------------------------------------
      1   C                0.00 -0.00  0.06   -0.08 -0.08 -0.00   -0.07  0.04 -0.00   
      2   C                0.00  0.00 -0.06   -0.05  0.09  0.00    0.09  0.02  0.00   
      3   C               -0.00 -0.00 -0.06    0.08 -0.01  0.00   -0.01 -0.11  0.00   
      4   C                0.00 -0.00  0.06    0.08 -0.01 -0.00   -0.01 -0.11 -0.00   
      5   C               -0.00  0.00  0.06   -0.05  0.09 -0.00    0.09  0.02 -0.00   
      6   C               -0.00 -0.00 -0.06   -0.08 -0.08  0.00   -0.07  0.04  0.00   
      7   H                0.00 -0.00 -0.40    0.01 -0.24  0.00   -0.29  0.41  0.00   
      8   H                0.00  0.00  0.41    0.08  0.33 -0.00    0.29  0.34 -0.00   
      9   H                0.00 -0.00  0.41    0.54 -0.02 -0.00   -0.07 -0.12 -0.00   
     10   H                0.00 -0.00 -0.41    0.54 -0.02  0.00   -0.07 -0.12  0.00   
     11   H                0.00  0.00 -0.41    0.08  0.33  0.00    0.29  0.34  0.00   
     12   H               -0.00  0.00  0.40    0.01 -0.24 -0.00   -0.29  0.41 -0.00   

  Vibration                       22                  23                  24          
  Freq [cm^-1]                1070.1648           1141.8536           1218.7124       
  Irrep                           Ag                  Bu                  Ag          
  Reduced mass [u]              2.0758              1.1563              1.1322        
  Force const [mDyne/A]         1.4007              0.8882              0.9908        
  Turning point v=0 [a0]        0.2328              0.3020              0.2954        
  RMS dev v=0 [a0 u^1/2]        0.2372              0.2296              0.2223        
  Char temp [K]               1539.7289           1642.8732           1753.4557       
  ----------------------------------------------------------------------------------
      1   C                0.13  0.02 -0.00   -0.02  0.04  0.00    0.02 -0.04  0.00   
      2   C                0.12 -0.02  0.00   -0.02 -0.04 -0.00    0.02  0.02 -0.00   
      3   C               -0.06  0.11  0.00    0.05 -0.00 -0.00    0.06 -0.00 -0.00   
      4   C                0.06 -0.11 -0.00    0.05 -0.00  0.00   -0.06  0.00  0.00   
      5   C               -0.12  0.02 -0.00   -0.02 -0.04  0.00   -0.02 -0.02  0.00   
      6   C               -0.13 -0.02  0.00   -0.02  0.04 -0.00   -0.02  0.04 -0.00   
      7   H                0.40 -0.44  0.00   -0.20  0.35 -0.00    0.03 -0.05 -0.00   
      8   H                0.10 -0.07 -0.00   -0.20 -0.35  0.00    0.35  0.59  0.00   
      9   H               -0.25  0.12 -0.00    0.40 -0.00  0.00    0.15 -0.00  0.00   
     10   H                0.25 -0.12  0.00    0.40 -0.00 -0.00   -0.15  0.00 -0.00   
     11   H               -0.10  0.07  0.00   -0.20 -0.35 -0.00   -0.35 -0.59 -0.00   
     12   H               -0.40  0.44 -0.00   -0.20  0.35  0.00   -0.03  0.05  0.00   

  Vibration                       25                  26                  27          
  Freq [cm^-1]                1301.7338           1336.2189           1498.6462       
  Irrep                           Bu                  Ag                  Bu          
  Reduced mass [u]              4.7461              1.2572              2.1170        
  Force const [mDyne/A]         4.7384              1.3225              2.8013        
  Turning point v=0 [a0]        0.1396              0.2677              0.1948        
  RMS dev v=0 [a0 u^1/2]        0.2150              0.2123              0.2004        
  Char temp [K]               1872.9050           1922.5215           2156.2183       
  ----------------------------------------------------------------------------------
      1   C               -0.12  0.21  0.00   -0.03  0.06 -0.00   -0.02  0.14 -0.00   
      2   C               -0.12 -0.21 -0.00    0.02  0.07  0.00    0.08 -0.06  0.00   
      3   C                0.24 -0.00 -0.00   -0.02 -0.02  0.00   -0.14 -0.04  0.00   
      4   C                0.24 -0.00  0.00    0.02  0.02 -0.00   -0.14 -0.04  0.00   
      5   C               -0.12 -0.21  0.00   -0.02 -0.07 -0.00    0.08 -0.06 -0.00   
      6   C               -0.12  0.21 -0.00    0.03 -0.06  0.00   -0.02  0.14 -0.00   
      7   H                0.16 -0.29  0.00    0.17 -0.30 -0.00    0.28 -0.36  0.00   
      8   H                0.17  0.29  0.00   -0.08 -0.10 -0.00    0.12 -0.04 -0.00   
      9   H               -0.33  0.00  0.00    0.60 -0.02 -0.00    0.47 -0.06 -0.00   
     10   H               -0.33  0.00 -0.00   -0.60  0.02  0.00    0.47 -0.06 -0.00   
     11   H                0.17  0.29 -0.00    0.08  0.10  0.00    0.12 -0.04  0.00   
     12   H                0.16 -0.29  0.00   -0.17  0.30 -0.00    0.28 -0.36 -0.00   

  Vibration                       28                  29                  30          
  Freq [cm^-1]                1498.9463           1632.5395           1671.4872       
  Irrep                           Bu                  Ag                  Ag          
  Reduced mass [u]              2.1187              5.9789              4.4466        
  Force const [mDyne/A]         2.8047              9.3885              7.3195        
  Turning point v=0 [a0]        0.1947              0.1111              0.1273        
  RMS dev v=0 [a0 u^1/2]        0.2004              0.1920              0.1898        
  Char temp [K]               2156.6500           2348.8608           2404.8979       
  ----------------------------------------------------------------------------------
      1   C               -0.11  0.03  0.00   -0.05 -0.20 -0.00   -0.18  0.20 -0.00   
      2   C                0.08  0.13 -0.00    0.18  0.31  0.00    0.11 -0.09  0.00   
      3   C                0.07 -0.09 -0.00    0.20  0.13  0.00    0.24 -0.07  0.00   
      4   C                0.07 -0.09  0.00   -0.20 -0.13 -0.00   -0.24  0.07  0.00   
      5   C                0.08  0.13  0.00   -0.18 -0.31  0.00   -0.11  0.09  0.00   
      6   C               -0.11  0.03 -0.00    0.05  0.20  0.00    0.18 -0.20 -0.00   
      7   H                0.05 -0.31 -0.00   -0.24  0.10 -0.00    0.12 -0.35  0.00   
      8   H               -0.26 -0.46  0.00   -0.20 -0.35 -0.00    0.13 -0.10  0.00   
      9   H               -0.24 -0.11  0.00   -0.15  0.15 -0.00   -0.42 -0.08  0.00   
     10   H               -0.24 -0.11 -0.00    0.15 -0.15  0.00    0.42  0.08 -0.00   
     11   H               -0.26 -0.46 -0.00    0.20  0.35  0.00   -0.13  0.10 -0.00   
     12   H                0.05 -0.31  0.00    0.24 -0.10 -0.00   -0.12  0.35  0.00   

  Vibration                       31                  32                  33          
  Freq [cm^-1]                3174.9015           3179.5801           3187.5887       
  Irrep                           Bu                  Ag                  Ag          
  Reduced mass [u]              1.0834              1.0895              1.0867        
  Force const [mDyne/A]         6.4343              6.4894              6.5057        
  Turning point v=0 [a0]        0.1871              0.1864              0.1864        
  RMS dev v=0 [a0 u^1/2]        0.1377              0.1376              0.1374        
  Char temp [K]               4567.9764           4574.7079           4586.2304       
  ----------------------------------------------------------------------------------
      1   C                0.03  0.02 -0.00    0.01  0.00 -0.00   -0.05 -0.03 -0.00   
      2   C               -0.03  0.02 -0.00   -0.04  0.02 -0.00    0.01 -0.00 -0.00   
      3   C               -0.00 -0.03  0.00   -0.00  0.04  0.00    0.00  0.03  0.00   
      4   C               -0.00 -0.03  0.00    0.00 -0.04 -0.00   -0.00 -0.03  0.00   
      5   C               -0.03  0.02  0.00    0.04 -0.02  0.00   -0.01  0.00 -0.00   
      6   C                0.03  0.02 -0.00   -0.01 -0.00  0.00    0.05  0.03  0.00   
      7   H               -0.35 -0.20  0.00   -0.09 -0.05 -0.00    0.53  0.29  0.00   
      8   H                0.35 -0.21  0.00    0.46 -0.27 -0.00   -0.14  0.08 -0.00   
      9   H                0.00  0.41  0.00   -0.00 -0.45 -0.00   -0.00 -0.33 -0.00   
     10   H                0.00  0.41 -0.00    0.00  0.45 -0.00    0.00  0.33 -0.00   
     11   H                0.35 -0.21 -0.00   -0.46  0.27  0.00    0.14 -0.08  0.00   
     12   H               -0.35 -0.20  0.00    0.09  0.05 -0.00   -0.53 -0.29 -0.00   

  Vibration                       34                  35                  36          
  Freq [cm^-1]                3199.8117           3199.9200           3210.5995       
  Irrep                           Bu                  Bu                  Ag          
  Reduced mass [u]              1.0964              1.0964              1.0998        
  Force const [mDyne/A]         6.6140              6.6145              6.6796        
  Turning point v=0 [a0]        0.1853              0.1853              0.1847        
  RMS dev v=0 [a0 u^1/2]        0.1372              0.1372              0.1369        
  Char temp [K]               4603.8166           4603.9724           4619.3378       
  ----------------------------------------------------------------------------------
      1   C               -0.03 -0.02 -0.00   -0.03 -0.01  0.00   -0.03 -0.02  0.00   
      2   C               -0.04  0.03  0.00    0.01 -0.00  0.00   -0.03  0.02 -0.00   
      3   C                0.00  0.01  0.00    0.00 -0.05 -0.00   -0.00 -0.04 -0.00   
      4   C                0.00  0.01  0.00    0.00 -0.05 -0.00    0.00  0.04  0.00   
      5   C               -0.04  0.03  0.00    0.01 -0.00 -0.00    0.03 -0.02  0.00   
      6   C               -0.03 -0.02 -0.00   -0.03 -0.01  0.00    0.03  0.02 -0.00   
      7   H                0.37  0.21  0.00    0.34  0.19 -0.00    0.30  0.17 -0.00   
      8   H                0.47 -0.28  0.00   -0.15  0.08 -0.00    0.37 -0.22  0.00   
      9   H               -0.01 -0.13  0.00    0.00  0.56 -0.00   -0.00  0.44 -0.00   
     10   H               -0.01 -0.13  0.00    0.00  0.56 -0.00    0.00 -0.44 -0.00   
     11   H                0.47 -0.28 -0.00   -0.15  0.08  0.00   -0.37  0.22  0.00   
     12   H                0.37  0.21  0.00    0.34  0.19 -0.00   -0.30 -0.17 -0.00   

  ==> Thermochemistry Components <==

  Entropy, S
    Electronic S            0.000 [cal/(mol K)]        0.000 [J/(mol K)]       0.00000000 [mEh/K] (multiplicity = 1)
    Translational S        38.979 [cal/(mol K)]      163.089 [J/(mol K)]       0.06211726 [mEh/K] (mol. weight = 78.0470 [u], P = 101325.00 [Pa])
    Rotational S           24.318 [cal/(mol K)]      101.746 [J/(mol K)]       0.03875307 [mEh/K] (symmetry no. = 2)
    Vibrational S           4.355 [cal/(mol K)]       18.220 [J/(mol K)]       0.00693970 [mEh/K]
  Total S                  67.652 [cal/(mol K)]      283.055 [J/(mol K)]       0.10781004 [mEh/K]
  Correction S              0.000 [cal/(mol K)]        0.000 [J/(mol K)]       0.00000000 [mEh/K]

  Constant volume heat capacity, Cv
    Electronic Cv           0.000 [cal/(mol K)]        0.000 [J/(mol K)]       0.00000000 [mEh/K]
    Translational Cv        2.981 [cal/(mol K)]       12.472 [J/(mol K)]       0.00475022 [mEh/K]
    Rotational Cv           2.981 [cal/(mol K)]       12.472 [J/(mol K)]       0.00475022 [mEh/K]
    Vibrational Cv         11.279 [cal/(mol K)]       47.191 [J/(mol K)]       0.01797421 [mEh/K]
  Total Cv                 17.241 [cal/(mol K)]       72.135 [J/(mol K)]       0.02747464 [mEh/K]
  Correction Cv             0.000 [cal/(mol K)]        0.000 [J/(mol K)]       0.00000000 [mEh/K]

  Constant pressure heat capacity, Cp
    Electronic Cp           0.000 [cal/(mol K)]        0.000 [J/(mol K)]       0.00000000 [mEh/K]
    Translational Cp        4.968 [cal/(mol K)]       20.786 [J/(mol K)]       0.00791703 [mEh/K]
    Rotational Cp           2.981 [cal/(mol K)]       12.472 [J/(mol K)]       0.00475022 [mEh/K]
    Vibrational Cp         11.279 [cal/(mol K)]       47.191 [J/(mol K)]       0.01797421 [mEh/K]
  Total Cp                 19.228 [cal/(mol K)]       80.449 [J/(mol K)]       0.03064145 [mEh/K]
  Correction Cp             0.000 [cal/(mol K)]        0.000 [J/(mol K)]       0.00000000 [mEh/K]

  ==> Thermochemistry Energy Analysis <==

  Raw electronic energy, E0
  Total E0, Electronic energy at well bottom at 0 [K]                 -232.16163097 [Eh]

  Zero-point energy, ZPE_vib = Sum_i nu_i / 2
    Electronic ZPE          0.000 [kcal/mol]        0.000 [kJ/mol]       0.00000000 [Eh]
    Translational ZPE       0.000 [kcal/mol]        0.000 [kJ/mol]       0.00000000 [Eh]
    Rotational ZPE          0.000 [kcal/mol]        0.000 [kJ/mol]       0.00000000 [Eh]
    Vibrational ZPE        62.790 [kcal/mol]      262.712 [kJ/mol]       0.10006171 [Eh]       21961.006 [cm^-1]
  Correction ZPE           62.790 [kcal/mol]      262.712 [kJ/mol]       0.10006171 [Eh]       21961.006 [cm^-1]
  Total ZPE, Electronic energy at 0 [K]                               -232.06156926 [Eh]

  Thermal Energy, E (includes ZPE)
    Electronic E            0.000 [kcal/mol]        0.000 [kJ/mol]       0.00000000 [Eh]
    Translational E         0.889 [kcal/mol]        3.718 [kJ/mol]       0.00141628 [Eh]
    Rotational E            0.889 [kcal/mol]        3.718 [kJ/mol]       0.00141628 [Eh]
    Vibrational E          63.764 [kcal/mol]      266.790 [kJ/mol]       0.10161485 [Eh]
  Correction E             65.542 [kcal/mol]      274.227 [kJ/mol]       0.10444740 [Eh]
  Total E, Electronic energy at  298.15 [K]                           -232.05718357 [Eh]

  Enthalpy, H_trans = E_trans + k_B * T
    Electronic H            0.000 [kcal/mol]        0.000 [kJ/mol]       0.00000000 [Eh]
    Translational H         1.481 [kcal/mol]        6.197 [kJ/mol]       0.00236046 [Eh]
    Rotational H            0.889 [kcal/mol]        3.718 [kJ/mol]       0.00141628 [Eh]
    Vibrational H          63.764 [kcal/mol]      266.790 [kJ/mol]       0.10161485 [Eh]
  Correction H             66.134 [kcal/mol]      276.706 [kJ/mol]       0.10539159 [Eh]
  Total H, Enthalpy at  298.15 [K]                                    -232.05623938 [Eh]

  Gibbs free energy, G = H - T * S
    Electronic G            0.000 [kcal/mol]        0.000 [kJ/mol]       0.00000000 [Eh]
    Translational G       -10.140 [kcal/mol]      -42.428 [kJ/mol]      -0.01615980 [Eh]
    Rotational G           -6.362 [kcal/mol]      -26.617 [kJ/mol]      -0.01013795 [Eh]
    Vibrational G          62.466 [kcal/mol]      261.357 [kJ/mol]       0.09954577 [Eh]
  Correction G             45.964 [kcal/mol]      192.313 [kJ/mol]       0.07324802 [Eh]
  Total G, Free enthalpy at  298.15 [K]                               -232.08838294 [Eh]

    Psi4 stopped on: Wednesday, 20 April 2022 06:53AM
    Psi4 wall time for execution: 0:18:27.09

*** Psi4 exiting successfully. Buy a developer a beer!
