
    -----------------------------------------------------------------------
          Psi4: An Open-Source Ab Initio Electronic Structure Package
                               Psi4 1.3.2 release

                         Git: Rev {HEAD} ecbda83 


    R. M. Parrish, L. A. Burns, D. G. A. Smith, A. C. Simmonett,
    A. E. DePrince III, E. G. Hohenstein, U. Bozkaya, A. Yu. Sokolov,
    R. Di Remigio, R. M. Richard, J. F. Gonthier, A. M. James,
    H. R. McAlexander, A. Kumar, M. Saitow, X. Wang, B. P. Pritchard,
    P. Verma, H. F. Schaefer III, K. Patkowski, R. A. King, E. F. Valeev,
    F. A. Evangelista, J. M. Turney, T. D. Crawford, and C. D. Sherrill,
    J. Chem. Theory Comput. 13(7) pp 3185--3197 (2017).
    (doi: 10.1021/acs.jctc.7b00174)


                         Additional Contributions by
    P. Kraus, H. Kruse, M. H. Lechner, M. C. Schieber, R. A. Shaw,
    A. Alenaizan, R. Galvelis, Z. L. Glick, S. Lehtola, and J. P. Misiewicz

    -----------------------------------------------------------------------


    Psi4 started on: Tuesday, 19 April 2022 01:46AM

    Process ID: 25825
    Host:       atlantis
    PSIDATADIR: /home/akrom/software/anaconda3/envs/ffpenv/share/psi4
    Memory:     500.0 MiB
    Threads:    1
    
  ==> Input File <==

--------------------------------------------------------------------------
set basis  6-31++g**
molecule {
0 1
   C       -0.61446        0.00000        0.00000
   C        0.61446        0.00000        0.00000
   H       -1.68923        0.00000        0.00000
   H        1.68923        0.00000        0.00000
}
energy('CCSD')
frequencies('CCSD')
--------------------------------------------------------------------------

*** tstart() called on atlantis
*** at Tue Apr 19 01:46:57 2022

   => Loading Basis Set <=

    Name: 6-31++G**
    Role: ORBITAL
    Keyword: BASIS
    atoms 1-2 entry C          line   115 file /home/akrom/software/anaconda3/envs/ffpenv/share/psi4/basis/6-31ppgss.gbs 
    atoms 3-4 entry H          line    46 file /home/akrom/software/anaconda3/envs/ffpenv/share/psi4/basis/6-31ppgss.gbs 


         ---------------------------------------------------------
                                   SCF
               by Justin Turney, Rob Parrish, Andy Simmonett
                          and Daniel G. A. Smith
                              RHF Reference
                        1 Threads,    500 MiB Core
         ---------------------------------------------------------

  ==> Geometry <==

    Molecular point group: d2h
    Full point group: D_inf_h

    Geometry (in Angstrom), charge = 0, multiplicity = 1:

       Center              X                  Y                   Z               Mass       
    ------------   -----------------  -----------------  -----------------  -----------------
         C           -0.614460000000    -0.000000000000     0.000000000000    12.000000000000
         C            0.614460000000     0.000000000000     0.000000000000    12.000000000000
         H           -1.689230000000    -0.000000000000     0.000000000000     1.007825032230
         H            1.689230000000     0.000000000000     0.000000000000     1.007825032230

  Running in d2h symmetry.

  Rotational constants: A = ************  B =      1.13802  C =      1.13802 [cm^-1]
  Rotational constants: A = ************  B =  34116.98697  C =  34116.98697 [MHz]
  Nuclear repulsion =   24.323218171379235

  Charge       = 0
  Multiplicity = 1
  Electrons    = 14
  Nalpha       = 7
  Nbeta        = 7

  ==> Algorithm <==

  SCF Algorithm Type is PK.
  DIIS enabled.
  MOM disabled.
  Fractional occupation disabled.
  Guess Type is SAD.
  Energy threshold   = 1.00e-08
  Density threshold  = 1.00e-08
  Integral threshold = 0.00e+00

  ==> Primary Basis <==

  Basis Set: 6-31++G**
    Blend: 6-31++G**
    Number of shells: 24
    Number of basis function: 50
    Number of Cartesian functions: 50
    Spherical Harmonics?: false
    Max angular momentum: 2

  ==> Pre-Iterations <==

   -------------------------------------------------------
    Irrep   Nso     Nmo     Nalpha   Nbeta   Ndocc  Nsocc
   -------------------------------------------------------
     Ag        14      14       0       0       0       0
     B1g        5       5       0       0       0       0
     B2g        5       5       0       0       0       0
     B3g        1       1       0       0       0       0
     Au         1       1       0       0       0       0
     B1u        5       5       0       0       0       0
     B2u        5       5       0       0       0       0
     B3u       14      14       0       0       0       0
   -------------------------------------------------------
    Total      50      50       7       7       7       0
   -------------------------------------------------------

  ==> Integral Setup <==

  Using in-core PK algorithm.
   Calculation information:
      Number of atoms:                   4
      Number of AO shells:              24
      Number of primitives:             46
      Number of atomic orbitals:        50
      Number of basis functions:        50

      Integral cutoff                 1.00e-12
      Number of threads:                 1

  Performing in-core PK
  Using 1626900 doubles for integral storage.
  We computed 45127 shell quartets total.
  Whereas there are 45150 unique shell quartets.

  ==> DiskJK: Disk-Based J/K Matrices <==

    J tasked:                  Yes
    K tasked:                  Yes
    wK tasked:                  No
    Memory [MiB]:              375
    Schwarz Cutoff:          1E-12

    OpenMP threads:              1

  Minimum eigenvalue in the overlap matrix is 3.2945534455E-05.
  Using Symmetric Orthogonalization.

  SCF Guess: Superposition of Atomic Densities via on-the-fly atomic UHF.

  ==> Iterations <==

                        Total Energy        Delta E     RMS |[F,P]|

   @RHF iter SAD:   -75.83682686563145   -7.58368e+01   0.00000e+00 
   @RHF iter   1:   -76.77981885148988   -9.42992e-01   1.21530e-02 DIIS
   @RHF iter   2:   -76.81885973348200   -3.90409e-02   4.13959e-03 DIIS
   @RHF iter   3:   -76.82327553718912   -4.41580e-03   4.77281e-04 DIIS
   @RHF iter   4:   -76.82339337521336   -1.17838e-04   5.13813e-05 DIIS
   @RHF iter   5:   -76.82339493034263   -1.55513e-06   1.06479e-05 DIIS
   @RHF iter   6:   -76.82339501122054   -8.08779e-08   1.62577e-06 DIIS
   @RHF iter   7:   -76.82339501300297   -1.78242e-09   2.45570e-07 DIIS
   @RHF iter   8:   -76.82339501304079   -3.78293e-11   1.51851e-08 DIIS
   @RHF iter   9:   -76.82339501304087   -7.10543e-14   1.43544e-09 DIIS
  Energy and wave function converged.


  ==> Post-Iterations <==

    Orbital Energies [Eh]
    ---------------------

    Doubly Occupied:                                                      

       1Ag   -11.261151     1B3u  -11.258003     2Ag    -1.024291  
       2B3u   -0.767621     3Ag    -0.676048     1B1u   -0.404178  
       1B2u   -0.404178  

    Virtual:                                                              

       4Ag     0.044251     3B3u    0.050642     1B1g    0.111679  
       1B2g    0.111679     2B2u    0.134513     2B1u    0.134513  
       5Ag     0.155379     4B3u    0.177580     6Ag     0.210208  
       5B3u    0.235081     2B1g    0.257958     2B2g    0.257958  
       6B3u    0.372758     7Ag     0.433008     7B3u    0.778384  
       3B2u    0.878731     3B1u    0.878731     8Ag     0.914370  
       3B1g    0.975600     3B2g    0.975600     8B3u    1.084387  
       9Ag     1.129554    10Ag     1.365735     9B3u    1.577628  
       4B2u    1.629317     4B1u    1.629317    10B3u    1.690439  
       1B3g    1.811768    11Ag     1.811768     4B1g    2.216936  
       4B2g    2.216936     1Au     2.223439    11B3u    2.223439  
      12Ag     2.657613     5B2u    2.670809     5B1u    2.670809  
      12B3u    3.124549     5B1g    3.325812     5B2g    3.325812  
      13Ag     3.778257    13B3u    4.206310    14Ag     4.982087  
      14B3u    5.746691  

    Final Occupation by Irrep:
             Ag   B1g   B2g   B3g    Au   B1u   B2u   B3u 
    DOCC [     3,    0,    0,    0,    0,    1,    1,    2 ]

  @RHF Final Energy:   -76.82339501304087

   => Energetics <=

    Nuclear Repulsion Energy =             24.3232181713792350
    One-Electron Energy =                -150.7022873728717514
    Two-Electron Energy =                  49.5556741884516470
    Total Energy =                        -76.8233950130408658

Computation Completed


Properties will be evaluated at   0.000000,   0.000000,   0.000000 [a0]

Properties computed using the SCF density matrix

  Nuclear Dipole Moment: [e a0]
     X:     0.0000      Y:     0.0000      Z:     0.0000

  Electronic Dipole Moment: [e a0]
     X:     0.0000      Y:     0.0000      Z:     0.0000

  Dipole Moment: [e a0]
     X:     0.0000      Y:     0.0000      Z:     0.0000     Total:     0.0000

  Dipole Moment: [D]
     X:     0.0000      Y:     0.0000      Z:     0.0000     Total:     0.0000


*** tstop() called on atlantis at Tue Apr 19 01:46:58 2022
Module time:
	user time   =       0.35 seconds =       0.01 minutes
	system time =       0.00 seconds =       0.00 minutes
	total time  =          1 seconds =       0.02 minutes
Total time:
	user time   =       0.35 seconds =       0.01 minutes
	system time =       0.00 seconds =       0.00 minutes
	total time  =          1 seconds =       0.02 minutes
 MINTS: Wrapper to libmints.
   by Justin Turney

   Calculation information:
      Number of threads:                 1
      Number of atoms:                   4
      Number of AO shells:              24
      Number of SO shells:              12
      Number of primitives:             46
      Number of atomic orbitals:        50
      Number of basis functions:        50

      Number of irreps:                  8
      Integral cutoff                 0.00e+00
      Number of functions per irrep: [  14    5    5    1    1    5    5   14 ]

 OEINTS: Overlap, kinetic, potential, dipole, and quadrupole integrals
         stored in file 35.

      Computing two-electron integrals...done
      Computed 119218 non-zero two-electron integrals.
        Stored in file 33.


*** tstart() called on atlantis
*** at Tue Apr 19 01:46:58 2022


	Wfn Parameters:
	--------------------
	Wavefunction         = CCSD
	Number of irreps     = 8
	Number of MOs        = 50
	Number of active MOs = 50
	AO-Basis             = NONE
	Semicanonical        = false
	Reference            = RHF
	Print Level          = 1

	IRREP	# MOs	# FZDC	# DOCC	# SOCC	# VIRT	# FZVR
	-----	-----	------	------	------	------	------
	 Ag	   14	    0	    3	    0	    11	    0
	 B1g	   5	    0	    0	    0	    5	    0
	 B2g	   5	    0	    0	    0	    5	    0
	 B3g	   1	    0	    0	    0	    1	    0
	 Au	   1	    0	    0	    0	    1	    0
	 B1u	   5	    0	    1	    0	    4	    0
	 B2u	   5	    0	    1	    0	    4	    0
	 B3u	   14	    0	    2	    0	    12	    0
	Transforming integrals...
	IWL integrals will be deleted.
	(OO|OO)...
	Presorting SO-basis two-electron integrals.
	Sorting File: SO Ints (nn|nn) nbuckets = 1
	Transforming the one-electron integrals and constructing Fock matrices
	Starting first half-transformation.
	Sorting half-transformed integrals.
	First half integral transformation complete.
	Starting second half-transformation.
	Two-electron integral transformation complete.
	(OO|OV)...
	Starting second half-transformation.
	Two-electron integral transformation complete.
	(OO|VV)...
	Starting second half-transformation.
	Two-electron integral transformation complete.
	(OV|OO)...
	Starting first half-transformation.
	Sorting half-transformed integrals.
	First half integral transformation complete.
	Starting second half-transformation.
	Two-electron integral transformation complete.
	(OV|OV)...
	Starting second half-transformation.
	Two-electron integral transformation complete.
	(OV|VV)...
	Starting second half-transformation.
	Two-electron integral transformation complete.
	(VV|OO)...
	Starting first half-transformation.
	Sorting half-transformed integrals.
	First half integral transformation complete.
	Starting second half-transformation.
	Two-electron integral transformation complete.
	(VV|OV)...
	Starting second half-transformation.
	Two-electron integral transformation complete.
	(VV|VV)...
	Starting second half-transformation.
	Two-electron integral transformation complete.
	Frozen core energy     =      0.00000000000000

	Size of irrep 0 of <ab|cd> integrals:      0.122 (MW) /      0.974 (MB)
	Size of irrep 1 of <ab|cd> integrals:      0.050 (MW) /      0.401 (MB)
	Size of irrep 2 of <ab|cd> integrals:      0.050 (MW) /      0.401 (MB)
	Size of irrep 3 of <ab|cd> integrals:      0.016 (MW) /      0.131 (MB)
	Size of irrep 4 of <ab|cd> integrals:      0.016 (MW) /      0.127 (MB)
	Size of irrep 5 of <ab|cd> integrals:      0.051 (MW) /      0.409 (MB)
	Size of irrep 6 of <ab|cd> integrals:      0.051 (MW) /      0.409 (MB)
	Size of irrep 7 of <ab|cd> integrals:      0.120 (MW) /      0.958 (MB)
	Total:                                     0.476 (MW) /      3.810 (MB)

	Size of irrep 0 of <ia|bc> integrals:      0.023 (MW) /      0.181 (MB)
	Size of irrep 1 of <ia|bc> integrals:      0.008 (MW) /      0.065 (MB)
	Size of irrep 2 of <ia|bc> integrals:      0.008 (MW) /      0.065 (MB)
	Size of irrep 3 of <ia|bc> integrals:      0.002 (MW) /      0.013 (MB)
	Size of irrep 4 of <ia|bc> integrals:      0.002 (MW) /      0.015 (MB)
	Size of irrep 5 of <ia|bc> integrals:      0.008 (MW) /      0.061 (MB)
	Size of irrep 6 of <ia|bc> integrals:      0.008 (MW) /      0.061 (MB)
	Size of irrep 7 of <ia|bc> integrals:      0.024 (MW) /      0.188 (MB)
	Total:                                     0.081 (MW) /      0.650 (MB)

	Size of irrep 0 of tijab amplitudes:       0.005 (MW) /      0.042 (MB)
	Size of irrep 1 of tijab amplitudes:       0.001 (MW) /      0.007 (MB)
	Size of irrep 2 of tijab amplitudes:       0.001 (MW) /      0.007 (MB)
	Size of irrep 3 of tijab amplitudes:       0.000 (MW) /      0.002 (MB)
	Size of irrep 4 of tijab amplitudes:       0.000 (MW) /      0.000 (MB)
	Size of irrep 5 of tijab amplitudes:       0.001 (MW) /      0.011 (MB)
	Size of irrep 6 of tijab amplitudes:       0.001 (MW) /      0.011 (MB)
	Size of irrep 7 of tijab amplitudes:       0.004 (MW) /      0.033 (MB)
	Total:                                     0.014 (MW) /      0.113 (MB)

	Nuclear Rep. energy          =     24.32321817137924
	SCF energy                   =    -76.82339501304087
	One-electron energy          =   -150.70228745017286
	Two-electron energy          =     49.55567426575271
	Reference energy             =    -76.82339501304091

*** tstop() called on atlantis at Tue Apr 19 01:46:58 2022
Module time:
	user time   =       0.04 seconds =       0.00 minutes
	system time =       0.01 seconds =       0.00 minutes
	total time  =          0 seconds =       0.00 minutes
Total time:
	user time   =       0.44 seconds =       0.01 minutes
	system time =       0.02 seconds =       0.00 minutes
	total time  =          1 seconds =       0.02 minutes
            **************************
            *                        *
            *        CCENERGY        *
            *                        *
            **************************

    Nuclear Rep. energy (wfn)     =   24.323218171379235
    SCF energy          (wfn)     =  -76.823395013040866
    Reference energy    (file100) =  -76.823395013040908

    Input parameters:
    -----------------
    Wave function   =     CCSD
    Reference wfn   =     RHF
    Brueckner       =     No
    Memory (Mbytes) =     524.3
    Maxiter         =     50
    R_Convergence   =     1.0e-07
    E_Convergence   =     1.0e-06
    Restart         =     Yes
    DIIS            =     Yes
    AO Basis        =     NONE
    ABCD            =     NEW
    Cache Level     =     2
    Cache Type      =     LOW
    Print Level     =     1
    Num. of threads =     1
    # Amps to Print =     10
    Print MP2 Amps? =     No
    Analyze T2 Amps =     No
    Print Pair Ener =     No
    Local CC        =     No
    SCS-MP2         =     False
    SCSN-MP2        =     False
    SCS-CCSD        =     False

MP2 correlation energy -0.2744596546253321
                Solving CC Amplitude Equations
                ------------------------------
  Iter             Energy              RMS        T1Diag      D1Diag    New D1Diag    D2Diag
  ----     ---------------------    ---------   ----------  ----------  ----------   --------
     0        -0.274459654625332    0.000e+00    0.000000    0.000000    0.000000    0.159189
     1        -0.276687769169813    5.585e-02    0.010100    0.025527    0.025527    0.161241
     2        -0.286144259822700    2.359e-02    0.010592    0.026609    0.026609    0.173066
     3        -0.288775212761657    1.060e-02    0.012224    0.030708    0.030708    0.180345
     4        -0.289087476196563    3.300e-03    0.012333    0.030972    0.030972    0.182929
     5        -0.289149084339606    7.346e-04    0.012334    0.030996    0.030996    0.183433
     6        -0.289144951995718    2.034e-04    0.012314    0.030953    0.030953    0.183472
     7        -0.289148431296013    4.319e-05    0.012310    0.030944    0.030944    0.183487
     8        -0.289148876505462    1.134e-05    0.012309    0.030941    0.030941    0.183490
     9        -0.289148722569899    2.780e-06    0.012309    0.030940    0.030940    0.183490
    10        -0.289148794193003    7.399e-07    0.012309    0.030940    0.030940    0.183491
    11        -0.289148793817254    1.972e-07    0.012309    0.030940    0.030940    0.183491
    12        -0.289148797061061    6.131e-08    0.012309    0.030940    0.030940    0.183491

    Iterations converged.


    Largest TIA Amplitudes:
              3  24         0.0231180383
              4  28         0.0231180383
              3  23         0.0155411886
              4  27         0.0155411886
              3  25         0.0128052151
              4  29         0.0128052151
              2   3        -0.0054907708
              3  26         0.0041659574
              4  30         0.0041659574
              6  35         0.0041614059

    Largest TIjAb Amplitudes:
      3   3  17  17        -0.0792920463
      4   4  12  12        -0.0792920463
      3   3  16  17        -0.0510960488
      3   3  17  16        -0.0510960488
      4   4  11  12        -0.0510960488
      4   4  12  11        -0.0510960488
      3   4  17  12        -0.0482205073
      4   3  12  17        -0.0482205073
      3   3  16  16        -0.0342196501
      4   4  11  11        -0.0342196501

    SCF energy       (wfn)                    =  -76.823395013040866
    Reference energy (file100)                =  -76.823395013040908

    Opposite-spin MP2 correlation energy      =   -0.209469877886677
    Same-spin MP2 correlation energy          =   -0.064989776738655
    MP2 correlation energy                    =   -0.274459654625332
      * MP2 total energy                      =  -77.097854667666240

    Opposite-spin CCSD correlation energy     =   -0.234425688333123
    Same-spin CCSD correlation energy         =   -0.054723108727938
    CCSD correlation energy                   =   -0.289148797061061
      * CCSD total energy                     =  -77.112543810101968

gradient() will perform analytic gradient computation.

*** tstart() called on atlantis
*** at Tue Apr 19 01:46:58 2022

   => Loading Basis Set <=

    Name: 6-31++G**
    Role: ORBITAL
    Keyword: BASIS
    atoms 1-2 entry C          line   115 file /home/akrom/software/anaconda3/envs/ffpenv/share/psi4/basis/6-31ppgss.gbs 
    atoms 3-4 entry H          line    46 file /home/akrom/software/anaconda3/envs/ffpenv/share/psi4/basis/6-31ppgss.gbs 


         ---------------------------------------------------------
                                   SCF
               by Justin Turney, Rob Parrish, Andy Simmonett
                          and Daniel G. A. Smith
                              RHF Reference
                        1 Threads,    500 MiB Core
         ---------------------------------------------------------

  ==> Geometry <==

    Molecular point group: d2h
    Full point group: D_inf_h

    Geometry (in Angstrom), charge = 0, multiplicity = 1:

       Center              X                  Y                   Z               Mass       
    ------------   -----------------  -----------------  -----------------  -----------------
         C           -0.614460000000    -0.000000000000     0.000000000000    12.000000000000
         C            0.614460000000     0.000000000000     0.000000000000    12.000000000000
         H           -1.689230000000    -0.000000000000     0.000000000000     1.007825032230
         H            1.689230000000     0.000000000000     0.000000000000     1.007825032230

  Running in d2h symmetry.

  Rotational constants: A = ************  B =      1.13802  C =      1.13802 [cm^-1]
  Rotational constants: A = ************  B =  34116.98697  C =  34116.98697 [MHz]
  Nuclear repulsion =   24.323218171379235

  Charge       = 0
  Multiplicity = 1
  Electrons    = 14
  Nalpha       = 7
  Nbeta        = 7

  ==> Algorithm <==

  SCF Algorithm Type is PK.
  DIIS enabled.
  MOM disabled.
  Fractional occupation disabled.
  Guess Type is SAD.
  Energy threshold   = 1.00e-10
  Density threshold  = 1.00e-10
  Integral threshold = 0.00e+00

  ==> Primary Basis <==

  Basis Set: 6-31++G**
    Blend: 6-31++G**
    Number of shells: 24
    Number of basis function: 50
    Number of Cartesian functions: 50
    Spherical Harmonics?: false
    Max angular momentum: 2

  ==> Pre-Iterations <==

   -------------------------------------------------------
    Irrep   Nso     Nmo     Nalpha   Nbeta   Ndocc  Nsocc
   -------------------------------------------------------
     Ag        14      14       0       0       0       0
     B1g        5       5       0       0       0       0
     B2g        5       5       0       0       0       0
     B3g        1       1       0       0       0       0
     Au         1       1       0       0       0       0
     B1u        5       5       0       0       0       0
     B2u        5       5       0       0       0       0
     B3u       14      14       0       0       0       0
   -------------------------------------------------------
    Total      50      50       7       7       7       0
   -------------------------------------------------------

  ==> Integral Setup <==

  Using in-core PK algorithm.
   Calculation information:
      Number of atoms:                   4
      Number of AO shells:              24
      Number of primitives:             46
      Number of atomic orbitals:        50
      Number of basis functions:        50

      Integral cutoff                 1.00e-12
      Number of threads:                 1

  Performing in-core PK
  Using 1626900 doubles for integral storage.
  We computed 45127 shell quartets total.
  Whereas there are 45150 unique shell quartets.

  ==> DiskJK: Disk-Based J/K Matrices <==

    J tasked:                  Yes
    K tasked:                  Yes
    wK tasked:                  No
    Memory [MiB]:              375
    Schwarz Cutoff:          1E-12

    OpenMP threads:              1

  Minimum eigenvalue in the overlap matrix is 3.2945534455E-05.
  Using Symmetric Orthogonalization.

  SCF Guess: Superposition of Atomic Densities via on-the-fly atomic UHF.

  ==> Iterations <==

                        Total Energy        Delta E     RMS |[F,P]|

   @RHF iter SAD:   -75.83682686563145   -7.58368e+01   0.00000e+00 
   @RHF iter   1:   -76.77981885148988   -9.42992e-01   1.21530e-02 DIIS
   @RHF iter   2:   -76.81885973348200   -3.90409e-02   4.13959e-03 DIIS
   @RHF iter   3:   -76.82327553718912   -4.41580e-03   4.77281e-04 DIIS
   @RHF iter   4:   -76.82339337521336   -1.17838e-04   5.13813e-05 DIIS
   @RHF iter   5:   -76.82339493034263   -1.55513e-06   1.06479e-05 DIIS
   @RHF iter   6:   -76.82339501122054   -8.08779e-08   1.62577e-06 DIIS
   @RHF iter   7:   -76.82339501300297   -1.78242e-09   2.45570e-07 DIIS
   @RHF iter   8:   -76.82339501304079   -3.78293e-11   1.51851e-08 DIIS
   @RHF iter   9:   -76.82339501304087   -7.10543e-14   1.43544e-09 DIIS
   @RHF iter  10:   -76.82339501304094   -7.10543e-14   2.32886e-10 DIIS
   @RHF iter  11:   -76.82339501304101   -7.10543e-14   9.13875e-12 DIIS
  Energy and wave function converged.


  ==> Post-Iterations <==

    Orbital Energies [Eh]
    ---------------------

    Doubly Occupied:                                                      

       1Ag   -11.261151     1B3u  -11.258003     2Ag    -1.024291  
       2B3u   -0.767621     3Ag    -0.676048     1B1u   -0.404178  
       1B2u   -0.404178  

    Virtual:                                                              

       4Ag     0.044251     3B3u    0.050642     1B1g    0.111679  
       1B2g    0.111679     2B2u    0.134513     2B1u    0.134513  
       5Ag     0.155379     4B3u    0.177580     6Ag     0.210208  
       5B3u    0.235081     2B1g    0.257958     2B2g    0.257958  
       6B3u    0.372758     7Ag     0.433008     7B3u    0.778384  
       3B1u    0.878731     3B2u    0.878731     8Ag     0.914370  
       3B1g    0.975600     3B2g    0.975600     8B3u    1.084387  
       9Ag     1.129554    10Ag     1.365735     9B3u    1.577628  
       4B1u    1.629317     4B2u    1.629317    10B3u    1.690439  
       1B3g    1.811768    11Ag     1.811768     4B1g    2.216936  
       4B2g    2.216936     1Au     2.223439    11B3u    2.223439  
      12Ag     2.657613     5B1u    2.670809     5B2u    2.670809  
      12B3u    3.124549     5B1g    3.325812     5B2g    3.325812  
      13Ag     3.778257    13B3u    4.206310    14Ag     4.982087  
      14B3u    5.746691  

    Final Occupation by Irrep:
             Ag   B1g   B2g   B3g    Au   B1u   B2u   B3u 
    DOCC [     3,    0,    0,    0,    0,    1,    1,    2 ]

  @RHF Final Energy:   -76.82339501304101

   => Energetics <=

    Nuclear Repulsion Energy =             24.3232181713792350
    One-Electron Energy =                -150.7022874433520201
    Two-Electron Energy =                  49.5556742589317736
    Total Energy =                        -76.8233950130410079

Computation Completed


Properties will be evaluated at   0.000000,   0.000000,   0.000000 [a0]

Properties computed using the SCF density matrix

  Nuclear Dipole Moment: [e a0]
     X:     0.0000      Y:     0.0000      Z:     0.0000

  Electronic Dipole Moment: [e a0]
     X:     0.0000      Y:     0.0000      Z:     0.0000

  Dipole Moment: [e a0]
     X:     0.0000      Y:     0.0000      Z:     0.0000     Total:     0.0000

  Dipole Moment: [D]
     X:     0.0000      Y:     0.0000      Z:     0.0000     Total:     0.0000


*** tstop() called on atlantis at Tue Apr 19 01:46:58 2022
Module time:
	user time   =       0.33 seconds =       0.01 minutes
	system time =       0.00 seconds =       0.00 minutes
	total time  =          0 seconds =       0.00 minutes
Total time:
	user time   =       0.85 seconds =       0.01 minutes
	system time =       0.11 seconds =       0.00 minutes
	total time  =          1 seconds =       0.02 minutes
 MINTS: Wrapper to libmints.
   by Justin Turney

   Calculation information:
      Number of threads:                 1
      Number of atoms:                   4
      Number of AO shells:              24
      Number of SO shells:              12
      Number of primitives:             46
      Number of atomic orbitals:        50
      Number of basis functions:        50

      Number of irreps:                  8
      Integral cutoff                 0.00e+00
      Number of functions per irrep: [  14    5    5    1    1    5    5   14 ]

 OEINTS: Overlap, kinetic, potential, dipole, and quadrupole integrals
         stored in file 35.

      Computing two-electron integrals...done
      Computed 119218 non-zero two-electron integrals.
        Stored in file 33.


*** tstart() called on atlantis
*** at Tue Apr 19 01:46:58 2022


	Wfn Parameters:
	--------------------
	Wavefunction         = CCSD
	Number of irreps     = 8
	Number of MOs        = 50
	Number of active MOs = 50
	AO-Basis             = NONE
	Semicanonical        = false
	Reference            = RHF
	Print Level          = 1

	IRREP	# MOs	# FZDC	# DOCC	# SOCC	# VIRT	# FZVR
	-----	-----	------	------	------	------	------
	 Ag	   14	    0	    3	    0	    11	    0
	 B1g	   5	    0	    0	    0	    5	    0
	 B2g	   5	    0	    0	    0	    5	    0
	 B3g	   1	    0	    0	    0	    1	    0
	 Au	   1	    0	    0	    0	    1	    0
	 B1u	   5	    0	    1	    0	    4	    0
	 B2u	   5	    0	    1	    0	    4	    0
	 B3u	   14	    0	    2	    0	    12	    0
	Transforming integrals...
	IWL integrals will be deleted.
	(OO|OO)...
	Presorting SO-basis two-electron integrals.
	Sorting File: SO Ints (nn|nn) nbuckets = 1
	Transforming the one-electron integrals and constructing Fock matrices
	Starting first half-transformation.
	Sorting half-transformed integrals.
	First half integral transformation complete.
	Starting second half-transformation.
	Two-electron integral transformation complete.
	(OO|OV)...
	Starting second half-transformation.
	Two-electron integral transformation complete.
	(OO|VV)...
	Starting second half-transformation.
	Two-electron integral transformation complete.
	(OV|OO)...
	Starting first half-transformation.
	Sorting half-transformed integrals.
	First half integral transformation complete.
	Starting second half-transformation.
	Two-electron integral transformation complete.
	(OV|OV)...
	Starting second half-transformation.
	Two-electron integral transformation complete.
	(OV|VV)...
	Starting second half-transformation.
	Two-electron integral transformation complete.
	(VV|OO)...
	Starting first half-transformation.
	Sorting half-transformed integrals.
	First half integral transformation complete.
	Starting second half-transformation.
	Two-electron integral transformation complete.
	(VV|OV)...
	Starting second half-transformation.
	Two-electron integral transformation complete.
	(VV|VV)...
	Starting second half-transformation.
	Two-electron integral transformation complete.
	Frozen core energy     =      0.00000000000000

	Size of irrep 0 of <ab|cd> integrals:      0.122 (MW) /      0.974 (MB)
	Size of irrep 1 of <ab|cd> integrals:      0.050 (MW) /      0.401 (MB)
	Size of irrep 2 of <ab|cd> integrals:      0.050 (MW) /      0.401 (MB)
	Size of irrep 3 of <ab|cd> integrals:      0.016 (MW) /      0.131 (MB)
	Size of irrep 4 of <ab|cd> integrals:      0.016 (MW) /      0.127 (MB)
	Size of irrep 5 of <ab|cd> integrals:      0.051 (MW) /      0.409 (MB)
	Size of irrep 6 of <ab|cd> integrals:      0.051 (MW) /      0.409 (MB)
	Size of irrep 7 of <ab|cd> integrals:      0.120 (MW) /      0.958 (MB)
	Total:                                     0.476 (MW) /      3.810 (MB)

	Size of irrep 0 of <ia|bc> integrals:      0.023 (MW) /      0.181 (MB)
	Size of irrep 1 of <ia|bc> integrals:      0.008 (MW) /      0.065 (MB)
	Size of irrep 2 of <ia|bc> integrals:      0.008 (MW) /      0.065 (MB)
	Size of irrep 3 of <ia|bc> integrals:      0.002 (MW) /      0.013 (MB)
	Size of irrep 4 of <ia|bc> integrals:      0.002 (MW) /      0.015 (MB)
	Size of irrep 5 of <ia|bc> integrals:      0.008 (MW) /      0.061 (MB)
	Size of irrep 6 of <ia|bc> integrals:      0.008 (MW) /      0.061 (MB)
	Size of irrep 7 of <ia|bc> integrals:      0.024 (MW) /      0.188 (MB)
	Total:                                     0.081 (MW) /      0.650 (MB)

	Size of irrep 0 of tijab amplitudes:       0.005 (MW) /      0.042 (MB)
	Size of irrep 1 of tijab amplitudes:       0.001 (MW) /      0.007 (MB)
	Size of irrep 2 of tijab amplitudes:       0.001 (MW) /      0.007 (MB)
	Size of irrep 3 of tijab amplitudes:       0.000 (MW) /      0.002 (MB)
	Size of irrep 4 of tijab amplitudes:       0.000 (MW) /      0.000 (MB)
	Size of irrep 5 of tijab amplitudes:       0.001 (MW) /      0.011 (MB)
	Size of irrep 6 of tijab amplitudes:       0.001 (MW) /      0.011 (MB)
	Size of irrep 7 of tijab amplitudes:       0.004 (MW) /      0.033 (MB)
	Total:                                     0.014 (MW) /      0.113 (MB)

	Nuclear Rep. energy          =     24.32321817137924
	SCF energy                   =    -76.82339501304101
	One-electron energy          =   -150.70228744347560
	Two-electron energy          =     49.55567425905537
	Reference energy             =    -76.82339501304099

*** tstop() called on atlantis at Tue Apr 19 01:46:58 2022
Module time:
	user time   =       0.05 seconds =       0.00 minutes
	system time =       0.02 seconds =       0.00 minutes
	total time  =          0 seconds =       0.00 minutes
Total time:
	user time   =       0.95 seconds =       0.02 minutes
	system time =       0.13 seconds =       0.00 minutes
	total time  =          1 seconds =       0.02 minutes
            **************************
            *                        *
            *        CCENERGY        *
            *                        *
            **************************

    Nuclear Rep. energy (wfn)     =   24.323218171379235
    SCF energy          (wfn)     =  -76.823395013041008
    Reference energy    (file100) =  -76.823395013040994

    Input parameters:
    -----------------
    Wave function   =     CCSD
    Reference wfn   =     RHF
    Brueckner       =     No
    Memory (Mbytes) =     524.3
    Maxiter         =     50
    R_Convergence   =     1.0e-07
    E_Convergence   =     1.0e-08
    Restart         =     Yes
    DIIS            =     Yes
    AO Basis        =     NONE
    ABCD            =     NEW
    Cache Level     =     2
    Cache Type      =     LOW
    Print Level     =     1
    Num. of threads =     1
    # Amps to Print =     10
    Print MP2 Amps? =     No
    Analyze T2 Amps =     No
    Print Pair Ener =     No
    Local CC        =     No
    SCS-MP2         =     False
    SCSN-MP2        =     False
    SCS-CCSD        =     False

    Using old T1 amplitudes.
    Using old T2 amplitudes.

MP2 correlation energy -0.2744596544932136
                Solving CC Amplitude Equations
                ------------------------------
  Iter             Energy              RMS        T1Diag      D1Diag    New D1Diag    D2Diag
  ----     ---------------------    ---------   ----------  ----------  ----------   --------
     0        -0.289148796946999    0.000e+00    0.012309    0.030940    0.030940    0.183491
     1        -0.289148798035289    2.651e-08    0.012309    0.030940    0.030940    0.183491
     2        -0.289148798216933    1.243e-08    0.012309    0.030940    0.030940    0.183491

    Iterations converged.


    Largest TIA Amplitudes:
              3  24         0.0231180402
              4  28         0.0231180402
              3  23         0.0155411910
              4  27         0.0155411910
              3  25         0.0128052154
              4  29         0.0128052154
              2   3        -0.0054907758
              3  26         0.0041659574
              4  30         0.0041659574
              6  35         0.0041614065

    Largest TIjAb Amplitudes:
      3   3  17  17        -0.0792920501
      4   4  12  12        -0.0792920501
      3   3  16  17        -0.0510960511
      3   3  17  16        -0.0510960511
      4   4  11  12        -0.0510960511
      4   4  12  11        -0.0510960511
      3   4  17  12        -0.0482205076
      4   3  12  17        -0.0482205076
      3   3  16  16        -0.0342196507
      4   4  11  11        -0.0342196507

    SCF energy       (wfn)                    =  -76.823395013041008
    Reference energy (file100)                =  -76.823395013040994

    Opposite-spin MP2 correlation energy      =   -0.209469877816573
    Same-spin MP2 correlation energy          =   -0.064989776676641
    MP2 correlation energy                    =   -0.274459654493214
      * MP2 total energy                      =  -77.097854667534207

    Opposite-spin CCSD correlation energy     =   -0.234425689492760
    Same-spin CCSD correlation energy         =   -0.054723108724173
    CCSD correlation energy                   =   -0.289148798216933
      * CCSD total energy                     =  -77.112543811257922


			**************************
			*                        *
			*         CCHBAR         *
			*                        *
			**************************


			**************************
			*        CCLAMBDA        *
			**************************


	Nuclear Rep. energy (wfn)     =   24.323218171379235
	Reference           (wfn)     =                    0
	SCF energy          (wfn)     =  -76.823395013041008
	Reference energy    (CC_INFO) =  -76.823395013040994
	CCSD energy         (CC_INFO) =   -0.289148798216933
	Total CCSD energy   (CC_INFO) =  -77.112543811257922

	Input parameters:
	-----------------
	Maxiter           =     50
	Convergence       = 1.0e-07
	Restart           =     No
	Cache Level       =     2
	Model III         =     No
	DIIS              =     Yes
	AO Basis          =     No
	ABCD              =     NEW
	Local CC          =     No
	Parameters for left-handed eigenvectors:
	    Irr   Root  Ground-State?    EOM energy        R0
	  1   0     0        Yes       0.0000000000   1.0000000000
	Labels for eigenvector 1:
	LIA 0 -1, Lia 0 -1, LIJAB 0 -1, Lijab 0 -1, LIjAb 0 -1, 2LIjAb - LIjbA 0 -1
	Symmetry of left-hand state: Ag
	Symmetry of left-hand eigenvector: Ag

	          Solving Lambda Equations
	          ------------------------
	Iter     PseudoEnergy or Norm         RMS  
	----     ---------------------     --------
	   0        -0.289391617299923    0.000e+00
	   1        -0.280458670424716    1.971e-02
	   2        -0.278876463741657    4.144e-03
	   3        -0.278671386662065    1.192e-03
	   4        -0.278639774619800    3.418e-04
	   5        -0.278640321424233    1.044e-04
	   6        -0.278636952822288    2.566e-05
	   7        -0.278636593384069    1.002e-05
	   8        -0.278636378271411    3.384e-06
	   9        -0.278636292153765    8.054e-07
	  10        -0.278636304257371    1.997e-07
	  11        -0.278636302787303    5.533e-08

	Largest LIA Amplitudes:
	          3  24         0.0158851198
	          4  28         0.0158851198
	          3  23         0.0104335300
	          4  27         0.0104335300
	          3  25         0.0092266358
	          4  29         0.0092266358
	          2   3        -0.0077538471
	          2   2        -0.0054447535
	          6  35         0.0047038674
	          2   0        -0.0042480606

	Largest LIjAb Amplitudes:
	  3   3  17  17        -0.0762847378
	  4   4  12  12        -0.0762847378
	  3   3  16  17        -0.0492740296
	  3   3  17  16        -0.0492740296
	  4   4  11  12        -0.0492740296
	  4   4  12  11        -0.0492740296
	  3   4  17  12        -0.0452254329
	  4   3  12  17        -0.0452254329
	  3   3  16  16        -0.0330707722
	  4   4  11  11        -0.0330707722

	Iterations converged.

	Overlap <L|e^T> =        0.87384375870

			**************************
			*                        *
			*        CCDENSITY       *
			*                        *
			**************************


	Input parameters:
	-----------------
	Wave function    =   CCSD
	Reference wfn    =   RHF
	Dertype          = 1
	Tolerance        = 1.0e-14
	Cache Level      = 2
	AO Basis         = No
	OPDM Only        = No
	Relax OPDM       = Yes
	Compute Xi       = No
	Use Zeta         = No
	Xi connected     = Yes
	Compute NO       = No

	Nuclear Rep. energy (wfn)     =   24.323218171379235
	SCF energy          (wfn)     =  -76.823395013041008
	Reference energy    (file100) =  -76.823395013040994
	CCSD energy         (CC_INFO) =   -0.289148798216933
	Total CCSD energy   (CC_INFO) =  -77.112543811257922
	Number of States = 1

	Ground?  State     EOM Energy       R0
	  Yes     0 Ag    0.0000000000   1.00000000

	Virial Theorem Data:
	--------------------
	Kinetic energy (ref)   =   76.454990618744120
	Kinetic energy (corr)  =    0.425807522523697
	Kinetic energy (total) =   76.880798141267817
	-V/T (ref)             =    2.004818578765303
	-V/T (corr)            =    1.679059863722445
	-V/T (total)           =    2.003014350469727
  Cartesian Displacement SALCs
  By SALC:
  Number of SALCs: 2, nirreps: Ag
  Project out translations: False
  Project out rotations: False
	irrep = 0, ncomponent = 2
		0: atom 0, direction x, coef 0.707107
		1: atom 1, direction x, coef -0.707107
	irrep = 0, ncomponent = 2
		0: atom 2, direction x, coef 0.707107
		1: atom 3, direction x, coef -0.707107

  By Atomic Center:
  Number of atomic centers: 4
   Atomic Center 0:
	x component, size = 1
		0: salc 0, irrep 0, coef 0.707107
	y component, size = 0
	z component, size = 0
   Atomic Center 1:
	x component, size = 1
		0: salc 0, irrep 0, coef -0.707107
	y component, size = 0
	z component, size = 0
   Atomic Center 2:
	x component, size = 1
		0: salc 1, irrep 0, coef 0.707107
	y component, size = 0
	z component, size = 0
   Atomic Center 3:
	x component, size = 1
		0: salc 1, irrep 0, coef -0.707107
	y component, size = 0
	z component, size = 0

    Molecular point group: d2h
    Full point group: D_inf_h

    Geometry (in Bohr), charge = 0, multiplicity = 1:

       Center              X                  Y                   Z       
    ------------   -----------------  -----------------  -----------------
         C           -1.161161115049    -0.000000000000     0.000000000000
         C            1.161161115049     0.000000000000     0.000000000000
         H           -3.192182062907    -0.000000000000     0.000000000000
         H            3.192182062907     0.000000000000     0.000000000000

	Presorting MO-basis TPDM.
	Sorting File: MO TPDM (AA|AA) nbuckets = 1
	Starting first half-transformation.
	Sorting half-transformed TPDM.
	First half integral transformation complete.


  -Nuclear Repulsion Energy 1st Derivatives:
     Atom            X                  Y                   Z
    ------   -----------------  -----------------  -----------------
       1        5.537163209075     0.000000000000     0.000000000000
       2       -5.537163209075    -0.000000000000     0.000000000000
       3        1.795659009002     0.000000000000     0.000000000000
       4       -1.795659009002    -0.000000000000     0.000000000000


  -Core Hamiltonian Gradient:
     Atom            X                  Y                   Z
    ------   -----------------  -----------------  -----------------
       1      -15.904193615881    -0.000000000000     0.000000000000
       2       15.904193615881     0.000000000000     0.000000000000
       3       -4.600916786183    -0.000000000000     0.000000000000
       4        4.600916786183     0.000000000000     0.000000000000


  -Lagrangian contribution to gradient:
     Atom            X                  Y                   Z
    ------   -----------------  -----------------  -----------------
       1        0.466349495738     0.000000000000     0.000000000000
       2       -0.466349495738    -0.000000000000     0.000000000000
       3        0.238071333762     0.000000000000     0.000000000000
       4       -0.238071333762    -0.000000000000     0.000000000000


  -Two-electron contribution to gradient:
     Atom            X                  Y                   Z
    ------   -----------------  -----------------  -----------------
       1        9.878089370520     0.000000000000     0.000000000000
       2       -9.878089370520    -0.000000000000     0.000000000000
       3        2.558667476816     0.000000000000     0.000000000000
       4       -2.558667476816    -0.000000000000     0.000000000000


  -Total gradient:
     Atom            X                  Y                   Z
    ------   -----------------  -----------------  -----------------
       1       -0.022591540548    -0.000000000000     0.000000000000
       2        0.022591540548     0.000000000000     0.000000000000
       3       -0.008518966603    -0.000000000000     0.000000000000
       4        0.008518966603     0.000000000000     0.000000000000


  Based on options and gradient (rms=9.86E-03), recommend projecting translations and projecting rotations.
hessian() will perform frequency computation by finite difference of analytic gradients.

         ----------------------------------------------------------
                                   FINDIF
                     R. A. King and Jonathon Misiewicz
         ---------------------------------------------------------

  Using finite-differences of gradients to determine vibrational frequencies and 
  normal modes.  Resulting frequencies are only valid at stationary points.
    Generating geometries for use with 3-point formula.
    Displacement size will be 5.00e-03.
    Number of atoms is 4.
    Number of irreps is 8.
    Number of SALCs is 7.
    Translations projected? 1. Rotations projected? 1.
    Index of SALCs per irrep:
     1 :  0  1 
     2 :  2 
     3 :  3 
     4 : 
     5 : 
     6 :  4 
     7 :  5 
     8 :  6 
    Number of SALCs per irrep:
     Irrep 1: 2
     Irrep 2: 1
     Irrep 3: 1
     Irrep 4: 0
     Irrep 5: 0
     Irrep 6: 1
     Irrep 7: 1
     Irrep 8: 1
    Number of geometries (including reference) is 10.
    Number of displacements per irrep:
      Irrep 1: 4
      Irrep 2: 1
      Irrep 3: 1
      Irrep 4: 0
      Irrep 5: 0
      Irrep 6: 1
      Irrep 7: 1
      Irrep 8: 1

  //>>>>>>>>>>>>>>>>>>>>>>>>>>>>>>>>>>>//
  //    Loading displacement 1 of 10   //
  //<<<<<<<<<<<<<<<<<<<<<<<<<<<<<<<<<<<//
gradient() will perform analytic gradient computation.

*** tstart() called on atlantis
*** at Tue Apr 19 01:46:59 2022

   => Loading Basis Set <=

    Name: 6-31++G**
    Role: ORBITAL
    Keyword: BASIS
    atoms 1-2 entry C          line   115 file /home/akrom/software/anaconda3/envs/ffpenv/share/psi4/basis/6-31ppgss.gbs 
    atoms 3-4 entry H          line    46 file /home/akrom/software/anaconda3/envs/ffpenv/share/psi4/basis/6-31ppgss.gbs 


         ---------------------------------------------------------
                                   SCF
               by Justin Turney, Rob Parrish, Andy Simmonett
                          and Daniel G. A. Smith
                              RHF Reference
                        1 Threads,    500 MiB Core
         ---------------------------------------------------------

  ==> Geometry <==

    Molecular point group: d2h
    Full point group: D_inf_h

    Geometry (in Angstrom), charge = 0, multiplicity = 1:

       Center              X                  Y                   Z               Mass       
    ------------   -----------------  -----------------  -----------------  -----------------
         C           -0.614460000000    -0.000000000000     0.000000000000    12.000000000000
         C            0.614460000000     0.000000000000     0.000000000000    12.000000000000
         H           -1.689230000000    -0.000000000000     0.000000000000     1.007825032230
         H            1.689230000000     0.000000000000     0.000000000000     1.007825032230

  Running in d2h symmetry.

  Rotational constants: A = ************  B =      1.13802  C =      1.13802 [cm^-1]
  Rotational constants: A = ************  B =  34116.98697  C =  34116.98697 [MHz]
  Nuclear repulsion =   24.323218171379235

  Charge       = 0
  Multiplicity = 1
  Electrons    = 14
  Nalpha       = 7
  Nbeta        = 7

  ==> Algorithm <==

  SCF Algorithm Type is PK.
  DIIS enabled.
  MOM disabled.
  Fractional occupation disabled.
  Guess Type is SAD.
  Energy threshold   = 1.00e-10
  Density threshold  = 1.00e-10
  Integral threshold = 0.00e+00

  ==> Primary Basis <==

  Basis Set: 6-31++G**
    Blend: 6-31++G**
    Number of shells: 24
    Number of basis function: 50
    Number of Cartesian functions: 50
    Spherical Harmonics?: false
    Max angular momentum: 2

  ==> Pre-Iterations <==

   -------------------------------------------------------
    Irrep   Nso     Nmo     Nalpha   Nbeta   Ndocc  Nsocc
   -------------------------------------------------------
     Ag        14      14       0       0       0       0
     B1g        5       5       0       0       0       0
     B2g        5       5       0       0       0       0
     B3g        1       1       0       0       0       0
     Au         1       1       0       0       0       0
     B1u        5       5       0       0       0       0
     B2u        5       5       0       0       0       0
     B3u       14      14       0       0       0       0
   -------------------------------------------------------
    Total      50      50       7       7       7       0
   -------------------------------------------------------

  ==> Integral Setup <==

  Using in-core PK algorithm.
   Calculation information:
      Number of atoms:                   4
      Number of AO shells:              24
      Number of primitives:             46
      Number of atomic orbitals:        50
      Number of basis functions:        50

      Integral cutoff                 1.00e-12
      Number of threads:                 1

  Performing in-core PK
  Using 1626900 doubles for integral storage.
  We computed 45127 shell quartets total.
  Whereas there are 45150 unique shell quartets.

  ==> DiskJK: Disk-Based J/K Matrices <==

    J tasked:                  Yes
    K tasked:                  Yes
    wK tasked:                  No
    Memory [MiB]:              375
    Schwarz Cutoff:          1E-12

    OpenMP threads:              1

  Minimum eigenvalue in the overlap matrix is 3.2945534455E-05.
  Using Symmetric Orthogonalization.

  SCF Guess: Superposition of Atomic Densities via on-the-fly atomic UHF.

  ==> Iterations <==

                        Total Energy        Delta E     RMS |[F,P]|

   @RHF iter SAD:   -75.83682686563145   -7.58368e+01   0.00000e+00 
   @RHF iter   1:   -76.77981885148988   -9.42992e-01   1.21530e-02 DIIS
   @RHF iter   2:   -76.81885973348200   -3.90409e-02   4.13959e-03 DIIS
   @RHF iter   3:   -76.82327553718912   -4.41580e-03   4.77281e-04 DIIS
   @RHF iter   4:   -76.82339337521336   -1.17838e-04   5.13813e-05 DIIS
   @RHF iter   5:   -76.82339493034263   -1.55513e-06   1.06479e-05 DIIS
   @RHF iter   6:   -76.82339501122054   -8.08779e-08   1.62577e-06 DIIS
   @RHF iter   7:   -76.82339501300297   -1.78242e-09   2.45570e-07 DIIS
   @RHF iter   8:   -76.82339501304079   -3.78293e-11   1.51851e-08 DIIS
   @RHF iter   9:   -76.82339501304087   -7.10543e-14   1.43544e-09 DIIS
   @RHF iter  10:   -76.82339501304094   -7.10543e-14   2.32886e-10 DIIS
   @RHF iter  11:   -76.82339501304101   -7.10543e-14   9.13875e-12 DIIS
  Energy and wave function converged.


  ==> Post-Iterations <==

    Orbital Energies [Eh]
    ---------------------

    Doubly Occupied:                                                      

       1Ag   -11.261151     1B3u  -11.258003     2Ag    -1.024291  
       2B3u   -0.767621     3Ag    -0.676048     1B1u   -0.404178  
       1B2u   -0.404178  

    Virtual:                                                              

       4Ag     0.044251     3B3u    0.050642     1B1g    0.111679  
       1B2g    0.111679     2B2u    0.134513     2B1u    0.134513  
       5Ag     0.155379     4B3u    0.177580     6Ag     0.210208  
       5B3u    0.235081     2B1g    0.257958     2B2g    0.257958  
       6B3u    0.372758     7Ag     0.433008     7B3u    0.778384  
       3B1u    0.878731     3B2u    0.878731     8Ag     0.914370  
       3B1g    0.975600     3B2g    0.975600     8B3u    1.084387  
       9Ag     1.129554    10Ag     1.365735     9B3u    1.577628  
       4B1u    1.629317     4B2u    1.629317    10B3u    1.690439  
       1B3g    1.811768    11Ag     1.811768     4B1g    2.216936  
       4B2g    2.216936     1Au     2.223439    11B3u    2.223439  
      12Ag     2.657613     5B1u    2.670809     5B2u    2.670809  
      12B3u    3.124549     5B1g    3.325812     5B2g    3.325812  
      13Ag     3.778257    13B3u    4.206310    14Ag     4.982087  
      14B3u    5.746691  

    Final Occupation by Irrep:
             Ag   B1g   B2g   B3g    Au   B1u   B2u   B3u 
    DOCC [     3,    0,    0,    0,    0,    1,    1,    2 ]

  @RHF Final Energy:   -76.82339501304101

   => Energetics <=

    Nuclear Repulsion Energy =             24.3232181713792350
    One-Electron Energy =                -150.7022874433520201
    Two-Electron Energy =                  49.5556742589317736
    Total Energy =                        -76.8233950130410079

Computation Completed


Properties will be evaluated at   0.000000,   0.000000,   0.000000 [a0]

Properties computed using the SCF density matrix

  Nuclear Dipole Moment: [e a0]
     X:     0.0000      Y:     0.0000      Z:     0.0000

  Electronic Dipole Moment: [e a0]
     X:     0.0000      Y:     0.0000      Z:     0.0000

  Dipole Moment: [e a0]
     X:     0.0000      Y:     0.0000      Z:     0.0000     Total:     0.0000

  Dipole Moment: [D]
     X:     0.0000      Y:     0.0000      Z:     0.0000     Total:     0.0000


*** tstop() called on atlantis at Tue Apr 19 01:47:00 2022
Module time:
	user time   =       0.33 seconds =       0.01 minutes
	system time =       0.00 seconds =       0.00 minutes
	total time  =          1 seconds =       0.02 minutes
Total time:
	user time   =       1.89 seconds =       0.03 minutes
	system time =       0.25 seconds =       0.00 minutes
	total time  =          3 seconds =       0.05 minutes
 MINTS: Wrapper to libmints.
   by Justin Turney

   Calculation information:
      Number of threads:                 1
      Number of atoms:                   4
      Number of AO shells:              24
      Number of SO shells:              12
      Number of primitives:             46
      Number of atomic orbitals:        50
      Number of basis functions:        50

      Number of irreps:                  8
      Integral cutoff                 0.00e+00
      Number of functions per irrep: [  14    5    5    1    1    5    5   14 ]

 OEINTS: Overlap, kinetic, potential, dipole, and quadrupole integrals
         stored in file 35.

      Computing two-electron integrals...done
      Computed 119218 non-zero two-electron integrals.
        Stored in file 33.


*** tstart() called on atlantis
*** at Tue Apr 19 01:47:00 2022


	Wfn Parameters:
	--------------------
	Wavefunction         = CCSD
	Number of irreps     = 8
	Number of MOs        = 50
	Number of active MOs = 50
	AO-Basis             = NONE
	Semicanonical        = false
	Reference            = RHF
	Print Level          = 1

	IRREP	# MOs	# FZDC	# DOCC	# SOCC	# VIRT	# FZVR
	-----	-----	------	------	------	------	------
	 Ag	   14	    0	    3	    0	    11	    0
	 B1g	   5	    0	    0	    0	    5	    0
	 B2g	   5	    0	    0	    0	    5	    0
	 B3g	   1	    0	    0	    0	    1	    0
	 Au	   1	    0	    0	    0	    1	    0
	 B1u	   5	    0	    1	    0	    4	    0
	 B2u	   5	    0	    1	    0	    4	    0
	 B3u	   14	    0	    2	    0	    12	    0
	Transforming integrals...
	IWL integrals will be deleted.
	(OO|OO)...
	Presorting SO-basis two-electron integrals.
	Sorting File: SO Ints (nn|nn) nbuckets = 1
	Transforming the one-electron integrals and constructing Fock matrices
	Starting first half-transformation.
	Sorting half-transformed integrals.
	First half integral transformation complete.
	Starting second half-transformation.
	Two-electron integral transformation complete.
	(OO|OV)...
	Starting second half-transformation.
	Two-electron integral transformation complete.
	(OO|VV)...
	Starting second half-transformation.
	Two-electron integral transformation complete.
	(OV|OO)...
	Starting first half-transformation.
	Sorting half-transformed integrals.
	First half integral transformation complete.
	Starting second half-transformation.
	Two-electron integral transformation complete.
	(OV|OV)...
	Starting second half-transformation.
	Two-electron integral transformation complete.
	(OV|VV)...
	Starting second half-transformation.
	Two-electron integral transformation complete.
	(VV|OO)...
	Starting first half-transformation.
	Sorting half-transformed integrals.
	First half integral transformation complete.
	Starting second half-transformation.
	Two-electron integral transformation complete.
	(VV|OV)...
	Starting second half-transformation.
	Two-electron integral transformation complete.
	(VV|VV)...
	Starting second half-transformation.
	Two-electron integral transformation complete.
	Frozen core energy     =      0.00000000000000

	Size of irrep 0 of <ab|cd> integrals:      0.122 (MW) /      0.974 (MB)
	Size of irrep 1 of <ab|cd> integrals:      0.050 (MW) /      0.401 (MB)
	Size of irrep 2 of <ab|cd> integrals:      0.050 (MW) /      0.401 (MB)
	Size of irrep 3 of <ab|cd> integrals:      0.016 (MW) /      0.131 (MB)
	Size of irrep 4 of <ab|cd> integrals:      0.016 (MW) /      0.127 (MB)
	Size of irrep 5 of <ab|cd> integrals:      0.051 (MW) /      0.409 (MB)
	Size of irrep 6 of <ab|cd> integrals:      0.051 (MW) /      0.409 (MB)
	Size of irrep 7 of <ab|cd> integrals:      0.120 (MW) /      0.958 (MB)
	Total:                                     0.476 (MW) /      3.810 (MB)

	Size of irrep 0 of <ia|bc> integrals:      0.023 (MW) /      0.181 (MB)
	Size of irrep 1 of <ia|bc> integrals:      0.008 (MW) /      0.065 (MB)
	Size of irrep 2 of <ia|bc> integrals:      0.008 (MW) /      0.065 (MB)
	Size of irrep 3 of <ia|bc> integrals:      0.002 (MW) /      0.013 (MB)
	Size of irrep 4 of <ia|bc> integrals:      0.002 (MW) /      0.015 (MB)
	Size of irrep 5 of <ia|bc> integrals:      0.008 (MW) /      0.061 (MB)
	Size of irrep 6 of <ia|bc> integrals:      0.008 (MW) /      0.061 (MB)
	Size of irrep 7 of <ia|bc> integrals:      0.024 (MW) /      0.188 (MB)
	Total:                                     0.081 (MW) /      0.650 (MB)

	Size of irrep 0 of tijab amplitudes:       0.005 (MW) /      0.042 (MB)
	Size of irrep 1 of tijab amplitudes:       0.001 (MW) /      0.007 (MB)
	Size of irrep 2 of tijab amplitudes:       0.001 (MW) /      0.007 (MB)
	Size of irrep 3 of tijab amplitudes:       0.000 (MW) /      0.002 (MB)
	Size of irrep 4 of tijab amplitudes:       0.000 (MW) /      0.000 (MB)
	Size of irrep 5 of tijab amplitudes:       0.001 (MW) /      0.011 (MB)
	Size of irrep 6 of tijab amplitudes:       0.001 (MW) /      0.011 (MB)
	Size of irrep 7 of tijab amplitudes:       0.004 (MW) /      0.033 (MB)
	Total:                                     0.014 (MW) /      0.113 (MB)

	Nuclear Rep. energy          =     24.32321817137924
	SCF energy                   =    -76.82339501304101
	One-electron energy          =   -150.70228744347560
	Two-electron energy          =     49.55567425905537
	Reference energy             =    -76.82339501304099

*** tstop() called on atlantis at Tue Apr 19 01:47:00 2022
Module time:
	user time   =       0.05 seconds =       0.00 minutes
	system time =       0.01 seconds =       0.00 minutes
	total time  =          0 seconds =       0.00 minutes
Total time:
	user time   =       1.98 seconds =       0.03 minutes
	system time =       0.26 seconds =       0.00 minutes
	total time  =          3 seconds =       0.05 minutes
            **************************
            *                        *
            *        CCENERGY        *
            *                        *
            **************************

    Nuclear Rep. energy (wfn)     =   24.323218171379235
    SCF energy          (wfn)     =  -76.823395013041008
    Reference energy    (file100) =  -76.823395013040994

    Input parameters:
    -----------------
    Wave function   =     CCSD
    Reference wfn   =     RHF
    Brueckner       =     No
    Memory (Mbytes) =     524.3
    Maxiter         =     50
    R_Convergence   =     1.0e-07
    E_Convergence   =     1.0e-08
    Restart         =     Yes
    DIIS            =     Yes
    AO Basis        =     NONE
    ABCD            =     NEW
    Cache Level     =     2
    Cache Type      =     LOW
    Print Level     =     1
    Num. of threads =     1
    # Amps to Print =     10
    Print MP2 Amps? =     No
    Analyze T2 Amps =     No
    Print Pair Ener =     No
    Local CC        =     No
    SCS-MP2         =     False
    SCSN-MP2        =     False
    SCS-CCSD        =     False

MP2 correlation energy -0.2744596544932136
                Solving CC Amplitude Equations
                ------------------------------
  Iter             Energy              RMS        T1Diag      D1Diag    New D1Diag    D2Diag
  ----     ---------------------    ---------   ----------  ----------  ----------   --------
     0        -0.274459654493214    0.000e+00    0.000000    0.000000    0.000000    0.159189
     1        -0.276687769066781    5.585e-02    0.010100    0.025527    0.025527    0.161241
     2        -0.286144259718751    2.359e-02    0.010592    0.026609    0.026609    0.173066
     3        -0.288775212656521    1.060e-02    0.012224    0.030708    0.030708    0.180345
     4        -0.289087476093457    3.300e-03    0.012333    0.030972    0.030972    0.182929
     5        -0.289149084235567    7.346e-04    0.012334    0.030996    0.030996    0.183433
     6        -0.289144951891638    2.034e-04    0.012314    0.030953    0.030953    0.183472
     7        -0.289148431191940    4.319e-05    0.012310    0.030944    0.030944    0.183487
     8        -0.289148876401378    1.134e-05    0.012309    0.030941    0.030941    0.183490
     9        -0.289148722465814    2.780e-06    0.012309    0.030940    0.030940    0.183490
    10        -0.289148794088918    7.399e-07    0.012309    0.030940    0.030940    0.183491
    11        -0.289148793713170    1.972e-07    0.012309    0.030940    0.030940    0.183491
    12        -0.289148796956977    6.131e-08    0.012309    0.030940    0.030940    0.183491

    Iterations converged.


    Largest TIA Amplitudes:
              3  24         0.0231180384
              4  28         0.0231180384
              3  23         0.0155411885
              4  27         0.0155411885
              3  25         0.0128052151
              4  29         0.0128052151
              2   3        -0.0054907707
              3  26         0.0041659574
              4  30         0.0041659574
              6  35         0.0041614058

    Largest TIjAb Amplitudes:
      3   3  17  17        -0.0792920468
      4   4  12  12        -0.0792920468
      3   3  16  17        -0.0510960485
      3   3  17  16        -0.0510960485
      4   4  11  12        -0.0510960485
      4   4  12  11        -0.0510960485
      3   4  17  12        -0.0482205076
      4   3  12  17        -0.0482205076
      3   3  16  16        -0.0342196495
      4   4  11  11        -0.0342196495

    SCF energy       (wfn)                    =  -76.823395013041008
    Reference energy (file100)                =  -76.823395013040994

    Opposite-spin MP2 correlation energy      =   -0.209469877816573
    Same-spin MP2 correlation energy          =   -0.064989776676641
    MP2 correlation energy                    =   -0.274459654493214
      * MP2 total energy                      =  -77.097854667534207

    Opposite-spin CCSD correlation energy     =   -0.234425688282410
    Same-spin CCSD correlation energy         =   -0.054723108674567
    CCSD correlation energy                   =   -0.289148796956977
      * CCSD total energy                     =  -77.112543809997973


			**************************
			*                        *
			*         CCHBAR         *
			*                        *
			**************************


			**************************
			*        CCLAMBDA        *
			**************************


	Nuclear Rep. energy (wfn)     =   24.323218171379235
	Reference           (wfn)     =                    0
	SCF energy          (wfn)     =  -76.823395013041008
	Reference energy    (CC_INFO) =  -76.823395013040994
	CCSD energy         (CC_INFO) =   -0.289148796956977
	Total CCSD energy   (CC_INFO) =  -77.112543809997973

	Input parameters:
	-----------------
	Maxiter           =     50
	Convergence       = 1.0e-07
	Restart           =     No
	Cache Level       =     2
	Model III         =     No
	DIIS              =     Yes
	AO Basis          =     No
	ABCD              =     NEW
	Local CC          =     No
	Parameters for left-handed eigenvectors:
	    Irr   Root  Ground-State?    EOM energy        R0
	  1   0     0        Yes       0.0000000000   1.0000000000
	Labels for eigenvector 1:
	LIA 0 -1, Lia 0 -1, LIJAB 0 -1, Lijab 0 -1, LIjAb 0 -1, 2LIjAb - LIjbA 0 -1
	Symmetry of left-hand state: Ag
	Symmetry of left-hand eigenvector: Ag

	          Solving Lambda Equations
	          ------------------------
	Iter     PseudoEnergy or Norm         RMS  
	----     ---------------------     --------
	   0        -0.289391616021201    5.533e-08
	   1        -0.280458670254687    1.971e-02
	   2        -0.278876464025939    4.144e-03
	   3        -0.278671386926671    1.192e-03
	   4        -0.278639774830688    3.418e-04
	   5        -0.278640321611936    1.044e-04
	   6        -0.278636953011144    2.566e-05
	   7        -0.278636593567992    1.002e-05
	   8        -0.278636378459021    3.384e-06
	   9        -0.278636292339379    8.054e-07
	  10        -0.278636304443218    1.997e-07
	  11        -0.278636302973142    5.533e-08

	Largest LIA Amplitudes:
	          3  24         0.0158851198
	          4  28         0.0158851198
	          3  23         0.0104335301
	          4  27         0.0104335301
	          3  25         0.0092266361
	          4  29         0.0092266361
	          2   3        -0.0077538469
	          2   2        -0.0054447533
	          6  35         0.0047038671
	          2   0        -0.0042480605

	Largest LIjAb Amplitudes:
	  3   3  17  17        -0.0762847379
	  4   4  12  12        -0.0762847379
	  3   3  16  17        -0.0492740297
	  3   3  17  16        -0.0492740297
	  4   4  11  12        -0.0492740297
	  4   4  12  11        -0.0492740297
	  3   4  17  12        -0.0452254332
	  4   3  12  17        -0.0452254332
	  3   3  16  16        -0.0330707722
	  4   4  11  11        -0.0330707722

	Iterations converged.

	Overlap <L|e^T> =        0.87384375939

			**************************
			*                        *
			*        CCDENSITY       *
			*                        *
			**************************


	Input parameters:
	-----------------
	Wave function    =   CCSD
	Reference wfn    =   RHF
	Dertype          = 1
	Tolerance        = 1.0e-14
	Cache Level      = 2
	AO Basis         = No
	OPDM Only        = No
	Relax OPDM       = Yes
	Compute Xi       = No
	Use Zeta         = No
	Xi connected     = Yes
	Compute NO       = No

	Nuclear Rep. energy (wfn)     =   24.323218171379235
	SCF energy          (wfn)     =  -76.823395013041008
	Reference energy    (file100) =  -76.823395013040994
	CCSD energy         (CC_INFO) =   -0.289148796956977
	Total CCSD energy   (CC_INFO) =  -77.112543809997973
	Number of States = 1

	Ground?  State     EOM Energy       R0
	  Yes     0 Ag    0.0000000000   1.00000000

	Virial Theorem Data:
	--------------------
	Kinetic energy (ref)   =   76.454990618744120
	Kinetic energy (corr)  =    0.425807508845216
	Kinetic energy (total) =   76.880798127589330
	-V/T (ref)             =    2.004818578765303
	-V/T (corr)            =    1.679059882577328
	-V/T (total)           =    2.003014350631792
  Cartesian Displacement SALCs
  By SALC:
  Number of SALCs: 2, nirreps: Ag
  Project out translations: False
  Project out rotations: False
	irrep = 0, ncomponent = 2
		0: atom 0, direction x, coef 0.707107
		1: atom 1, direction x, coef -0.707107
	irrep = 0, ncomponent = 2
		0: atom 2, direction x, coef 0.707107
		1: atom 3, direction x, coef -0.707107

  By Atomic Center:
  Number of atomic centers: 4
   Atomic Center 0:
	x component, size = 1
		0: salc 0, irrep 0, coef 0.707107
	y component, size = 0
	z component, size = 0
   Atomic Center 1:
	x component, size = 1
		0: salc 0, irrep 0, coef -0.707107
	y component, size = 0
	z component, size = 0
   Atomic Center 2:
	x component, size = 1
		0: salc 1, irrep 0, coef 0.707107
	y component, size = 0
	z component, size = 0
   Atomic Center 3:
	x component, size = 1
		0: salc 1, irrep 0, coef -0.707107
	y component, size = 0
	z component, size = 0

    Molecular point group: d2h
    Full point group: D_inf_h

    Geometry (in Bohr), charge = 0, multiplicity = 1:

       Center              X                  Y                   Z       
    ------------   -----------------  -----------------  -----------------
         C           -1.161161115049    -0.000000000000     0.000000000000
         C            1.161161115049     0.000000000000     0.000000000000
         H           -3.192182062907    -0.000000000000     0.000000000000
         H            3.192182062907     0.000000000000     0.000000000000

	Presorting MO-basis TPDM.
	Sorting File: MO TPDM (AA|AA) nbuckets = 1
	Starting first half-transformation.
	Sorting half-transformed TPDM.
	First half integral transformation complete.


  -Nuclear Repulsion Energy 1st Derivatives:
     Atom            X                  Y                   Z
    ------   -----------------  -----------------  -----------------
       1        5.537163209075     0.000000000000     0.000000000000
       2       -5.537163209075    -0.000000000000     0.000000000000
       3        1.795659009002     0.000000000000     0.000000000000
       4       -1.795659009002    -0.000000000000     0.000000000000


  -Core Hamiltonian Gradient:
     Atom            X                  Y                   Z
    ------   -----------------  -----------------  -----------------
       1      -15.904193587396    -0.000000000000     0.000000000000
       2       15.904193587396     0.000000000000     0.000000000000
       3       -4.600916793460    -0.000000000000     0.000000000000
       4        4.600916793460     0.000000000000     0.000000000000


  -Lagrangian contribution to gradient:
     Atom            X                  Y                   Z
    ------   -----------------  -----------------  -----------------
       1        0.466349493100     0.000000000000     0.000000000000
       2       -0.466349493100    -0.000000000000     0.000000000000
       3        0.238071333799     0.000000000000     0.000000000000
       4       -0.238071333799    -0.000000000000     0.000000000000


  -Two-electron contribution to gradient:
     Atom            X                  Y                   Z
    ------   -----------------  -----------------  -----------------
       1        9.878089344234     0.000000000000     0.000000000000
       2       -9.878089344234    -0.000000000000     0.000000000000
       3        2.558667484307     0.000000000000     0.000000000000
       4       -2.558667484307    -0.000000000000     0.000000000000


  -Total gradient:
     Atom            X                  Y                   Z
    ------   -----------------  -----------------  -----------------
       1       -0.022591540988    -0.000000000000     0.000000000000
       2        0.022591540988     0.000000000000     0.000000000000
       3       -0.008518966353    -0.000000000000     0.000000000000
       4        0.008518966353     0.000000000000     0.000000000000


  //>>>>>>>>>>>>>>>>>>>>>>>>>>>>>>>>>>>//
  //    Loading displacement 2 of 10   //
  //<<<<<<<<<<<<<<<<<<<<<<<<<<<<<<<<<<<//
gradient() will perform analytic gradient computation.

*** tstart() called on atlantis
*** at Tue Apr 19 01:47:00 2022

   => Loading Basis Set <=

    Name: 6-31++G**
    Role: ORBITAL
    Keyword: BASIS
    atoms 1-2 entry C          line   115 file /home/akrom/software/anaconda3/envs/ffpenv/share/psi4/basis/6-31ppgss.gbs 
    atoms 3-4 entry H          line    46 file /home/akrom/software/anaconda3/envs/ffpenv/share/psi4/basis/6-31ppgss.gbs 


         ---------------------------------------------------------
                                   SCF
               by Justin Turney, Rob Parrish, Andy Simmonett
                          and Daniel G. A. Smith
                              RHF Reference
                        1 Threads,    500 MiB Core
         ---------------------------------------------------------

  ==> Geometry <==

    Molecular point group: d2h
    Full point group: D_inf_h

    Geometry (in Angstrom), charge = 0, multiplicity = 1:

       Center              X                  Y                   Z               Mass       
    ------------   -----------------  -----------------  -----------------  -----------------
         C           -0.615000089229    -0.000000000000     0.000000000000    12.000000000000
         C            0.615000089229     0.000000000000     0.000000000000    12.000000000000
         H           -1.689230000000    -0.000000000000     0.000000000000     1.007825032230
         H            1.689230000000     0.000000000000     0.000000000000     1.007825032230

  Running in d2h symmetry.

  Rotational constants: A = ************  B =      1.13680  C =      1.13680 [cm^-1]
  Rotational constants: A = ************  B =  34080.32226  C =  34080.32226 [MHz]
  Nuclear repulsion =   24.311929094340595

  Charge       = 0
  Multiplicity = 1
  Electrons    = 14
  Nalpha       = 7
  Nbeta        = 7

  ==> Algorithm <==

  SCF Algorithm Type is PK.
  DIIS enabled.
  MOM disabled.
  Fractional occupation disabled.
  Guess Type is SAD.
  Energy threshold   = 1.00e-10
  Density threshold  = 1.00e-10
  Integral threshold = 0.00e+00

  ==> Primary Basis <==

  Basis Set: 6-31++G**
    Blend: 6-31++G**
    Number of shells: 24
    Number of basis function: 50
    Number of Cartesian functions: 50
    Spherical Harmonics?: false
    Max angular momentum: 2

  ==> Pre-Iterations <==

   -------------------------------------------------------
    Irrep   Nso     Nmo     Nalpha   Nbeta   Ndocc  Nsocc
   -------------------------------------------------------
     Ag        14      14       0       0       0       0
     B1g        5       5       0       0       0       0
     B2g        5       5       0       0       0       0
     B3g        1       1       0       0       0       0
     Au         1       1       0       0       0       0
     B1u        5       5       0       0       0       0
     B2u        5       5       0       0       0       0
     B3u       14      14       0       0       0       0
   -------------------------------------------------------
    Total      50      50       7       7       7       0
   -------------------------------------------------------

  ==> Integral Setup <==

  Using in-core PK algorithm.
   Calculation information:
      Number of atoms:                   4
      Number of AO shells:              24
      Number of primitives:             46
      Number of atomic orbitals:        50
      Number of basis functions:        50

      Integral cutoff                 1.00e-12
      Number of threads:                 1

  Performing in-core PK
  Using 1626900 doubles for integral storage.
  We computed 45127 shell quartets total.
  Whereas there are 45150 unique shell quartets.

  ==> DiskJK: Disk-Based J/K Matrices <==

    J tasked:                  Yes
    K tasked:                  Yes
    wK tasked:                  No
    Memory [MiB]:              375
    Schwarz Cutoff:          1E-12

    OpenMP threads:              1

  Minimum eigenvalue in the overlap matrix is 3.3149809210E-05.
  Using Symmetric Orthogonalization.

  SCF Guess: Superposition of Atomic Densities via on-the-fly atomic UHF.

  ==> Iterations <==

                        Total Energy        Delta E     RMS |[F,P]|

   @RHF iter SAD:   -75.83575375323089   -7.58358e+01   0.00000e+00 
   @RHF iter   1:   -76.77982133311349   -9.44068e-01   1.21249e-02 DIIS
   @RHF iter   2:   -76.81873153074368   -3.89102e-02   4.12794e-03 DIIS
   @RHF iter   3:   -76.82312284750151   -4.39132e-03   4.77592e-04 DIIS
   @RHF iter   4:   -76.82324098603917   -1.18139e-04   5.15681e-05 DIIS
   @RHF iter   5:   -76.82324255385694   -1.56782e-06   1.06690e-05 DIIS
   @RHF iter   6:   -76.82324263514401   -8.12871e-08   1.62460e-06 DIIS
   @RHF iter   7:   -76.82324263692185   -1.77783e-09   2.45690e-07 DIIS
   @RHF iter   8:   -76.82324263695952   -3.76730e-11   1.51708e-08 DIIS
   @RHF iter   9:   -76.82324263695965   -1.27898e-13   1.43279e-09 DIIS
   @RHF iter  10:   -76.82324263695972   -7.10543e-14   2.32326e-10 DIIS
   @RHF iter  11:   -76.82324263695951    2.13163e-13   9.12184e-12 DIIS
  Energy and wave function converged.


  ==> Post-Iterations <==

    Orbital Energies [Eh]
    ---------------------

    Doubly Occupied:                                                      

       1Ag   -11.261443     1B3u  -11.258315     2Ag    -1.024032  
       2B3u   -0.768016     3Ag    -0.676226     1B1u   -0.403965  
       1B2u   -0.403965  

    Virtual:                                                              

       4Ag     0.044241     3B3u    0.050638     1B2g    0.111578  
       1B1g    0.111578     2B2u    0.134538     2B1u    0.134538  
       5Ag     0.155396     4B3u    0.177575     6Ag     0.210183  
       5B3u    0.235053     2B2g    0.257650     2B1g    0.257650  
       6B3u    0.372675     7Ag     0.433165     7B3u    0.777826  
       3B1u    0.878919     3B2u    0.878919     8Ag     0.914628  
       3B1g    0.975335     3B2g    0.975335     8B3u    1.084343  
       9Ag     1.129506    10Ag     1.365713     9B3u    1.576282  
       4B2u    1.628668     4B1u    1.628668    10B3u    1.690265  
      11Ag     1.812033     1B3g    1.812033     4B2g    2.216467  
       4B1g    2.216467    11B3u    2.222761     1Au     2.222761  
      12Ag     2.657583     5B2u    2.671040     5B1u    2.671040  
      12B3u    3.124554     5B1g    3.325354     5B2g    3.325354  
      13Ag     3.779300    13B3u    4.205738    14Ag     4.979813  
      14B3u    5.748208  

    Final Occupation by Irrep:
             Ag   B1g   B2g   B3g    Au   B1u   B2u   B3u 
    DOCC [     3,    0,    0,    0,    0,    1,    1,    2 ]

  @RHF Final Energy:   -76.82324263695951

   => Energetics <=

    Nuclear Repulsion Energy =             24.3119290943405950
    One-Electron Energy =                -150.6784201559674159
    Two-Electron Energy =                  49.5432484246673042
    Total Energy =                        -76.8232426369595203

Computation Completed


Properties will be evaluated at   0.000000,   0.000000,   0.000000 [a0]

Properties computed using the SCF density matrix

  Nuclear Dipole Moment: [e a0]
     X:     0.0000      Y:     0.0000      Z:     0.0000

  Electronic Dipole Moment: [e a0]
     X:     0.0000      Y:     0.0000      Z:     0.0000

  Dipole Moment: [e a0]
     X:     0.0000      Y:     0.0000      Z:     0.0000     Total:     0.0000

  Dipole Moment: [D]
     X:     0.0000      Y:     0.0000      Z:     0.0000     Total:     0.0000


*** tstop() called on atlantis at Tue Apr 19 01:47:01 2022
Module time:
	user time   =       0.32 seconds =       0.01 minutes
	system time =       0.01 seconds =       0.00 minutes
	total time  =          1 seconds =       0.02 minutes
Total time:
	user time   =       2.71 seconds =       0.05 minutes
	system time =       0.41 seconds =       0.01 minutes
	total time  =          4 seconds =       0.07 minutes
 MINTS: Wrapper to libmints.
   by Justin Turney

   Calculation information:
      Number of threads:                 1
      Number of atoms:                   4
      Number of AO shells:              24
      Number of SO shells:              12
      Number of primitives:             46
      Number of atomic orbitals:        50
      Number of basis functions:        50

[...]
     6        -0.289145123805924    2.034e-04    0.012314    0.030953    0.030953    0.183472
     7        -0.289148602885959    4.319e-05    0.012310    0.030944    0.030944    0.183487
     8        -0.289149048277231    1.134e-05    0.012309    0.030941    0.030941    0.183490
     9        -0.289148894325515    2.780e-06    0.012309    0.030940    0.030940    0.183490
    10        -0.289148965949879    7.399e-07    0.012309    0.030940    0.030940    0.183491
    11        -0.289148965574504    1.972e-07    0.012309    0.030940    0.030940    0.183491
    12        -0.289148968818484    6.132e-08    0.012309    0.030940    0.030940    0.183491

    Iterations converged.


    Largest TIA Amplitudes:
              5  28         0.0231180465
              6  37         0.0231180465
              5  26         0.0155411909
              6  35         0.0155411909
              5  30         0.0128052084
              6  39         0.0128052084
              4   7        -0.0054901735
              5  32         0.0041659191
              6  41         0.0041659191
              3   8         0.0041612498

    Largest TIjAb Amplitudes:
      5   5  27  27        -0.0792921016
      6   6  36  36        -0.0792921016
      5   5  25  27        -0.0510960459
      5   5  27  25        -0.0510960459
      6   6  34  36        -0.0510960459
      6   6  36  34        -0.0510960459
      5   6  27  36        -0.0482205380
      6   5  36  27        -0.0482205380
      5   5  25  25        -0.0342196291
      6   6  34  34        -0.0342196291

    SCF energy       (wfn)                    =  -76.823389495911798
    Reference energy (file100)                =  -76.823389495911698

    Opposite-spin MP2 correlation energy      =   -0.209469981285534
    Same-spin MP2 correlation energy          =   -0.064989808979868
    MP2 correlation energy                    =   -0.274459790265402
      * MP2 total energy                      =  -77.097849286177095

    Opposite-spin CCSD correlation energy     =   -0.234425850329521
    Same-spin CCSD correlation energy         =   -0.054723118488963
    CCSD correlation energy                   =   -0.289148968818484
      * CCSD total energy                     =  -77.112538464730179


			**************************
			*                        *
			*         CCHBAR         *
			*                        *
			**************************


			**************************
			*        CCLAMBDA        *
			**************************


	Nuclear Rep. energy (wfn)     =   24.323239383855910
	Reference           (wfn)     =                    0
	SCF energy          (wfn)     =  -76.823389495911798
	Reference energy    (CC_INFO) =  -76.823389495911698
	CCSD energy         (CC_INFO) =   -0.289148968818484
	Total CCSD energy   (CC_INFO) =  -77.112538464730179

	Input parameters:
	-----------------
	Maxiter           =     50
	Convergence       = 1.0e-07
	Restart           =     No
	Cache Level       =     2
	Model III         =     No
	DIIS              =     Yes
	AO Basis          =     No
	ABCD              =     NEW
	Local CC          =     No
	Parameters for left-handed eigenvectors:
	    Irr   Root  Ground-State?    EOM energy        R0
	  1   0     0        Yes       0.0000000000   1.0000000000
	Labels for eigenvector 1:
	LIA 0 -1, Lia 0 -1, LIJAB 0 -1, Lijab 0 -1, LIjAb 0 -1, 2LIjAb - LIjbA 0 -1
	Symmetry of left-hand state: A1
	Symmetry of left-hand eigenvector: A1

	          Solving Lambda Equations
	          ------------------------
	Iter     PseudoEnergy or Norm         RMS  
	----     ---------------------     --------
	   0        -0.289391788195082    5.533e-08
	   1        -0.280458819023388    1.971e-02
	   2        -0.278876611025055    4.144e-03
	   3        -0.278671532543316    1.192e-03
	   4        -0.278639919843566    3.418e-04
	   5        -0.278640466439229    1.044e-04
	   6        -0.278637098011783    2.566e-05
	   7        -0.278636738327680    1.002e-05
	   8        -0.278636523325439    3.385e-06
	   9        -0.278636437166795    8.055e-07
	  10        -0.278636449273152    1.997e-07
	  11        -0.278636447803310    5.533e-08

	Largest LIA Amplitudes:
	          5  28         0.0158851247
	          6  37         0.0158851247
	          5  26         0.0104335399
	          6  35         0.0104335399
	          5  30         0.0092266304
	          6  39         0.0092266304
	          4   7        -0.0077529173
	          4   4        -0.0054443992
	          3   8         0.0047037021
	          4   0        -0.0042480292

	Largest LIjAb Amplitudes:
	  5   5  27  27        -0.0762847927
	  6   6  36  36        -0.0762847927
	  5   5  25  27        -0.0492740280
	  5   5  27  25        -0.0492740280
	  6   6  34  36        -0.0492740280
	  6   6  36  34        -0.0492740280
	  5   6  27  36        -0.0452254613
	  6   5  36  27        -0.0452254613
	  5   5  25  25        -0.0330707526
	  6   6  34  34        -0.0330707526

	Iterations converged.

	Overlap <L|e^T> =        0.87384349512

			**************************
			*                        *
			*        CCDENSITY       *
			*                        *
			**************************


	Input parameters:
	-----------------
	Wave function    =   CCSD
	Reference wfn    =   RHF
	Dertype          = 1
	Tolerance        = 1.0e-14
	Cache Level      = 2
	AO Basis         = No
	OPDM Only        = No
	Relax OPDM       = Yes
	Compute Xi       = No
	Use Zeta         = No
	Xi connected     = Yes
	Compute NO       = No

	Nuclear Rep. energy (wfn)     =   24.323239383855910
	SCF energy          (wfn)     =  -76.823389495911798
	Reference energy    (file100) =  -76.823389495911698
	CCSD energy         (CC_INFO) =   -0.289148968818484
	Total CCSD energy   (CC_INFO) =  -77.112538464730179
	Number of States = 1

	Ground?  State     EOM Energy       R0
	  Yes     0 A1    0.0000000000   1.00000000

	Virial Theorem Data:
	--------------------
	Kinetic energy (ref)   =   76.455005529451398
	Kinetic energy (corr)  =    0.425807729395538
	Kinetic energy (total) =   76.880813258846942
	-V/T (ref)             =    2.004818310637861
	-V/T (corr)            =    1.679059934466080
	-V/T (total)           =    2.003014083697360
  Cartesian Displacement SALCs
  By SALC:
  Number of SALCs: 4, nirreps: A1
  Project out translations: False
  Project out rotations: False
	irrep = 0, ncomponent = 1
		0: atom 0, direction x, coef 1.000000
	irrep = 0, ncomponent = 1
		0: atom 1, direction x, coef 1.000000
	irrep = 0, ncomponent = 1
		0: atom 2, direction x, coef 1.000000
	irrep = 0, ncomponent = 1
		0: atom 3, direction x, coef 1.000000

  By Atomic Center:
  Number of atomic centers: 4
   Atomic Center 0:
	x component, size = 1
		0: salc 0, irrep 0, coef 1.000000
	y component, size = 0
	z component, size = 0
   Atomic Center 1:
	x component, size = 1
		0: salc 1, irrep 0, coef 1.000000
	y component, size = 0
	z component, size = 0
   Atomic Center 2:
	x component, size = 1
		0: salc 2, irrep 0, coef 1.000000
	y component, size = 0
	z component, size = 0
   Atomic Center 3:
	x component, size = 1
		0: salc 3, irrep 0, coef 1.000000
	y component, size = 0
	z component, size = 0

    Molecular point group: c2v
    Full point group: C_inf_v

    Geometry (in Bohr), charge = 0, multiplicity = 1:

       Center              X                  Y                   Z       
    ------------   -----------------  -----------------  -----------------
         C           -1.161445204175     0.000000000000     0.000000000000
         C            1.160877025923     0.000000000000     0.000000000000
         H           -3.188799462353     0.000000000000     0.000000000000
         H            3.195564663461     0.000000000000     0.000000000000

	Presorting MO-basis TPDM.
	Sorting File: MO TPDM (AA|AA) nbuckets = 1
	Starting first half-transformation.
	Sorting half-transformed TPDM.
	First half integral transformation complete.


  -Nuclear Repulsion Energy 1st Derivatives:
     Atom            X                  Y                   Z
    ------   -----------------  -----------------  -----------------
       1        5.531364458616     0.000000000000     0.000000000000
       2       -5.542934862809     0.000000000000     0.000000000000
       3        1.801459107056     0.000000000000     0.000000000000
       4       -1.789888702864     0.000000000000     0.000000000000


  -Core Hamiltonian Gradient:
     Atom            X                  Y                   Z
    ------   -----------------  -----------------  -----------------
       1      -15.897796948682     0.000000000000     0.000000000000
       2       15.910455815134     0.000000000000     0.000000000000
       3       -4.607241852446     0.000000000000     0.000000000000
       4        4.594582985994     0.000000000000     0.000000000000


  -Lagrangian contribution to gradient:
     Atom            X                  Y                   Z
    ------   -----------------  -----------------  -----------------
       1        0.466304656473     0.000000000000     0.000000000000
       2       -0.466372344914     0.000000000000     0.000000000000
       3        0.238103425518     0.000000000000     0.000000000000
       4       -0.238035737078     0.000000000000     0.000000000000


  -Two-electron contribution to gradient:
     Atom            X                  Y                   Z
    ------   -----------------  -----------------  -----------------
       1        9.876070204685     0.000000000000     0.000000000000
       2       -9.880006586614     0.000000000000     0.000000000000
       3        2.560626344545     0.000000000000     0.000000000000
       4       -2.556689962616     0.000000000000     0.000000000000


  -Total gradient:
     Atom            X                  Y                   Z
    ------   -----------------  -----------------  -----------------
       1       -0.024057628908     0.000000000000     0.000000000000
       2        0.021142020797     0.000000000000     0.000000000000
       3       -0.007052975326     0.000000000000     0.000000000000
       4        0.009968583436     0.000000000000     0.000000000000


         ----------------------------------------------------------
                                   FINDIF
                     R. A. King and Jonathon Misiewicz
         ---------------------------------------------------------

  Computing second-derivative from gradients using projected, 
  symmetry-adapted, cartesian coordinates.

  10 gradients passed in, including the reference geometry.
  Generating complete list of displacements from unique ones.

    Operation 3 takes plus displacements of irrep B1g to minus ones.
    Operation 2 takes plus displacements of irrep B2g to minus ones.
    Operation 3 takes plus displacements of irrep B1u to minus ones.
    Operation 2 takes plus displacements of irrep B2u to minus ones.
    Operation 2 takes plus displacements of irrep B3u to minus ones.

-------------------------------------------------------------


  ==> Harmonic Vibrational Analysis <==

  non-mass-weighted Hessian:       Symmetric? True   Hermitian? True   Lin Dep Dim?  5 (0)
  projection of translations (True) and rotations (True) removed 5 degrees of freedom (5)
  total projector:                 Symmetric? True   Hermitian? True   Lin Dep Dim?  5 (5)
  mass-weighted Hessian:           Symmetric? True   Hermitian? True   Lin Dep Dim?  5 (0)
  pre-proj  low-frequency mode:    0.0000i [cm^-1]
  pre-proj  low-frequency mode:    0.0000i [cm^-1]
  pre-proj  low-frequency mode:    0.0000  [cm^-1]
  pre-proj  low-frequency mode:    0.0000  [cm^-1]
  pre-proj  low-frequency mode:    0.0000  [cm^-1]
  pre-proj  all modes:['0.0000i' '0.0000i' '0.0000' '0.0000' '0.0000' '517.4199' '517.4199'
 '805.6542' '805.6542' '1959.0400' '3361.5218' '3454.3711']
  projected mass-weighted Hessian: Symmetric? True   Hermitian? True   Lin Dep Dim?  5 (5)
  post-proj low-frequency mode:    0.0000i [cm^-1] (TR)
  post-proj low-frequency mode:    0.0000  [cm^-1] (TR)
  post-proj low-frequency mode:    0.0000  [cm^-1] (TR)
  post-proj low-frequency mode:    0.0000  [cm^-1] (TR)
  post-proj low-frequency mode:    0.0000  [cm^-1] (TR)
  post-proj  all modes:['0.0000i' '0.0000' '0.0000' '0.0000' '0.0000' '517.4199' '517.4199'
 '805.6542' '805.6542' '1959.0400' '3361.5218' '3454.3711']

  Vibration                       6                   7                   8           
  Freq [cm^-1]                 517.4199            517.4199            805.6542       
  Irrep                          B2g                 B1g                 B1u          
  Reduced mass [u]              1.5641              1.5641              1.0848        
  Force const [mDyne/A]         0.2467              0.2467              0.4149        
  Turning point v=0 [a0]        0.3857              0.3857              0.3712        
  RMS dev v=0 [a0 u^1/2]        0.3411              0.3411              0.2734        
  Char temp [K]                744.4520            744.4520           1159.1570       
  ----------------------------------------------------------------------------------
      1   C               -0.00 -0.00 -0.16   -0.00 -0.16  0.00   -0.00  0.00 -0.06   
      2   C               -0.00  0.00  0.16   -0.00  0.16 -0.00   -0.00  0.00 -0.06   
      3   H               -0.00  0.00  0.69    0.00  0.69 -0.00    0.00 -0.00  0.70   
      4   H               -0.00 -0.00 -0.69    0.00 -0.69  0.00   -0.00 -0.00  0.70   

  Vibration                       9                   10                  11          
  Freq [cm^-1]                 805.6542           1959.0400           3361.5218       
  Irrep                          B2u                  Ag                 B3u          
  Reduced mass [u]              1.0848              4.0429              1.0848        
  Force const [mDyne/A]         0.4149              9.1417              7.2223        
  Turning point v=0 [a0]        0.3712              0.1233              0.1817        
  RMS dev v=0 [a0 u^1/2]        0.2734              0.1753              0.1338        
  Char temp [K]               1159.1570           2818.6224           4836.4814       
  ----------------------------------------------------------------------------------
      1   C                0.00 -0.06 -0.00    0.37  0.00  0.00   -0.06  0.00 -0.00   
      2   C               -0.00 -0.06 -0.00   -0.37  0.00 -0.00   -0.06  0.00 -0.00   
      3   H                0.00  0.70  0.00    0.60 -0.00  0.00    0.70 -0.00  0.00   
      4   H               -0.00  0.70  0.00   -0.60  0.00 -0.00    0.70  0.00 -0.00   

  Vibration                       12          
  Freq [cm^-1]                3454.3711       
  Irrep                           Ag          
  Reduced mass [u]              1.2074        
  Force const [mDyne/A]         8.4887        
  Turning point v=0 [a0]        0.1699        
  RMS dev v=0 [a0 u^1/2]        0.1320        
  Char temp [K]               4970.0709       
  ----------------------------------------------------------------------------------
      1   C               -0.10  0.00 -0.00   
      2   C                0.10 -0.00  0.00   
      3   H                0.70  0.00 -0.00   
      4   H               -0.70 -0.00  0.00   

  ==> Thermochemistry Components <==

  Entropy, S
    Electronic S            0.000 [cal/(mol K)]        0.000 [J/(mol K)]       0.00000000 [mEh/K] (multiplicity = 1)
    Translational S        35.704 [cal/(mol K)]      149.387 [J/(mol K)]       0.05689862 [mEh/K] (mol. weight = 26.0157 [u], P = 101325.00 [Pa])
    Rotational S           10.952 [cal/(mol K)]       45.824 [J/(mol K)]       0.01745345 [mEh/K] (symmetry no. = 2)
    Vibrational S           1.639 [cal/(mol K)]        6.858 [J/(mol K)]       0.00261205 [mEh/K]
  Total S                  48.296 [cal/(mol K)]      202.069 [J/(mol K)]       0.07696411 [mEh/K]
  Correction S              0.000 [cal/(mol K)]        0.000 [J/(mol K)]       0.00000000 [mEh/K]

  Constant volume heat capacity, Cv
    Electronic Cv           0.000 [cal/(mol K)]        0.000 [J/(mol K)]       0.00000000 [mEh/K]
    Translational Cv        2.981 [cal/(mol K)]       12.472 [J/(mol K)]       0.00475022 [mEh/K]
    Rotational Cv           1.987 [cal/(mol K)]        8.314 [J/(mol K)]       0.00316681 [mEh/K]
    Vibrational Cv          3.720 [cal/(mol K)]       15.563 [J/(mol K)]       0.00592781 [mEh/K]
  Total Cv                  8.688 [cal/(mol K)]       36.350 [J/(mol K)]       0.01384484 [mEh/K]
  Correction Cv             0.000 [cal/(mol K)]        0.000 [J/(mol K)]       0.00000000 [mEh/K]

  Constant pressure heat capacity, Cp
    Electronic Cp           0.000 [cal/(mol K)]        0.000 [J/(mol K)]       0.00000000 [mEh/K]
    Translational Cp        4.968 [cal/(mol K)]       20.786 [J/(mol K)]       0.00791703 [mEh/K]
    Rotational Cp           1.987 [cal/(mol K)]        8.314 [J/(mol K)]       0.00316681 [mEh/K]
    Vibrational Cp          3.720 [cal/(mol K)]       15.563 [J/(mol K)]       0.00592781 [mEh/K]
  Total Cp                 10.675 [cal/(mol K)]       44.664 [J/(mol K)]       0.01701165 [mEh/K]
  Correction Cp             0.000 [cal/(mol K)]        0.000 [J/(mol K)]       0.00000000 [mEh/K]

  ==> Thermochemistry Energy Analysis <==

  Raw electronic energy, E0
  Total E0, Electronic energy at well bottom at 0 [K]                  -77.11254381 [Eh]

  Zero-point energy, ZPE_vib = Sum_i nu_i / 2
    Electronic ZPE          0.000 [kcal/mol]        0.000 [kJ/mol]       0.00000000 [Eh]
    Translational ZPE       0.000 [kcal/mol]        0.000 [kJ/mol]       0.00000000 [Eh]
    Rotational ZPE          0.000 [kcal/mol]        0.000 [kJ/mol]       0.00000000 [Eh]
    Vibrational ZPE        16.327 [kcal/mol]       68.313 [kJ/mol]       0.02601914 [Eh]        5710.540 [cm^-1]
  Correction ZPE           16.327 [kcal/mol]       68.313 [kJ/mol]       0.02601914 [Eh]        5710.540 [cm^-1]
  Total ZPE, Electronic energy at 0 [K]                                -77.08652467 [Eh]

  Thermal Energy, E (includes ZPE)
    Electronic E            0.000 [kcal/mol]        0.000 [kJ/mol]       0.00000000 [Eh]
    Translational E         0.889 [kcal/mol]        3.718 [kJ/mol]       0.00141628 [Eh]
    Rotational E            0.592 [kcal/mol]        2.479 [kJ/mol]       0.00094418 [Eh]
    Vibrational E          16.690 [kcal/mol]       69.829 [kJ/mol]       0.02659649 [Eh]
  Correction E             18.171 [kcal/mol]       76.026 [kJ/mol]       0.02895695 [Eh]
  Total E, Electronic energy at  298.15 [K]                            -77.08358686 [Eh]

  Enthalpy, H_trans = E_trans + k_B * T
    Electronic H            0.000 [kcal/mol]        0.000 [kJ/mol]       0.00000000 [Eh]
    Translational H         1.481 [kcal/mol]        6.197 [kJ/mol]       0.00236046 [Eh]
    Rotational H            0.592 [kcal/mol]        2.479 [kJ/mol]       0.00094418 [Eh]
    Vibrational H          16.690 [kcal/mol]       69.829 [kJ/mol]       0.02659649 [Eh]
  Correction H             18.763 [kcal/mol]       78.505 [kJ/mol]       0.02990113 [Eh]
  Total H, Enthalpy at  298.15 [K]                                     -77.08264268 [Eh]

  Gibbs free energy, G = H - T * S
    Electronic G            0.000 [kcal/mol]        0.000 [kJ/mol]       0.00000000 [Eh]
    Translational G        -9.164 [kcal/mol]      -38.342 [kJ/mol]      -0.01460386 [Eh]
    Rotational G           -2.673 [kcal/mol]      -11.183 [kJ/mol]      -0.00425956 [Eh]
    Vibrational G          16.201 [kcal/mol]       67.784 [kJ/mol]       0.02581770 [Eh]
  Correction G              4.364 [kcal/mol]       18.258 [kJ/mol]       0.00695428 [Eh]
  Total G, Free enthalpy at  298.15 [K]                                -77.10558953 [Eh]

    Psi4 stopped on: Tuesday, 19 April 2022 01:47AM
    Psi4 wall time for execution: 0:00:14.39

*** Psi4 exiting successfully. Buy a developer a beer!
