
    -----------------------------------------------------------------------
          Psi4: An Open-Source Ab Initio Electronic Structure Package
                               Psi4 1.3.2 release

                         Git: Rev {HEAD} ecbda83 


    R. M. Parrish, L. A. Burns, D. G. A. Smith, A. C. Simmonett,
    A. E. DePrince III, E. G. Hohenstein, U. Bozkaya, A. Yu. Sokolov,
    R. Di Remigio, R. M. Richard, J. F. Gonthier, A. M. James,
    H. R. McAlexander, A. Kumar, M. Saitow, X. Wang, B. P. Pritchard,
    P. Verma, H. F. Schaefer III, K. Patkowski, R. A. King, E. F. Valeev,
    F. A. Evangelista, J. M. Turney, T. D. Crawford, and C. D. Sherrill,
    J. Chem. Theory Comput. 13(7) pp 3185--3197 (2017).
    (doi: 10.1021/acs.jctc.7b00174)


                         Additional Contributions by
    P. Kraus, H. Kruse, M. H. Lechner, M. C. Schieber, R. A. Shaw,
    A. Alenaizan, R. Galvelis, Z. L. Glick, S. Lehtola, and J. P. Misiewicz

    -----------------------------------------------------------------------


    Psi4 started on: Tuesday, 19 April 2022 01:47AM

    Process ID: 25834
    Host:       atlantis
    PSIDATADIR: /home/akrom/software/anaconda3/envs/ffpenv/share/psi4
    Memory:     500.0 MiB
    Threads:    1
    
  ==> Input File <==

--------------------------------------------------------------------------
set basis  aug-cc-pVDZ
molecule {
0 1
   C       -0.61446        0.00000        0.00000
   C        0.61446        0.00000        0.00000
   H       -1.68923        0.00000        0.00000
   H        1.68923        0.00000        0.00000
}
energy('CCSD')
frequencies('CCSD')
--------------------------------------------------------------------------

*** tstart() called on atlantis
*** at Tue Apr 19 01:47:33 2022

   => Loading Basis Set <=

    Name: AUG-CC-PVDZ
    Role: ORBITAL
    Keyword: BASIS
    atoms 1-2 entry C          line   178 file /home/akrom/software/anaconda3/envs/ffpenv/share/psi4/basis/aug-cc-pvdz.gbs 
    atoms 3-4 entry H          line    36 file /home/akrom/software/anaconda3/envs/ffpenv/share/psi4/basis/aug-cc-pvdz.gbs 


         ---------------------------------------------------------
                                   SCF
               by Justin Turney, Rob Parrish, Andy Simmonett
                          and Daniel G. A. Smith
                              RHF Reference
                        1 Threads,    500 MiB Core
         ---------------------------------------------------------

  ==> Geometry <==

    Molecular point group: d2h
    Full point group: D_inf_h

    Geometry (in Angstrom), charge = 0, multiplicity = 1:

       Center              X                  Y                   Z               Mass       
    ------------   -----------------  -----------------  -----------------  -----------------
         C           -0.614460000000    -0.000000000000     0.000000000000    12.000000000000
         C            0.614460000000     0.000000000000     0.000000000000    12.000000000000
         H           -1.689230000000    -0.000000000000     0.000000000000     1.007825032230
         H            1.689230000000     0.000000000000     0.000000000000     1.007825032230

  Running in d2h symmetry.

  Rotational constants: A = ************  B =      1.13802  C =      1.13802 [cm^-1]
  Rotational constants: A = ************  B =  34116.98697  C =  34116.98697 [MHz]
  Nuclear repulsion =   24.323218171379235

  Charge       = 0
  Multiplicity = 1
  Electrons    = 14
  Nalpha       = 7
  Nbeta        = 7

  ==> Algorithm <==

  SCF Algorithm Type is PK.
  DIIS enabled.
  MOM disabled.
  Fractional occupation disabled.
  Guess Type is SAD.
  Energy threshold   = 1.00e-08
  Density threshold  = 1.00e-08
  Integral threshold = 0.00e+00

  ==> Primary Basis <==

  Basis Set: AUG-CC-PVDZ
    Blend: AUG-CC-PVDZ
    Number of shells: 28
    Number of basis function: 64
    Number of Cartesian functions: 68
    Spherical Harmonics?: true
    Max angular momentum: 2

  ==> Pre-Iterations <==

   -------------------------------------------------------
    Irrep   Nso     Nmo     Nalpha   Nbeta   Ndocc  Nsocc
   -------------------------------------------------------
     Ag        16      16       0       0       0       0
     B1g        7       7       0       0       0       0
     B2g        7       7       0       0       0       0
     B3g        2       2       0       0       0       0
     Au         2       2       0       0       0       0
     B1u        7       7       0       0       0       0
     B2u        7       7       0       0       0       0
     B3u       16      16       0       0       0       0
   -------------------------------------------------------
    Total      64      64       7       7       7       0
   -------------------------------------------------------

  ==> Integral Setup <==

  Using in-core PK algorithm.
   Calculation information:
      Number of atoms:                   4
      Number of AO shells:              28
      Number of primitives:             64
      Number of atomic orbitals:        68
      Number of basis functions:        64

      Integral cutoff                 1.00e-12
      Number of threads:                 1

  Performing in-core PK
  Using 4328480 doubles for integral storage.
  We computed 82621 shell quartets total.
  Whereas there are 82621 unique shell quartets.

  ==> DiskJK: Disk-Based J/K Matrices <==

    J tasked:                  Yes
    K tasked:                  Yes
    wK tasked:                  No
    Memory [MiB]:              375
    Schwarz Cutoff:          1E-12

    OpenMP threads:              1

  Minimum eigenvalue in the overlap matrix is 3.8568108127E-05.
  Using Symmetric Orthogonalization.

  SCF Guess: Superposition of Atomic Densities via on-the-fly atomic UHF.

  ==> Iterations <==

                        Total Energy        Delta E     RMS |[F,P]|

   @RHF iter SAD:   -75.84294041656601   -7.58429e+01   0.00000e+00 
   @RHF iter   1:   -76.78340782834192   -9.40467e-01   9.66859e-03 DIIS
   @RHF iter   2:   -76.82115112565917   -3.77433e-02   3.22525e-03 DIIS
   @RHF iter   3:   -76.82548461157705   -4.33349e-03   4.23555e-04 DIIS
   @RHF iter   4:   -76.82562658939931   -1.41978e-04   4.30270e-05 DIIS
   @RHF iter   5:   -76.82562815748017   -1.56808e-06   6.67977e-06 DIIS
   @RHF iter   6:   -76.82562820019079   -4.27106e-08   1.18906e-06 DIIS
   @RHF iter   7:   -76.82562820162467   -1.43388e-09   2.23769e-07 DIIS
   @RHF iter   8:   -76.82562820168184   -5.71703e-11   1.83383e-08 DIIS
   @RHF iter   9:   -76.82562820168212   -2.84217e-13   1.69529e-09 DIIS
  Energy and wave function converged.


  ==> Post-Iterations <==

    Orbital Energies [Eh]
    ---------------------

    Doubly Occupied:                                                      

       1Ag   -11.262275     1B3u  -11.259102     2Ag    -1.025986  
       2B3u   -0.767636     3Ag    -0.676495     1B2u   -0.405321  
       1B1u   -0.405321  

    Virtual:                                                              

       4Ag     0.037387     3B3u    0.039622     1B2g    0.106234  
       1B1g    0.106234     2B2u    0.120934     2B1u    0.120934  
       5Ag     0.130617     4B3u    0.138262     6Ag     0.177547  
       2B2g    0.225633     2B1g    0.225633     5B3u    0.255088  
       6B3u    0.329728     7Ag     0.355448     3B2u    0.387964  
       3B1u    0.387964     1B3g    0.426958     8Ag     0.426958  
       3B1g    0.485632     3B2g    0.485632     9Ag     0.532999  
       7B3u    0.535501    10Ag     0.573660     8B3u    0.595042  
       1Au     0.595042     9B3u    0.667775     4B2u    0.773021  
       4B1u    0.773021    10B3u    0.833561     5B2u    0.846551  
       5B1u    0.846551     4B1g    0.855585     4B2g    0.855585  
      11Ag     0.989146     5B1g    1.182918     5B2g    1.182918  
      11B3u    1.225209    12Ag     1.387346     2B3g    1.563958  
      13Ag     1.563958    12B3u    1.628369     6B2u    1.642448  
       6B1u    1.642448    14Ag     1.680540     2Au     1.892212  
      13B3u    1.892212     6B1g    1.926205     6B2g    1.926205  
       7B2u    2.134805     7B1u    2.134805    14B3u    2.467600  
      15Ag     2.535211    15B3u    2.610629     7B1g    2.758496  
       7B2g    2.758496    16Ag     3.775207    16B3u    3.976175  

    Final Occupation by Irrep:
             Ag   B1g   B2g   B3g    Au   B1u   B2u   B3u 
    DOCC [     3,    0,    0,    0,    0,    1,    1,    2 ]

  @RHF Final Energy:   -76.82562820168212

   => Energetics <=

    Nuclear Repulsion Energy =             24.3232181713792350
    One-Electron Energy =                -150.6934214647595809
    Two-Electron Energy =                  49.5445750916982277
    Total Energy =                        -76.8256282016821217

Computation Completed


Properties will be evaluated at   0.000000,   0.000000,   0.000000 [a0]

Properties computed using the SCF density matrix

  Nuclear Dipole Moment: [e a0]
     X:     0.0000      Y:     0.0000      Z:     0.0000

  Electronic Dipole Moment: [e a0]
     X:     0.0000      Y:     0.0000      Z:     0.0000

  Dipole Moment: [e a0]
     X:     0.0000      Y:     0.0000      Z:     0.0000     Total:     0.0000

  Dipole Moment: [D]
     X:     0.0000      Y:     0.0000      Z:     0.0000     Total:     0.0000


*** tstop() called on atlantis at Tue Apr 19 01:47:34 2022
Module time:
	user time   =       0.54 seconds =       0.01 minutes
	system time =       0.01 seconds =       0.00 minutes
	total time  =          1 seconds =       0.02 minutes
Total time:
	user time   =       0.54 seconds =       0.01 minutes
	system time =       0.01 seconds =       0.00 minutes
	total time  =          1 seconds =       0.02 minutes
 MINTS: Wrapper to libmints.
   by Justin Turney

   Calculation information:
      Number of threads:                 1
      Number of atoms:                   4
      Number of AO shells:              28
      Number of SO shells:              14
      Number of primitives:             64
      Number of atomic orbitals:        68
      Number of basis functions:        64

      Number of irreps:                  8
      Integral cutoff                 0.00e+00
      Number of functions per irrep: [  16    7    7    2    2    7    7   16 ]

 OEINTS: Overlap, kinetic, potential, dipole, and quadrupole integrals
         stored in file 35.

      Computing two-electron integrals...done
      Computed 294424 non-zero two-electron integrals.
        Stored in file 33.


*** tstart() called on atlantis
*** at Tue Apr 19 01:47:34 2022


	Wfn Parameters:
	--------------------
	Wavefunction         = CCSD
	Number of irreps     = 8
	Number of MOs        = 64
	Number of active MOs = 64
	AO-Basis             = NONE
	Semicanonical        = false
	Reference            = RHF
	Print Level          = 1

	IRREP	# MOs	# FZDC	# DOCC	# SOCC	# VIRT	# FZVR
	-----	-----	------	------	------	------	------
	 Ag	   16	    0	    3	    0	    13	    0
	 B1g	   7	    0	    0	    0	    7	    0
	 B2g	   7	    0	    0	    0	    7	    0
	 B3g	   2	    0	    0	    0	    2	    0
	 Au	   2	    0	    0	    0	    2	    0
	 B1u	   7	    0	    1	    0	    6	    0
	 B2u	   7	    0	    1	    0	    6	    0
	 B3u	   16	    0	    2	    0	    14	    0
	Transforming integrals...
	IWL integrals will be deleted.
	(OO|OO)...
	Presorting SO-basis two-electron integrals.
	Sorting File: SO Ints (nn|nn) nbuckets = 1
	Transforming the one-electron integrals and constructing Fock matrices
	Starting first half-transformation.
	Sorting half-transformed integrals.
	First half integral transformation complete.
	Starting second half-transformation.
	Two-electron integral transformation complete.
	(OO|OV)...
	Starting second half-transformation.
	Two-electron integral transformation complete.
	(OO|VV)...
	Starting second half-transformation.
	Two-electron integral transformation complete.
	(OV|OO)...
	Starting first half-transformation.
	Sorting half-transformed integrals.
	First half integral transformation complete.
	Starting second half-transformation.
	Two-electron integral transformation complete.
	(OV|OV)...
	Starting second half-transformation.
	Two-electron integral transformation complete.
	(OV|VV)...
	Starting second half-transformation.
	Two-electron integral transformation complete.
	(VV|OO)...
	Starting first half-transformation.
	Sorting half-transformed integrals.
	First half integral transformation complete.
	Starting second half-transformation.
	Two-electron integral transformation complete.
	(VV|OV)...
	Starting second half-transformation.
	Two-electron integral transformation complete.
	(VV|VV)...
	Starting second half-transformation.
	Two-electron integral transformation complete.
	Frozen core energy     =      0.00000000000000

	Size of irrep 0 of <ab|cd> integrals:      0.295 (MW) /      2.359 (MB)
	Size of irrep 1 of <ab|cd> integrals:      0.162 (MW) /      1.293 (MB)
	Size of irrep 2 of <ab|cd> integrals:      0.162 (MW) /      1.293 (MB)
	Size of irrep 3 of <ab|cd> integrals:      0.077 (MW) /      0.618 (MB)
	Size of irrep 4 of <ab|cd> integrals:      0.076 (MW) /      0.609 (MB)
	Size of irrep 5 of <ab|cd> integrals:      0.163 (MW) /      1.306 (MB)
	Size of irrep 6 of <ab|cd> integrals:      0.163 (MW) /      1.306 (MB)
	Size of irrep 7 of <ab|cd> integrals:      0.292 (MW) /      2.333 (MB)
	Total:                                     1.390 (MW) /     11.116 (MB)

	Size of irrep 0 of <ia|bc> integrals:      0.043 (MW) /      0.343 (MB)
	Size of irrep 1 of <ia|bc> integrals:      0.020 (MW) /      0.158 (MB)
	Size of irrep 2 of <ia|bc> integrals:      0.020 (MW) /      0.158 (MB)
	Size of irrep 3 of <ia|bc> integrals:      0.006 (MW) /      0.049 (MB)
	Size of irrep 4 of <ia|bc> integrals:      0.007 (MW) /      0.053 (MB)
	Size of irrep 5 of <ia|bc> integrals:      0.019 (MW) /      0.152 (MB)
	Size of irrep 6 of <ia|bc> integrals:      0.019 (MW) /      0.152 (MB)
	Size of irrep 7 of <ia|bc> integrals:      0.044 (MW) /      0.354 (MB)
	Total:                                     0.177 (MW) /      1.418 (MB)

	Size of irrep 0 of tijab amplitudes:       0.008 (MW) /      0.065 (MB)
	Size of irrep 1 of tijab amplitudes:       0.002 (MW) /      0.013 (MB)
	Size of irrep 2 of tijab amplitudes:       0.002 (MW) /      0.013 (MB)
	Size of irrep 3 of tijab amplitudes:       0.001 (MW) /      0.004 (MB)
	Size of irrep 4 of tijab amplitudes:       0.000 (MW) /      0.000 (MB)
	Size of irrep 5 of tijab amplitudes:       0.002 (MW) /      0.019 (MB)
	Size of irrep 6 of tijab amplitudes:       0.002 (MW) /      0.019 (MB)
	Size of irrep 7 of tijab amplitudes:       0.006 (MW) /      0.052 (MB)
	Total:                                     0.023 (MW) /      0.186 (MB)

	Nuclear Rep. energy          =     24.32321817137924
	SCF energy                   =    -76.82562820168212
	One-electron energy          =   -150.69342154559178
	Two-electron energy          =     49.54457517253046
	Reference energy             =    -76.82562820168208

*** tstop() called on atlantis at Tue Apr 19 01:47:34 2022
Module time:
	user time   =       0.09 seconds =       0.00 minutes
	system time =       0.04 seconds =       0.00 minutes
	total time  =          0 seconds =       0.00 minutes
Total time:
	user time   =       0.76 seconds =       0.01 minutes
	system time =       0.05 seconds =       0.00 minutes
	total time  =          1 seconds =       0.02 minutes
            **************************
            *                        *
            *        CCENERGY        *
            *                        *
            **************************

    Nuclear Rep. energy (wfn)     =   24.323218171379235
    SCF energy          (wfn)     =  -76.825628201682122
    Reference energy    (file100) =  -76.825628201682079

    Input parameters:
    -----------------
    Wave function   =     CCSD
    Reference wfn   =     RHF
    Brueckner       =     No
    Memory (Mbytes) =     524.3
    Maxiter         =     50
    R_Convergence   =     1.0e-07
    E_Convergence   =     1.0e-06
    Restart         =     Yes
    DIIS            =     Yes
    AO Basis        =     NONE
    ABCD            =     NEW
    Cache Level     =     2
    Cache Type      =     LOW
    Print Level     =     1
    Num. of threads =     1
    # Amps to Print =     10
    Print MP2 Amps? =     No
    Analyze T2 Amps =     No
    Print Pair Ener =     No
    Local CC        =     No
    SCS-MP2         =     False
    SCSN-MP2        =     False
    SCS-CCSD        =     False

MP2 correlation energy -0.2726311515559627
                Solving CC Amplitude Equations
                ------------------------------
  Iter             Energy              RMS        T1Diag      D1Diag    New D1Diag    D2Diag
  ----     ---------------------    ---------   ----------  ----------  ----------   --------
     0        -0.272631151555963    0.000e+00    0.000000    0.000000    0.000000    0.165071
     1        -0.276005025246606    5.369e-02    0.008598    0.021573    0.021573    0.167086
     2        -0.284970723642237    2.281e-02    0.009231    0.022886    0.022886    0.178154
     3        -0.287337627751286    9.935e-03    0.010658    0.026394    0.026394    0.184506
     4        -0.287672033158602    3.225e-03    0.010783    0.026694    0.026694    0.186887
     5        -0.287729576127143    7.292e-04    0.010789    0.026723    0.026723    0.187352
     6        -0.287729173424807    1.985e-04    0.010771    0.026686    0.026686    0.187394
     7        -0.287731772681538    4.378e-05    0.010767    0.026679    0.026679    0.187404
     8        -0.287732354009526    1.337e-05    0.010766    0.026677    0.026677    0.187408
     9        -0.287732162372031    3.319e-06    0.010766    0.026677    0.026677    0.187408
    10        -0.287732190787573    8.325e-07    0.010766    0.026677    0.026677    0.187408
    11        -0.287732201541970    2.279e-07    0.010766    0.026677    0.026677    0.187408
    12        -0.287732204162354    6.634e-08    0.010766    0.026677    0.026677    0.187408

    Iterations converged.


    Largest TIA Amplitudes:
              3  34         0.0207154363
              4  40         0.0207154363
              3  31         0.0108318467
              4  37         0.0108318467
              3  35         0.0082727390
              4  41         0.0082727390
              3  36         0.0072443344
              4  42         0.0072443344
              2   3         0.0061130514
              3  33         0.0049180637

    Largest TIjAb Amplitudes:
      3   3  21  21        -0.0719633366
      4   4  14  14        -0.0719633366
      3   3  20  21        -0.0444125778
      3   3  21  20        -0.0444125778
      4   4  13  14        -0.0444125778
      4   4  14  13        -0.0444125778
      3   4  21  14        -0.0443161454
      4   3  14  21        -0.0443161454
      3   3  20  20        -0.0281381718
      4   4  13  13        -0.0281381718

    SCF energy       (wfn)                    =  -76.825628201682122
    Reference energy (file100)                =  -76.825628201682079

    Opposite-spin MP2 correlation energy      =   -0.206487003726192
    Same-spin MP2 correlation energy          =   -0.066144147829770
    MP2 correlation energy                    =   -0.272631151555963
      * MP2 total energy                      =  -77.098259353238035

    Opposite-spin CCSD correlation energy     =   -0.231782091193784
    Same-spin CCSD correlation energy         =   -0.055950112968570
    CCSD correlation energy                   =   -0.287732204162354
      * CCSD total energy                     =  -77.113360405844432

gradient() will perform analytic gradient computation.

*** tstart() called on atlantis
*** at Tue Apr 19 01:47:34 2022

   => Loading Basis Set <=

    Name: AUG-CC-PVDZ
    Role: ORBITAL
    Keyword: BASIS
    atoms 1-2 entry C          line   178 file /home/akrom/software/anaconda3/envs/ffpenv/share/psi4/basis/aug-cc-pvdz.gbs 
    atoms 3-4 entry H          line    36 file /home/akrom/software/anaconda3/envs/ffpenv/share/psi4/basis/aug-cc-pvdz.gbs 


         ---------------------------------------------------------
                                   SCF
               by Justin Turney, Rob Parrish, Andy Simmonett
                          and Daniel G. A. Smith
                              RHF Reference
                        1 Threads,    500 MiB Core
         ---------------------------------------------------------

  ==> Geometry <==

    Molecular point group: d2h
    Full point group: D_inf_h

    Geometry (in Angstrom), charge = 0, multiplicity = 1:

       Center              X                  Y                   Z               Mass       
    ------------   -----------------  -----------------  -----------------  -----------------
         C           -0.614460000000    -0.000000000000     0.000000000000    12.000000000000
         C            0.614460000000     0.000000000000     0.000000000000    12.000000000000
         H           -1.689230000000    -0.000000000000     0.000000000000     1.007825032230
         H            1.689230000000     0.000000000000     0.000000000000     1.007825032230

  Running in d2h symmetry.

  Rotational constants: A = ************  B =      1.13802  C =      1.13802 [cm^-1]
  Rotational constants: A = ************  B =  34116.98697  C =  34116.98697 [MHz]
  Nuclear repulsion =   24.323218171379235

  Charge       = 0
  Multiplicity = 1
  Electrons    = 14
  Nalpha       = 7
  Nbeta        = 7

  ==> Algorithm <==

  SCF Algorithm Type is PK.
  DIIS enabled.
  MOM disabled.
  Fractional occupation disabled.
  Guess Type is SAD.
  Energy threshold   = 1.00e-10
  Density threshold  = 1.00e-10
  Integral threshold = 0.00e+00

  ==> Primary Basis <==

  Basis Set: AUG-CC-PVDZ
    Blend: AUG-CC-PVDZ
    Number of shells: 28
    Number of basis function: 64
    Number of Cartesian functions: 68
    Spherical Harmonics?: true
    Max angular momentum: 2

  ==> Pre-Iterations <==

   -------------------------------------------------------
    Irrep   Nso     Nmo     Nalpha   Nbeta   Ndocc  Nsocc
   -------------------------------------------------------
     Ag        16      16       0       0       0       0
     B1g        7       7       0       0       0       0
     B2g        7       7       0       0       0       0
     B3g        2       2       0       0       0       0
     Au         2       2       0       0       0       0
     B1u        7       7       0       0       0       0
     B2u        7       7       0       0       0       0
     B3u       16      16       0       0       0       0
   -------------------------------------------------------
    Total      64      64       7       7       7       0
   -------------------------------------------------------

  ==> Integral Setup <==

  Using in-core PK algorithm.
   Calculation information:
      Number of atoms:                   4
      Number of AO shells:              28
      Number of primitives:             64
      Number of atomic orbitals:        68
      Number of basis functions:        64

      Integral cutoff                 1.00e-12
      Number of threads:                 1

  Performing in-core PK
  Using 4328480 doubles for integral storage.
  We computed 82621 shell quartets total.
  Whereas there are 82621 unique shell quartets.

  ==> DiskJK: Disk-Based J/K Matrices <==

    J tasked:                  Yes
    K tasked:                  Yes
    wK tasked:                  No
    Memory [MiB]:              375
    Schwarz Cutoff:          1E-12

    OpenMP threads:              1

  Minimum eigenvalue in the overlap matrix is 3.8568108127E-05.
  Using Symmetric Orthogonalization.

  SCF Guess: Superposition of Atomic Densities via on-the-fly atomic UHF.

  ==> Iterations <==

                        Total Energy        Delta E     RMS |[F,P]|

   @RHF iter SAD:   -75.84294041656601   -7.58429e+01   0.00000e+00 
   @RHF iter   1:   -76.78340782834192   -9.40467e-01   9.66859e-03 DIIS
   @RHF iter   2:   -76.82115112565917   -3.77433e-02   3.22525e-03 DIIS
   @RHF iter   3:   -76.82548461157705   -4.33349e-03   4.23555e-04 DIIS
   @RHF iter   4:   -76.82562658939931   -1.41978e-04   4.30270e-05 DIIS
   @RHF iter   5:   -76.82562815748017   -1.56808e-06   6.67977e-06 DIIS
   @RHF iter   6:   -76.82562820019079   -4.27106e-08   1.18906e-06 DIIS
   @RHF iter   7:   -76.82562820162467   -1.43388e-09   2.23769e-07 DIIS
   @RHF iter   8:   -76.82562820168184   -5.71703e-11   1.83383e-08 DIIS
   @RHF iter   9:   -76.82562820168212   -2.84217e-13   1.69529e-09 DIIS
   @RHF iter  10:   -76.82562820168211    1.42109e-14   2.04761e-10 DIIS
   @RHF iter  11:   -76.82562820168204    7.10543e-14   1.31474e-11 DIIS
  Energy and wave function converged.


  ==> Post-Iterations <==

    Orbital Energies [Eh]
    ---------------------

    Doubly Occupied:                                                      

       1Ag   -11.262275     1B3u  -11.259102     2Ag    -1.025986  
       2B3u   -0.767636     3Ag    -0.676495     1B1u   -0.405321  
       1B2u   -0.405321  

    Virtual:                                                              

       4Ag     0.037387     3B3u    0.039622     1B1g    0.106234  
       1B2g    0.106234     2B1u    0.120934     2B2u    0.120934  
       5Ag     0.130617     4B3u    0.138262     6Ag     0.177547  
       2B1g    0.225633     2B2g    0.225633     5B3u    0.255088  
       6B3u    0.329728     7Ag     0.355448     3B1u    0.387964  
       3B2u    0.387964     1B3g    0.426958     8Ag     0.426958  
       3B1g    0.485632     3B2g    0.485632     9Ag     0.532999  
       7B3u    0.535501    10Ag     0.573660     1Au     0.595042  
       8B3u    0.595042     9B3u    0.667775     4B1u    0.773021  
       4B2u    0.773021    10B3u    0.833561     5B1u    0.846551  
       5B2u    0.846551     4B1g    0.855585     4B2g    0.855585  
      11Ag     0.989146     5B1g    1.182918     5B2g    1.182918  
      11B3u    1.225209    12Ag     1.387346    13Ag     1.563958  
       2B3g    1.563958    12B3u    1.628369     6B1u    1.642448  
       6B2u    1.642448    14Ag     1.680540    13B3u    1.892212  
       2Au     1.892212     6B1g    1.926205     6B2g    1.926205  
       7B1u    2.134805     7B2u    2.134805    14B3u    2.467600  
      15Ag     2.535211    15B3u    2.610629     7B1g    2.758496  
       7B2g    2.758496    16Ag     3.775207    16B3u    3.976175  

    Final Occupation by Irrep:
             Ag   B1g   B2g   B3g    Au   B1u   B2u   B3u 
    DOCC [     3,    0,    0,    0,    0,    1,    1,    2 ]

  @RHF Final Energy:   -76.82562820168204

   => Energetics <=

    Nuclear Repulsion Energy =             24.3232181713792350
    One-Electron Energy =                -150.6934215342820380
    Two-Electron Energy =                  49.5445751612207630
    Total Energy =                        -76.8256282016820364

Computation Completed


Properties will be evaluated at   0.000000,   0.000000,   0.000000 [a0]

Properties computed using the SCF density matrix

  Nuclear Dipole Moment: [e a0]
     X:     0.0000      Y:     0.0000      Z:     0.0000

  Electronic Dipole Moment: [e a0]
     X:     0.0000      Y:     0.0000      Z:     0.0000

  Dipole Moment: [e a0]
     X:     0.0000      Y:     0.0000      Z:     0.0000     Total:     0.0000

  Dipole Moment: [D]
     X:     0.0000      Y:     0.0000      Z:     0.0000     Total:     0.0000


*** tstop() called on atlantis at Tue Apr 19 01:47:35 2022
Module time:
	user time   =       0.52 seconds =       0.01 minutes
	system time =       0.01 seconds =       0.00 minutes
	total time  =          1 seconds =       0.02 minutes
Total time:
	user time   =       1.40 seconds =       0.02 minutes
	system time =       0.16 seconds =       0.00 minutes
	total time  =          2 seconds =       0.03 minutes
 MINTS: Wrapper to libmints.
   by Justin Turney

   Calculation information:
      Number of threads:                 1
      Number of atoms:                   4
      Number of AO shells:              28
      Number of SO shells:              14
      Number of primitives:             64
      Number of atomic orbitals:        68
      Number of basis functions:        64

      Number of irreps:                  8
      Integral cutoff                 0.00e+00
      Number of functions per irrep: [  16    7    7    2    2    7    7   16 ]

 OEINTS: Overlap, kinetic, potential, dipole, and quadrupole integrals
         stored in file 35.

      Computing two-electron integrals...done
      Computed 294424 non-zero two-electron integrals.
        Stored in file 33.


*** tstart() called on atlantis
*** at Tue Apr 19 01:47:35 2022


	Wfn Parameters:
	--------------------
	Wavefunction         = CCSD
	Number of irreps     = 8
	Number of MOs        = 64
	Number of active MOs = 64
	AO-Basis             = NONE
	Semicanonical        = false
	Reference            = RHF
	Print Level          = 1

	IRREP	# MOs	# FZDC	# DOCC	# SOCC	# VIRT	# FZVR
	-----	-----	------	------	------	------	------
	 Ag	   16	    0	    3	    0	    13	    0
	 B1g	   7	    0	    0	    0	    7	    0
	 B2g	   7	    0	    0	    0	    7	    0
	 B3g	   2	    0	    0	    0	    2	    0
	 Au	   2	    0	    0	    0	    2	    0
	 B1u	   7	    0	    1	    0	    6	    0
	 B2u	   7	    0	    1	    0	    6	    0
	 B3u	   16	    0	    2	    0	    14	    0
	Transforming integrals...
	IWL integrals will be deleted.
	(OO|OO)...
	Presorting SO-basis two-electron integrals.
	Sorting File: SO Ints (nn|nn) nbuckets = 1
	Transforming the one-electron integrals and constructing Fock matrices
	Starting first half-transformation.
	Sorting half-transformed integrals.
	First half integral transformation complete.
	Starting second half-transformation.
	Two-electron integral transformation complete.
	(OO|OV)...
	Starting second half-transformation.
	Two-electron integral transformation complete.
	(OO|VV)...
	Starting second half-transformation.
	Two-electron integral transformation complete.
	(OV|OO)...
	Starting first half-transformation.
	Sorting half-transformed integrals.
	First half integral transformation complete.
	Starting second half-transformation.
	Two-electron integral transformation complete.
	(OV|OV)...
	Starting second half-transformation.
	Two-electron integral transformation complete.
	(OV|VV)...
	Starting second half-transformation.
	Two-electron integral transformation complete.
	(VV|OO)...
	Starting first half-transformation.
	Sorting half-transformed integrals.
	First half integral transformation complete.
	Starting second half-transformation.
	Two-electron integral transformation complete.
	(VV|OV)...
	Starting second half-transformation.
	Two-electron integral transformation complete.
	(VV|VV)...
	Starting second half-transformation.
	Two-electron integral transformation complete.
	Frozen core energy     =      0.00000000000000

	Size of irrep 0 of <ab|cd> integrals:      0.295 (MW) /      2.359 (MB)
	Size of irrep 1 of <ab|cd> integrals:      0.162 (MW) /      1.293 (MB)
	Size of irrep 2 of <ab|cd> integrals:      0.162 (MW) /      1.293 (MB)
	Size of irrep 3 of <ab|cd> integrals:      0.077 (MW) /      0.618 (MB)
	Size of irrep 4 of <ab|cd> integrals:      0.076 (MW) /      0.609 (MB)
	Size of irrep 5 of <ab|cd> integrals:      0.163 (MW) /      1.306 (MB)
	Size of irrep 6 of <ab|cd> integrals:      0.163 (MW) /      1.306 (MB)
	Size of irrep 7 of <ab|cd> integrals:      0.292 (MW) /      2.333 (MB)
	Total:                                     1.390 (MW) /     11.116 (MB)

	Size of irrep 0 of <ia|bc> integrals:      0.043 (MW) /      0.343 (MB)
	Size of irrep 1 of <ia|bc> integrals:      0.020 (MW) /      0.158 (MB)
	Size of irrep 2 of <ia|bc> integrals:      0.020 (MW) /      0.158 (MB)
	Size of irrep 3 of <ia|bc> integrals:      0.006 (MW) /      0.049 (MB)
	Size of irrep 4 of <ia|bc> integrals:      0.007 (MW) /      0.053 (MB)
	Size of irrep 5 of <ia|bc> integrals:      0.019 (MW) /      0.152 (MB)
	Size of irrep 6 of <ia|bc> integrals:      0.019 (MW) /      0.152 (MB)
	Size of irrep 7 of <ia|bc> integrals:      0.044 (MW) /      0.354 (MB)
	Total:                                     0.177 (MW) /      1.418 (MB)

	Size of irrep 0 of tijab amplitudes:       0.008 (MW) /      0.065 (MB)
	Size of irrep 1 of tijab amplitudes:       0.002 (MW) /      0.013 (MB)
	Size of irrep 2 of tijab amplitudes:       0.002 (MW) /      0.013 (MB)
	Size of irrep 3 of tijab amplitudes:       0.001 (MW) /      0.004 (MB)
	Size of irrep 4 of tijab amplitudes:       0.000 (MW) /      0.000 (MB)
	Size of irrep 5 of tijab amplitudes:       0.002 (MW) /      0.019 (MB)
	Size of irrep 6 of tijab amplitudes:       0.002 (MW) /      0.019 (MB)
	Size of irrep 7 of tijab amplitudes:       0.006 (MW) /      0.052 (MB)
	Total:                                     0.023 (MW) /      0.186 (MB)

	Nuclear Rep. energy          =     24.32321817137924
	SCF energy                   =    -76.82562820168204
	One-electron energy          =   -150.69342153456216
	Two-electron energy          =     49.54457516150082
	Reference energy             =    -76.82562820168211

*** tstop() called on atlantis at Tue Apr 19 01:47:35 2022
Module time:
	user time   =       0.08 seconds =       0.00 minutes
	system time =       0.05 seconds =       0.00 minutes
	total time  =          0 seconds =       0.00 minutes
Total time:
	user time   =       1.61 seconds =       0.03 minutes
	system time =       0.21 seconds =       0.00 minutes
	total time  =          2 seconds =       0.03 minutes
            **************************
            *                        *
            *        CCENERGY        *
            *                        *
            **************************

    Nuclear Rep. energy (wfn)     =   24.323218171379235
    SCF energy          (wfn)     =  -76.825628201682036
    Reference energy    (file100) =  -76.825628201682107

    Input parameters:
    -----------------
    Wave function   =     CCSD
    Reference wfn   =     RHF
    Brueckner       =     No
    Memory (Mbytes) =     524.3
    Maxiter         =     50
    R_Convergence   =     1.0e-07
    E_Convergence   =     1.0e-08
    Restart         =     Yes
    DIIS            =     Yes
    AO Basis        =     NONE
    ABCD            =     NEW
    Cache Level     =     2
    Cache Type      =     LOW
    Print Level     =     1
    Num. of threads =     1
    # Amps to Print =     10
    Print MP2 Amps? =     No
    Analyze T2 Amps =     No
    Print Pair Ener =     No
    Local CC        =     No
    SCS-MP2         =     False
    SCSN-MP2        =     False
    SCS-CCSD        =     False

    Using old T1 amplitudes.
    Using old T2 amplitudes.

MP2 correlation energy -0.2726311512968120
                Solving CC Amplitude Equations
                ------------------------------
  Iter             Energy              RMS        T1Diag      D1Diag    New D1Diag    D2Diag
  ----     ---------------------    ---------   ----------  ----------  ----------   --------
     0        -0.287732204034124    0.000e+00    0.010766    0.026677    0.026677    0.187408
     1        -0.287732205455788    2.874e-08    0.010766    0.026677    0.026677    0.187408
     2        -0.287732205488202    1.349e-08    0.010766    0.026677    0.026677    0.187408

    Iterations converged.


    Largest TIA Amplitudes:
              3  34         0.0207154373
              4  40         0.0207154373
              3  31         0.0108318457
              4  37         0.0108318457
              3  35         0.0082727393
              4  41         0.0082727393
              3  36         0.0072443340
              4  42         0.0072443340
              2   3         0.0061130542
              3  33         0.0049180630

    Largest TIjAb Amplitudes:
      3   3  21  21        -0.0719633401
      4   4  14  14        -0.0719633401
      3   3  20  21        -0.0444125799
      3   3  21  20        -0.0444125799
      4   4  13  14        -0.0444125799
      4   4  14  13        -0.0444125799
      3   4  21  14        -0.0443161453
      4   3  14  21        -0.0443161453
      3   3  20  20        -0.0281381728
      4   4  13  13        -0.0281381728

    SCF energy       (wfn)                    =  -76.825628201682036
    Reference energy (file100)                =  -76.825628201682107

    Opposite-spin MP2 correlation energy      =   -0.206487003552852
    Same-spin MP2 correlation energy          =   -0.066144147743960
    MP2 correlation energy                    =   -0.272631151296812
      * MP2 total energy                      =  -77.098259352978914

    Opposite-spin CCSD correlation energy     =   -0.231782092094674
    Same-spin CCSD correlation energy         =   -0.055950113393530
    CCSD correlation energy                   =   -0.287732205488202
      * CCSD total energy                     =  -77.113360407170305


			**************************
			*                        *
			*         CCHBAR         *
			*                        *
			**************************


			**************************
			*        CCLAMBDA        *
			**************************


	Nuclear Rep. energy (wfn)     =   24.323218171379235
	Reference           (wfn)     =                    0
	SCF energy          (wfn)     =  -76.825628201682036
	Reference energy    (CC_INFO) =  -76.825628201682107
	CCSD energy         (CC_INFO) =   -0.287732205488202
	Total CCSD energy   (CC_INFO) =  -77.113360407170305

	Input parameters:
	-----------------
	Maxiter           =     50
	Convergence       = 1.0e-07
	Restart           =     No
	Cache Level       =     2
	Model III         =     No
	DIIS              =     Yes
	AO Basis          =     No
	ABCD              =     NEW
	Local CC          =     No
	Parameters for left-handed eigenvectors:
	    Irr   Root  Ground-State?    EOM energy        R0
	  1   0     0        Yes       0.0000000000   1.0000000000
	Labels for eigenvector 1:
	LIA 0 -1, Lia 0 -1, LIJAB 0 -1, Lijab 0 -1, LIjAb 0 -1, 2LIjAb - LIjbA 0 -1
	Symmetry of left-hand state: Ag
	Symmetry of left-hand eigenvector: Ag

	          Solving Lambda Equations
	          ------------------------
	Iter     PseudoEnergy or Norm         RMS  
	----     ---------------------     --------
	   0        -0.287854783724731    0.000e+00
	   1        -0.277959315007877    1.705e-02
	   2        -0.276720107468731    3.914e-03
	   3        -0.276455897524135    1.124e-03
	   4        -0.276449879179787    2.847e-04
	   5        -0.276445844036683    9.186e-05
	   6        -0.276442498727754    2.821e-05
	   7        -0.276442138056737    1.005e-05
	   8        -0.276441996641915    3.198e-06
	   9        -0.276441962153328    8.602e-07
	  10        -0.276441970768218    2.116e-07
	  11        -0.276441968205539    5.192e-08

	Largest LIA Amplitudes:
	          3  34         0.0144963895
	          4  40         0.0144963895
	          3  31         0.0083978787
	          4  37         0.0083978787
	          2   3         0.0067471660
	          3  35         0.0058299732
	          4  41         0.0058299732
	          3  36         0.0052907351
	          4  42         0.0052907351
	          6  51         0.0044358541

	Largest LIjAb Amplitudes:
	  3   3  21  21        -0.0689329632
	  4   4  14  14        -0.0689329632
	  3   3  20  21        -0.0425615833
	  3   3  21  20        -0.0425615833
	  4   4  13  14        -0.0425615833
	  4   4  14  13        -0.0425615833
	  3   4  21  14        -0.0413040535
	  4   3  14  21        -0.0413040535
	  3   3  20  20        -0.0269629465
	  4   4  13  13        -0.0269629465

	Iterations converged.

	Overlap <L|e^T> =        0.86754037860

			**************************
			*                        *
			*        CCDENSITY       *
			*                        *
			**************************


	Input parameters:
	-----------------
	Wave function    =   CCSD
	Reference wfn    =   RHF
	Dertype          = 1
	Tolerance        = 1.0e-14
	Cache Level      = 2
	AO Basis         = No
	OPDM Only        = No
	Relax OPDM       = Yes
	Compute Xi       = No
	Use Zeta         = No
	Xi connected     = Yes
	Compute NO       = No

	Nuclear Rep. energy (wfn)     =   24.323218171379235
	SCF energy          (wfn)     =  -76.825628201682036
	Reference energy    (file100) =  -76.825628201682107
	CCSD energy         (CC_INFO) =   -0.287732205488202
	Total CCSD energy   (CC_INFO) =  -77.113360407170305
	Number of States = 1

	Ground?  State     EOM Energy       R0
	  Yes     0 Ag    0.0000000000   1.00000000

	Virial Theorem Data:
	--------------------
	Kinetic energy (ref)   =   76.525602450131601
	Kinetic energy (corr)  =    0.350251794076237
	Kinetic energy (total) =   76.875854244207844
	-V/T (ref)             =    2.003920593134121
	-V/T (corr)            =    1.821501018280504
	-V/T (total)           =    2.003089476732291
  Cartesian Displacement SALCs
  By SALC:
  Number of SALCs: 2, nirreps: Ag
  Project out translations: False
  Project out rotations: False
	irrep = 0, ncomponent = 2
		0: atom 0, direction x, coef 0.707107
		1: atom 1, direction x, coef -0.707107
	irrep = 0, ncomponent = 2
		0: atom 2, direction x, coef 0.707107
		1: atom 3, direction x, coef -0.707107

  By Atomic Center:
  Number of atomic centers: 4
   Atomic Center 0:
	x component, size = 1
		0: salc 0, irrep 0, coef 0.707107
	y component, size = 0
	z component, size = 0
   Atomic Center 1:
	x component, size = 1
		0: salc 0, irrep 0, coef -0.707107
	y component, size = 0
	z component, size = 0
   Atomic Center 2:
	x component, size = 1
		0: salc 1, irrep 0, coef 0.707107
	y component, size = 0
	z component, size = 0
   Atomic Center 3:
	x component, size = 1
		0: salc 1, irrep 0, coef -0.707107
	y component, size = 0
	z component, size = 0

    Molecular point group: d2h
    Full point group: D_inf_h

    Geometry (in Bohr), charge = 0, multiplicity = 1:

       Center              X                  Y                   Z       
    ------------   -----------------  -----------------  -----------------
         C           -1.161161115049    -0.000000000000     0.000000000000
         C            1.161161115049     0.000000000000     0.000000000000
         H           -3.192182062907    -0.000000000000     0.000000000000
         H            3.192182062907     0.000000000000     0.000000000000

	Presorting MO-basis TPDM.
	Sorting File: MO TPDM (AA|AA) nbuckets = 1
	Starting first half-transformation.
	Sorting half-transformed TPDM.
	First half integral transformation complete.


  -Nuclear Repulsion Energy 1st Derivatives:
     Atom            X                  Y                   Z
    ------   -----------------  -----------------  -----------------
       1        5.537163209075     0.000000000000     0.000000000000
       2       -5.537163209075    -0.000000000000     0.000000000000
       3        1.795659009002     0.000000000000     0.000000000000
       4       -1.795659009002    -0.000000000000     0.000000000000


  -Core Hamiltonian Gradient:
     Atom            X                  Y                   Z
    ------   -----------------  -----------------  -----------------
       1      -15.144173861151    -0.000000000000     0.000000000000
       2       15.144173861151     0.000000000000     0.000000000000
       3       -3.882901764413    -0.000000000000     0.000000000000
       4        3.882901764413     0.000000000000     0.000000000000


  -Lagrangian contribution to gradient:
     Atom            X                  Y                   Z
    ------   -----------------  -----------------  -----------------
       1        0.452853501239     0.000000000000     0.000000000000
       2       -0.452853501239    -0.000000000000     0.000000000000
       3        0.109122348337     0.000000000000     0.000000000000
       4       -0.109122348337    -0.000000000000     0.000000000000


  -Two-electron contribution to gradient:
     Atom            X                  Y                   Z
    ------   -----------------  -----------------  -----------------
       1        9.140965027845     0.000000000000     0.000000000000
       2       -9.140965027845    -0.000000000000     0.000000000000
       3        1.979304008647     0.000000000000     0.000000000000
       4       -1.979304008647    -0.000000000000     0.000000000000


  -Total gradient:
     Atom            X                  Y                   Z
    ------   -----------------  -----------------  -----------------
       1       -0.013192122993    -0.000000000000     0.000000000000
       2        0.013192122993     0.000000000000     0.000000000000
       3        0.001183601572     0.000000000000     0.000000000000
       4       -0.001183601572    -0.000000000000     0.000000000000


  Based on options and gradient (rms=5.41E-03), recommend projecting translations and projecting rotations.
hessian() will perform frequency computation by finite difference of analytic gradients.

         ----------------------------------------------------------
                                   FINDIF
                     R. A. King and Jonathon Misiewicz
         ---------------------------------------------------------

  Using finite-differences of gradients to determine vibrational frequencies and 
  normal modes.  Resulting frequencies are only valid at stationary points.
    Generating geometries for use with 3-point formula.
    Displacement size will be 5.00e-03.
    Number of atoms is 4.
    Number of irreps is 8.
    Number of SALCs is 7.
    Translations projected? 1. Rotations projected? 1.
    Index of SALCs per irrep:
     1 :  0  1 
     2 :  2 
     3 :  3 
     4 : 
     5 : 
     6 :  4 
     7 :  5 
     8 :  6 
    Number of SALCs per irrep:
     Irrep 1: 2
     Irrep 2: 1
     Irrep 3: 1
     Irrep 4: 0
     Irrep 5: 0
     Irrep 6: 1
     Irrep 7: 1
     Irrep 8: 1
    Number of geometries (including reference) is 10.
    Number of displacements per irrep:
      Irrep 1: 4
      Irrep 2: 1
      Irrep 3: 1
      Irrep 4: 0
      Irrep 5: 0
      Irrep 6: 1
      Irrep 7: 1
      Irrep 8: 1

  //>>>>>>>>>>>>>>>>>>>>>>>>>>>>>>>>>>>//
  //    Loading displacement 1 of 10   //
  //<<<<<<<<<<<<<<<<<<<<<<<<<<<<<<<<<<<//
gradient() will perform analytic gradient computation.

*** tstart() called on atlantis
*** at Tue Apr 19 01:47:36 2022

   => Loading Basis Set <=

    Name: AUG-CC-PVDZ
    Role: ORBITAL
    Keyword: BASIS
    atoms 1-2 entry C          line   178 file /home/akrom/software/anaconda3/envs/ffpenv/share/psi4/basis/aug-cc-pvdz.gbs 
    atoms 3-4 entry H          line    36 file /home/akrom/software/anaconda3/envs/ffpenv/share/psi4/basis/aug-cc-pvdz.gbs 


         ---------------------------------------------------------
                                   SCF
               by Justin Turney, Rob Parrish, Andy Simmonett
                          and Daniel G. A. Smith
                              RHF Reference
                        1 Threads,    500 MiB Core
         ---------------------------------------------------------

  ==> Geometry <==

    Molecular point group: d2h
    Full point group: D_inf_h

    Geometry (in Angstrom), charge = 0, multiplicity = 1:

       Center              X                  Y                   Z               Mass       
    ------------   -----------------  -----------------  -----------------  -----------------
         C           -0.614460000000    -0.000000000000     0.000000000000    12.000000000000
         C            0.614460000000     0.000000000000     0.000000000000    12.000000000000
         H           -1.689230000000    -0.000000000000     0.000000000000     1.007825032230
         H            1.689230000000     0.000000000000     0.000000000000     1.007825032230

  Running in d2h symmetry.

  Rotational constants: A = ************  B =      1.13802  C =      1.13802 [cm^-1]
  Rotational constants: A = ************  B =  34116.98697  C =  34116.98697 [MHz]
  Nuclear repulsion =   24.323218171379235

  Charge       = 0
  Multiplicity = 1
  Electrons    = 14
  Nalpha       = 7
  Nbeta        = 7

  ==> Algorithm <==

  SCF Algorithm Type is PK.
  DIIS enabled.
  MOM disabled.
  Fractional occupation disabled.
  Guess Type is SAD.
  Energy threshold   = 1.00e-10
  Density threshold  = 1.00e-10
  Integral threshold = 0.00e+00

  ==> Primary Basis <==

  Basis Set: AUG-CC-PVDZ
    Blend: AUG-CC-PVDZ
    Number of shells: 28
    Number of basis function: 64
    Number of Cartesian functions: 68
    Spherical Harmonics?: true
    Max angular momentum: 2

  ==> Pre-Iterations <==

   -------------------------------------------------------
    Irrep   Nso     Nmo     Nalpha   Nbeta   Ndocc  Nsocc
   -------------------------------------------------------
     Ag        16      16       0       0       0       0
     B1g        7       7       0       0       0       0
     B2g        7       7       0       0       0       0
     B3g        2       2       0       0       0       0
     Au         2       2       0       0       0       0
     B1u        7       7       0       0       0       0
     B2u        7       7       0       0       0       0
     B3u       16      16       0       0       0       0
   -------------------------------------------------------
    Total      64      64       7       7       7       0
   -------------------------------------------------------

  ==> Integral Setup <==

  Using in-core PK algorithm.
   Calculation information:
      Number of atoms:                   4
      Number of AO shells:              28
      Number of primitives:             64
      Number of atomic orbitals:        68
      Number of basis functions:        64

      Integral cutoff                 1.00e-12
      Number of threads:                 1

  Performing in-core PK
  Using 4328480 doubles for integral storage.
  We computed 82621 shell quartets total.
  Whereas there are 82621 unique shell quartets.

  ==> DiskJK: Disk-Based J/K Matrices <==

    J tasked:                  Yes
    K tasked:                  Yes
    wK tasked:                  No
    Memory [MiB]:              375
    Schwarz Cutoff:          1E-12

    OpenMP threads:              1

  Minimum eigenvalue in the overlap matrix is 3.8568108127E-05.
  Using Symmetric Orthogonalization.

  SCF Guess: Superposition of Atomic Densities via on-the-fly atomic UHF.

  ==> Iterations <==

                        Total Energy        Delta E     RMS |[F,P]|

   @RHF iter SAD:   -75.84294041656601   -7.58429e+01   0.00000e+00 
   @RHF iter   1:   -76.78340782834192   -9.40467e-01   9.66859e-03 DIIS
   @RHF iter   2:   -76.82115112565917   -3.77433e-02   3.22525e-03 DIIS
   @RHF iter   3:   -76.82548461157705   -4.33349e-03   4.23555e-04 DIIS
   @RHF iter   4:   -76.82562658939931   -1.41978e-04   4.30270e-05 DIIS
   @RHF iter   5:   -76.82562815748017   -1.56808e-06   6.67977e-06 DIIS
   @RHF iter   6:   -76.82562820019079   -4.27106e-08   1.18906e-06 DIIS
   @RHF iter   7:   -76.82562820162467   -1.43388e-09   2.23769e-07 DIIS
   @RHF iter   8:   -76.82562820168184   -5.71703e-11   1.83383e-08 DIIS
   @RHF iter   9:   -76.82562820168212   -2.84217e-13   1.69529e-09 DIIS
   @RHF iter  10:   -76.82562820168211    1.42109e-14   2.04761e-10 DIIS
   @RHF iter  11:   -76.82562820168204    7.10543e-14   1.31474e-11 DIIS
  Energy and wave function converged.


  ==> Post-Iterations <==

    Orbital Energies [Eh]
    ---------------------

    Doubly Occupied:                                                      

       1Ag   -11.262275     1B3u  -11.259102     2Ag    -1.025986  
       2B3u   -0.767636     3Ag    -0.676495     1B1u   -0.405321  
       1B2u   -0.405321  

    Virtual:                                                              

       4Ag     0.037387     3B3u    0.039622     1B1g    0.106234  
       1B2g    0.106234     2B1u    0.120934     2B2u    0.120934  
       5Ag     0.130617     4B3u    0.138262     6Ag     0.177547  
       2B1g    0.225633     2B2g    0.225633     5B3u    0.255088  
       6B3u    0.329728     7Ag     0.355448     3B1u    0.387964  
       3B2u    0.387964     1B3g    0.426958     8Ag     0.426958  
       3B1g    0.485632     3B2g    0.485632     9Ag     0.532999  
       7B3u    0.535501    10Ag     0.573660     1Au     0.595042  
       8B3u    0.595042     9B3u    0.667775     4B1u    0.773021  
       4B2u    0.773021    10B3u    0.833561     5B1u    0.846551  
       5B2u    0.846551     4B1g    0.855585     4B2g    0.855585  
      11Ag     0.989146     5B1g    1.182918     5B2g    1.182918  
      11B3u    1.225209    12Ag     1.387346    13Ag     1.563958  
       2B3g    1.563958    12B3u    1.628369     6B1u    1.642448  
       6B2u    1.642448    14Ag     1.680540    13B3u    1.892212  
       2Au     1.892212     6B1g    1.926205     6B2g    1.926205  
       7B1u    2.134805     7B2u    2.134805    14B3u    2.467600  
      15Ag     2.535211    15B3u    2.610629     7B1g    2.758496  
       7B2g    2.758496    16Ag     3.775207    16B3u    3.976175  

    Final Occupation by Irrep:
             Ag   B1g   B2g   B3g    Au   B1u   B2u   B3u 
    DOCC [     3,    0,    0,    0,    0,    1,    1,    2 ]

  @RHF Final Energy:   -76.82562820168204

   => Energetics <=

    Nuclear Repulsion Energy =             24.3232181713792350
    One-Electron Energy =                -150.6934215342820380
    Two-Electron Energy =                  49.5445751612207630
    Total Energy =                        -76.8256282016820364

Computation Completed


Properties will be evaluated at   0.000000,   0.000000,   0.000000 [a0]

Properties computed using the SCF density matrix

  Nuclear Dipole Moment: [e a0]
     X:     0.0000      Y:     0.0000      Z:     0.0000

  Electronic Dipole Moment: [e a0]
     X:     0.0000      Y:     0.0000      Z:     0.0000

  Dipole Moment: [e a0]
     X:     0.0000      Y:     0.0000      Z:     0.0000     Total:     0.0000

  Dipole Moment: [D]
     X:     0.0000      Y:     0.0000      Z:     0.0000     Total:     0.0000


*** tstop() called on atlantis at Tue Apr 19 01:47:37 2022
Module time:
	user time   =       0.53 seconds =       0.01 minutes
	system time =       0.00 seconds =       0.00 minutes
	total time  =          1 seconds =       0.02 minutes
Total time:
	user time   =       3.36 seconds =       0.06 minutes
	system time =       0.39 seconds =       0.01 minutes
	total time  =          4 seconds =       0.07 minutes
 MINTS: Wrapper to libmints.
   by Justin Turney

   Calculation information:
      Number of threads:                 1
      Number of atoms:                   4
      Number of AO shells:              28
      Number of SO shells:              14
      Number of primitives:             64
      Number of atomic orbitals:        68
      Number of basis functions:        64

      Number of irreps:                  8
      Integral cutoff                 0.00e+00
      Number of functions per irrep: [  16    7    7    2    2    7    7   16 ]

 OEINTS: Overlap, kinetic, potential, dipole, and quadrupole integrals
         stored in file 35.

      Computing two-electron integrals...done
      Computed 294424 non-zero two-electron integrals.
        Stored in file 33.


*** tstart() called on atlantis
*** at Tue Apr 19 01:47:37 2022


	Wfn Parameters:
	--------------------
	Wavefunction         = CCSD
	Number of irreps     = 8
	Number of MOs        = 64
	Number of active MOs = 64
	AO-Basis             = NONE
	Semicanonical        = false
	Reference            = RHF
	Print Level          = 1

	IRREP	# MOs	# FZDC	# DOCC	# SOCC	# VIRT	# FZVR
	-----	-----	------	------	------	------	------
	 Ag	   16	    0	    3	    0	    13	    0
	 B1g	   7	    0	    0	    0	    7	    0
	 B2g	   7	    0	    0	    0	    7	    0
	 B3g	   2	    0	    0	    0	    2	    0
	 Au	   2	    0	    0	    0	    2	    0
	 B1u	   7	    0	    1	    0	    6	    0
	 B2u	   7	    0	    1	    0	    6	    0
	 B3u	   16	    0	    2	    0	    14	    0
	Transforming integrals...
	IWL integrals will be deleted.
	(OO|OO)...
	Presorting SO-basis two-electron integrals.
	Sorting File: SO Ints (nn|nn) nbuckets = 1
	Transforming the one-electron integrals and constructing Fock matrices
	Starting first half-transformation.
	Sorting half-transformed integrals.
	First half integral transformation complete.
	Starting second half-transformation.
	Two-electron integral transformation complete.
	(OO|OV)...
	Starting second half-transformation.
	Two-electron integral transformation complete.
	(OO|VV)...
	Starting second half-transformation.
	Two-electron integral transformation complete.
	(OV|OO)...
	Starting first half-transformation.
	Sorting half-transformed integrals.
	First half integral transformation complete.
	Starting second half-transformation.
	Two-electron integral transformation complete.
	(OV|OV)...
	Starting second half-transformation.
	Two-electron integral transformation complete.
	(OV|VV)...
	Starting second half-transformation.
	Two-electron integral transformation complete.
	(VV|OO)...
	Starting first half-transformation.
	Sorting half-transformed integrals.
	First half integral transformation complete.
	Starting second half-transformation.
	Two-electron integral transformation complete.
	(VV|OV)...
	Starting second half-transformation.
	Two-electron integral transformation complete.
	(VV|VV)...
	Starting second half-transformation.
	Two-electron integral transformation complete.
	Frozen core energy     =      0.00000000000000

	Size of irrep 0 of <ab|cd> integrals:      0.295 (MW) /      2.359 (MB)
	Size of irrep 1 of <ab|cd> integrals:      0.162 (MW) /      1.293 (MB)
	Size of irrep 2 of <ab|cd> integrals:      0.162 (MW) /      1.293 (MB)
	Size of irrep 3 of <ab|cd> integrals:      0.077 (MW) /      0.618 (MB)
	Size of irrep 4 of <ab|cd> integrals:      0.076 (MW) /      0.609 (MB)
	Size of irrep 5 of <ab|cd> integrals:      0.163 (MW) /      1.306 (MB)
	Size of irrep 6 of <ab|cd> integrals:      0.163 (MW) /      1.306 (MB)
	Size of irrep 7 of <ab|cd> integrals:      0.292 (MW) /      2.333 (MB)
	Total:                                     1.390 (MW) /     11.116 (MB)

	Size of irrep 0 of <ia|bc> integrals:      0.043 (MW) /      0.343 (MB)
	Size of irrep 1 of <ia|bc> integrals:      0.020 (MW) /      0.158 (MB)
	Size of irrep 2 of <ia|bc> integrals:      0.020 (MW) /      0.158 (MB)
	Size of irrep 3 of <ia|bc> integrals:      0.006 (MW) /      0.049 (MB)
	Size of irrep 4 of <ia|bc> integrals:      0.007 (MW) /      0.053 (MB)
	Size of irrep 5 of <ia|bc> integrals:      0.019 (MW) /      0.152 (MB)
	Size of irrep 6 of <ia|bc> integrals:      0.019 (MW) /      0.152 (MB)
	Size of irrep 7 of <ia|bc> integrals:      0.044 (MW) /      0.354 (MB)
	Total:                                     0.177 (MW) /      1.418 (MB)

	Size of irrep 0 of tijab amplitudes:       0.008 (MW) /      0.065 (MB)
	Size of irrep 1 of tijab amplitudes:       0.002 (MW) /      0.013 (MB)
	Size of irrep 2 of tijab amplitudes:       0.002 (MW) /      0.013 (MB)
	Size of irrep 3 of tijab amplitudes:       0.001 (MW) /      0.004 (MB)
	Size of irrep 4 of tijab amplitudes:       0.000 (MW) /      0.000 (MB)
	Size of irrep 5 of tijab amplitudes:       0.002 (MW) /      0.019 (MB)
	Size of irrep 6 of tijab amplitudes:       0.002 (MW) /      0.019 (MB)
	Size of irrep 7 of tijab amplitudes:       0.006 (MW) /      0.052 (MB)
	Total:                                     0.023 (MW) /      0.186 (MB)

	Nuclear Rep. energy          =     24.32321817137924
	SCF energy                   =    -76.82562820168204
	One-electron energy          =   -150.69342153456216
	Two-electron energy          =     49.54457516150082
	Reference energy             =    -76.82562820168211

*** tstop() called on atlantis at Tue Apr 19 01:47:37 2022
Module time:
	user time   =       0.10 seconds =       0.00 minutes
	system time =       0.04 seconds =       0.00 minutes
	total time  =          0 seconds =       0.00 minutes
Total time:
	user time   =       3.59 seconds =       0.06 minutes
	system time =       0.43 seconds =       0.01 minutes
	total time  =          4 seconds =       0.07 minutes
            **************************
            *                        *
            *        CCENERGY        *
            *                        *
            **************************

    Nuclear Rep. energy (wfn)     =   24.323218171379235
    SCF energy          (wfn)     =  -76.825628201682036
    Reference energy    (file100) =  -76.825628201682107

    Input parameters:
    -----------------
    Wave function   =     CCSD
    Reference wfn   =     RHF
    Brueckner       =     No
    Memory (Mbytes) =     524.3
    Maxiter         =     50
    R_Convergence   =     1.0e-07
    E_Convergence   =     1.0e-08
    Restart         =     Yes
    DIIS            =     Yes
    AO Basis        =     NONE
    ABCD            =     NEW
    Cache Level     =     2
    Cache Type      =     LOW
    Print Level     =     1
    Num. of threads =     1
    # Amps to Print =     10
    Print MP2 Amps? =     No
    Analyze T2 Amps =     No
    Print Pair Ener =     No
    Local CC        =     No
    SCS-MP2         =     False
    SCSN-MP2        =     False
    SCS-CCSD        =     False

MP2 correlation energy -0.2726311512968120
                Solving CC Amplitude Equations
                ------------------------------
  Iter             Energy              RMS        T1Diag      D1Diag    New D1Diag    D2Diag
  ----     ---------------------    ---------   ----------  ----------  ----------   --------
     0        -0.272631151296812    0.000e+00    0.000000    0.000000    0.000000    0.165071
     1        -0.276005025016643    5.369e-02    0.008598    0.021573    0.021573    0.167086
     2        -0.284970723396087    2.281e-02    0.009231    0.022886    0.022886    0.178154
     3        -0.287337627495685    9.935e-03    0.010658    0.026394    0.026394    0.184506
     4        -0.287672032902129    3.225e-03    0.010783    0.026694    0.026694    0.186887
     5        -0.287729575869749    7.292e-04    0.010789    0.026723    0.026723    0.187352
     6        -0.287729173167375    1.985e-04    0.010771    0.026686    0.026686    0.187394
     7        -0.287731772424086    4.378e-05    0.010767    0.026679    0.026679    0.187404
     8        -0.287732353752063    1.337e-05    0.010766    0.026677    0.026677    0.187408
     9        -0.287732162114568    3.319e-06    0.010766    0.026677    0.026677    0.187408
    10        -0.287732190530110    8.325e-07    0.010766    0.026677    0.026677    0.187408
    11        -0.287732201284507    2.279e-07    0.010766    0.026677    0.026677    0.187408
    12        -0.287732203220236    6.634e-08    0.010766    0.026677    0.026677    0.187408
    13        -0.287732204914656    1.759e-08    0.010766    0.026677    0.026677    0.187408

    Iterations converged.


    Largest TIA Amplitudes:
              3  34         0.0207154365
              4  40         0.0207154365
              3  31         0.0108318438
              4  37         0.0108318438
              3  35         0.0082727391
              4  41         0.0082727391
              3  36         0.0072443337
              4  42         0.0072443337
              2   3         0.0061130534
              3  33         0.0049180626

    Largest TIjAb Amplitudes:
      3   3  21  21        -0.0719633368
      4   4  14  14        -0.0719633368
      3   3  20  21        -0.0444125779
      3   3  21  20        -0.0444125779
      4   4  13  14        -0.0444125779
      4   4  14  13        -0.0444125779
      3   4  21  14        -0.0443161448
      4   3  14  21        -0.0443161448
      3   3  20  20        -0.0281381716
      4   4  13  13        -0.0281381716

    SCF energy       (wfn)                    =  -76.825628201682036
    Reference energy (file100)                =  -76.825628201682107

    Opposite-spin MP2 correlation energy      =   -0.206487003552852
    Same-spin MP2 correlation energy          =   -0.066144147743960
    MP2 correlation energy                    =   -0.272631151296812
      * MP2 total energy                      =  -77.098259352978914

    Opposite-spin CCSD correlation energy     =   -0.231782090625016
    Same-spin CCSD correlation energy         =   -0.055950114289640
    CCSD correlation energy                   =   -0.287732204914656
      * CCSD total energy                     =  -77.113360406596769


			**************************
			*                        *
			*         CCHBAR         *
			*                        *
			**************************


			**************************
			*        CCLAMBDA        *
			**************************


	Nuclear Rep. energy (wfn)     =   24.323218171379235
	Reference           (wfn)     =                    0
	SCF energy          (wfn)     =  -76.825628201682036
	Reference energy    (CC_INFO) =  -76.825628201682107
	CCSD energy         (CC_INFO) =   -0.287732204914656
	Total CCSD energy   (CC_INFO) =  -77.113360406596769

	Input parameters:
	-----------------
	Maxiter           =     50
	Convergence       = 1.0e-07
	Restart           =     No
	Cache Level       =     2
	Model III         =     No
	DIIS              =     Yes
	AO Basis          =     No
	ABCD              =     NEW
	Local CC          =     No
	Parameters for left-handed eigenvectors:
	    Irr   Root  Ground-State?    EOM energy        R0
	  1   0     0        Yes       0.0000000000   1.0000000000
	Labels for eigenvector 1:
	LIA 0 -1, Lia 0 -1, LIJAB 0 -1, Lijab 0 -1, LIjAb 0 -1, 2LIjAb - LIjbA 0 -1
	Symmetry of left-hand state: Ag
	Symmetry of left-hand eigenvector: Ag

	          Solving Lambda Equations
	          ------------------------
	Iter     PseudoEnergy or Norm         RMS  
	----     ---------------------     --------
	   0        -0.287854783144651    5.192e-08
	   1        -0.277959314792108    1.705e-02
	   2        -0.276720107504153    3.914e-03
	   3        -0.276455897671458    1.124e-03
	   4        -0.276449879349421    2.847e-04
	   5        -0.276445844222019    9.186e-05
	   6        -0.276442498920386    2.821e-05
	   7        -0.276442138248204    1.005e-05
	   8        -0.276441996832724    3.198e-06
	   9        -0.276441962344168    8.602e-07
	  10        -0.276441970958951    2.116e-07
	  11        -0.276441968396298    5.192e-08

	Largest LIA Amplitudes:
	          3  34         0.0144963895
	          4  40         0.0144963895
	          3  31         0.0083978787
	          4  37         0.0083978787
	          2   3         0.0067471659
	          3  35         0.0058299732
	          4  41         0.0058299732
	          3  36         0.0052907351
	          4  42         0.0052907351
	          6  51         0.0044358541

	Largest LIjAb Amplitudes:
	  3   3  21  21        -0.0689329631
	  4   4  14  14        -0.0689329631
	  3   3  20  21        -0.0425615832
	  3   3  21  20        -0.0425615832
	  4   4  13  14        -0.0425615832
	  4   4  14  13        -0.0425615832
	  3   4  21  14        -0.0413040536
	  4   3  14  21        -0.0413040536
	  3   3  20  20        -0.0269629465
	  4   4  13  13        -0.0269629465

	Iterations converged.

	Overlap <L|e^T> =        0.86754038004

			**************************
			*                        *
			*        CCDENSITY       *
			*                        *
			**************************


	Input parameters:
	-----------------
	Wave function    =   CCSD
	Reference wfn    =   RHF
	Dertype          = 1
	Tolerance        = 1.0e-14
	Cache Level      = 2
	AO Basis         = No
	OPDM Only        = No
	Relax OPDM       = Yes
	Compute Xi       = No
	Use Zeta         = No
	Xi connected     = Yes
	Compute NO       = No

	Nuclear Rep. energy (wfn)     =   24.323218171379235
	SCF energy          (wfn)     =  -76.825628201682036
	Reference energy    (file100) =  -76.825628201682107
	CCSD energy         (CC_INFO) =   -0.287732204914656
	Total CCSD energy   (CC_INFO) =  -77.113360406596769
	Number of States = 1

	Ground?  State     EOM Energy       R0
	  Yes     0 Ag    0.0000000000   1.00000000

	Virial Theorem Data:
	--------------------
	Kinetic energy (ref)   =   76.525602450131601
	Kinetic energy (corr)  =    0.350251790930651
	Kinetic energy (total) =   76.875854241062257
	-V/T (ref)             =    2.003920593134121
	-V/T (corr)            =    1.821501024020819
	-V/T (total)           =    2.003089476765874
  Cartesian Displacement SALCs
  By SALC:
  Number of SALCs: 2, nirreps: Ag
  Project out translations: False
  Project out rotations: False
	irrep = 0, ncomponent = 2
		0: atom 0, direction x, coef 0.707107
		1: atom 1, direction x, coef -0.707107
	irrep = 0, ncomponent = 2
		0: atom 2, direction x, coef 0.707107
		1: atom 3, direction x, coef -0.707107

  By Atomic Center:
  Number of atomic centers: 4
   Atomic Center 0:
	x component, size = 1
		0: salc 0, irrep 0, coef 0.707107
	y component, size = 0
	z component, size = 0
   Atomic Center 1:
	x component, size = 1
		0: salc 0, irrep 0, coef -0.707107
	y component, size = 0
	z component, size = 0
   Atomic Center 2:
	x component, size = 1
		0: salc 1, irrep 0, coef 0.707107
	y component, size = 0
	z component, size = 0
   Atomic Center 3:
	x component, size = 1
		0: salc 1, irrep 0, coef -0.707107
	y component, size = 0
	z component, size = 0

    Molecular point group: d2h
    Full point group: D_inf_h

    Geometry (in Bohr), charge = 0, multiplicity = 1:

       Center              X                  Y                   Z       
    ------------   -----------------  -----------------  -----------------
         C           -1.161161115049    -0.000000000000     0.000000000000
         C            1.161161115049     0.000000000000     0.000000000000
         H           -3.192182062907    -0.000000000000     0.000000000000
         H            3.192182062907     0.000000000000     0.000000000000

	Presorting MO-basis TPDM.
	Sorting File: MO TPDM (AA|AA) nbuckets = 1
	Starting first half-transformation.
	Sorting half-transformed TPDM.
	First half integral transformation complete.


  -Nuclear Repulsion Energy 1st Derivatives:
     Atom            X                  Y                   Z
    ------   -----------------  -----------------  -----------------
       1        5.537163209075     0.000000000000     0.000000000000
       2       -5.537163209075    -0.000000000000     0.000000000000
       3        1.795659009002     0.000000000000     0.000000000000
       4       -1.795659009002    -0.000000000000     0.000000000000


  -Core Hamiltonian Gradient:
     Atom            X                  Y                   Z
    ------   -----------------  -----------------  -----------------
       1      -15.144173869086    -0.000000000000     0.000000000000
       2       15.144173869086     0.000000000000     0.000000000000
       3       -3.882901767139    -0.000000000000     0.000000000000
       4        3.882901767139     0.000000000000     0.000000000000


  -Lagrangian contribution to gradient:
     Atom            X                  Y                   Z
    ------   -----------------  -----------------  -----------------
       1        0.452853501553     0.000000000000     0.000000000000
       2       -0.452853501553    -0.000000000000     0.000000000000
       3        0.109122348434     0.000000000000     0.000000000000
       4       -0.109122348434    -0.000000000000     0.000000000000


  -Two-electron contribution to gradient:
     Atom            X                  Y                   Z
    ------   -----------------  -----------------  -----------------
       1        9.140965034810     0.000000000000     0.000000000000
       2       -9.140965034810    -0.000000000000     0.000000000000
       3        1.979304011249     0.000000000000     0.000000000000
       4       -1.979304011249    -0.000000000000     0.000000000000


  -Total gradient:
     Atom            X                  Y                   Z
    ------   -----------------  -----------------  -----------------
       1       -0.013192123648    -0.000000000000     0.000000000000
       2        0.013192123648     0.000000000000     0.000000000000
       3        0.001183601547     0.000000000000     0.000000000000
       4       -0.001183601547    -0.000000000000     0.000000000000


  //>>>>>>>>>>>>>>>>>>>>>>>>>>>>>>>>>>>//
  //    Loading displacement 2 of 10   //
  //<<<<<<<<<<<<<<<<<<<<<<<<<<<<<<<<<<<//
gradient() will perform analytic gradient computation.

*** tstart() called on atlantis
*** at Tue Apr 19 01:47:39 2022

   => Loading Basis Set <=

    Name: AUG-CC-PVDZ
    Role: ORBITAL
    Keyword: BASIS
    atoms 1-2 entry C          line   178 file /home/akrom/software/anaconda3/envs/ffpenv/share/psi4/basis/aug-cc-pvdz.gbs 
    atoms 3-4 entry H          line    36 file /home/akrom/software/anaconda3/envs/ffpenv/share/psi4/basis/aug-cc-pvdz.gbs 


         ---------------------------------------------------------
                                   SCF
               by Justin Turney, Rob Parrish, Andy Simmonett
                          and Daniel G. A. Smith
                              RHF Reference
                        1 Threads,    500 MiB Core
         ---------------------------------------------------------

  ==> Geometry <==

    Molecular point group: d2h
    Full point group: D_inf_h

    Geometry (in Angstrom), charge = 0, multiplicity = 1:

       Center              X                  Y                   Z               Mass       
    ------------   -----------------  -----------------  -----------------  -----------------
         C           -0.615000089229    -0.000000000000     0.000000000000    12.000000000000
         C            0.615000089229     0.000000000000     0.000000000000    12.000000000000
         H           -1.689230000000    -0.000000000000     0.000000000000     1.007825032230
         H            1.689230000000     0.000000000000     0.000000000000     1.007825032230

  Running in d2h symmetry.

  Rotational constants: A = ************  B =      1.13680  C =      1.13680 [cm^-1]
  Rotational constants: A = ************  B =  34080.32226  C =  34080.32226 [MHz]
  Nuclear repulsion =   24.311929094340595

  Charge       = 0
  Multiplicity = 1
  Electrons    = 14
  Nalpha       = 7
  Nbeta        = 7

  ==> Algorithm <==

  SCF Algorithm Type is PK.
  DIIS enabled.
  MOM disabled.
  Fractional occupation disabled.
  Guess Type is SAD.
  Energy threshold   = 1.00e-10
  Density threshold  = 1.00e-10
  Integral threshold = 0.00e+00

  ==> Primary Basis <==

  Basis Set: AUG-CC-PVDZ
    Blend: AUG-CC-PVDZ
    Number of shells: 28
    Number of basis function: 64
    Number of Cartesian functions: 68
    Spherical Harmonics?: true
    Max angular momentum: 2

  ==> Pre-Iterations <==

   -------------------------------------------------------
    Irrep   Nso     Nmo     Nalpha   Nbeta   Ndocc  Nsocc
   -------------------------------------------------------
     Ag        16      16       0       0       0       0
     B1g        7       7       0       0       0       0
     B2g        7       7       0       0       0       0
     B3g        2       2       0       0       0       0
     Au         2       2       0       0       0       0
     B1u        7       7       0       0       0       0
     B2u        7       7       0       0       0       0
     B3u       16      16       0       0       0       0
   -------------------------------------------------------
    Total      64      64       7       7       7       0
   -------------------------------------------------------

  ==> Integral Setup <==

  Using in-core PK algorithm.
   Calculation information:
      Number of atoms:                   4
      Number of AO shells:              28
      Number of primitives:             64
      Number of atomic orbitals:        68
      Number of basis functions:        64

      Integral cutoff                 1.00e-12
      Number of threads:                 1

  Performing in-core PK
  Using 4328480 doubles for integral storage.
  We computed 82621 shell quartets total.
  Whereas there are 82621 unique shell quartets.

  ==> DiskJK: Disk-Based J/K Matrices <==

    J tasked:                  Yes
    K tasked:                  Yes
    wK tasked:                  No
    Memory [MiB]:              375
    Schwarz Cutoff:          1E-12

    OpenMP threads:              1

  Minimum eigenvalue in the overlap matrix is 3.8709994698E-05.
  Using Symmetric Orthogonalization.

  SCF Guess: Superposition of Atomic Densities via on-the-fly atomic UHF.

  ==> Iterations <==

                        Total Energy        Delta E     RMS |[F,P]|

   @RHF iter SAD:   -75.84190153743083   -7.58419e+01   0.00000e+00 
   @RHF iter   1:   -76.78340004384047   -9.41499e-01   9.64823e-03 DIIS
   @RHF iter   2:   -76.82102536293114   -3.76253e-02   3.21704e-03 DIIS
   @RHF iter   3:   -76.82533737225531   -4.31201e-03   4.23761e-04 DIIS
   @RHF iter   4:   -76.82547964629047   -1.42274e-04   4.31271e-05 DIIS
   @RHF iter   5:   -76.82548122187440   -1.57558e-06   6.69327e-06 DIIS
   @RHF iter   6:   -76.82548126482799   -4.29536e-08   1.19238e-06 DIIS
   @RHF iter   7:   -76.82548126627165   -1.44367e-09   2.24471e-07 DIIS
   @RHF iter   8:   -76.82548126632898   -5.73266e-11   1.83052e-08 DIIS
   @RHF iter   9:   -76.82548126632925   -2.70006e-13   1.69252e-09 DIIS
   @RHF iter  10:   -76.82548126632918    7.10543e-14   2.04635e-10 DIIS
   @RHF iter  11:   -76.82548126632932   -1.42109e-13   1.31341e-11 DIIS
  Energy and wave function converged.


  ==> Post-Iterations <==

    Orbital Energies [Eh]
    ---------------------

    Doubly Occupied:                                                      

       1Ag   -11.262565     1B3u  -11.259413     2Ag    -1.025713  
       2B3u   -0.768033     3Ag    -0.676671     1B1u   -0.405105  
       1B2u   -0.405105  

    Virtual:                                                              

       4Ag     0.037380     3B3u    0.039622     1B1g    0.106149  
       1B2g    0.106149     2B1u    0.120955     2B2u    0.120955  
       5Ag     0.130630     4B3u    0.138274     6Ag     0.177523  
       2B1g    0.225363     2B2g    0.225363     5B3u    0.254980  
       6B3u    0.329730     7Ag     0.355583     3B1u    0.387953  
       3B2u    0.387953     1B3g    0.426909     8Ag     0.426909  
       3B2g    0.485553     3B1g    0.485553     9Ag     0.532972  
       7B3u    0.535218    10Ag     0.573658     1Au     0.594954  
       8B3u    0.594954     9B3u    0.667708     4B1u    0.773213  
       4B2u    0.773213    10B3u    0.833607     5B1u    0.846335  
       5B2u    0.846335     4B2g    0.855511     4B1g    0.855511  
      11Ag     0.989494     5B2g    1.182672     5B1g    1.182672  
      11B3u    1.224103    12Ag     1.387308     2B3g    1.564092  
      13Ag     1.564092    12B3u    1.627907     6B1u    1.642139  
       6B2u    1.642139    14Ag     1.680395     2Au     1.891749  
      13B3u    1.891749     6B2g    1.926112     6B1g    1.926112  
       7B2u    2.134625     7B1u    2.134625    14B3u    2.466351  
      15Ag     2.535801    15B3u    2.611940     7B2g    2.758288  
       7B1g    2.758288    16Ag     3.772862    16B3u    3.976217  

    Final Occupation by Irrep:
             Ag   B1g   B2g   B3g    Au   B1u   B2u   B3u 
    DOCC [     3,    0,    0,    0,    0,    1,    1,    2 ]

  @RHF Final Energy:   -76.82548126632932

   => Energetics <=

    Nuclear Repulsion Energy =             24.3119290943405950
    One-Electron Energy =                -150.6696108811688077
    Two-Electron Energy =                  49.5322005204988898
[...]
     7        -0.287731856242755    4.378e-05    0.010767    0.026679    0.026679    0.187404
     8        -0.287732437608889    1.337e-05    0.010766    0.026677    0.026677    0.187408
     9        -0.287732245972620    3.319e-06    0.010766    0.026677    0.026677    0.187408
    10        -0.287732274386274    8.326e-07    0.010766    0.026677    0.026677    0.187408
    11        -0.287732285142558    2.279e-07    0.010766    0.026677    0.026677    0.187408
    12        -0.287732287077957    6.634e-08    0.010766    0.026677    0.026677    0.187408
    13        -0.287732288772583    1.759e-08    0.010766    0.026677    0.026677    0.187408

    Iterations converged.


    Largest TIA Amplitudes:
              5  37         0.0207147645
              6  50         0.0207147645
              5  32         0.0108318483
              6  45         0.0108318483
              5  40         0.0082727460
              6  53         0.0082727460
              5  42         0.0072442254
              6  55         0.0072442254
              4   7         0.0061123706
              5  36         0.0049179518

    Largest TIjAb Amplitudes:
      5   5  33  33        -0.0719634002
      6   6  46  46        -0.0719634002
      5   5  31  33        -0.0444125632
      5   5  33  31        -0.0444125632
      6   6  44  46        -0.0444125632
      6   6  46  44        -0.0444125632
      5   6  33  46        -0.0443161786
      6   5  46  33        -0.0443161786
      5   5  31  31        -0.0281381428
      6   6  44  44        -0.0281381428

    SCF energy       (wfn)                    =  -76.825622571449998
    Reference energy (file100)                =  -76.825622571449983

    Opposite-spin MP2 correlation energy      =   -0.206487048295040
    Same-spin MP2 correlation energy          =   -0.066144157907711
    MP2 correlation energy                    =   -0.272631206202752
      * MP2 total energy                      =  -77.098253777652729

    Opposite-spin CCSD correlation energy     =   -0.231782185097146
    Same-spin CCSD correlation energy         =   -0.055950103675436
    CCSD correlation energy                   =   -0.287732288772583
      * CCSD total energy                     =  -77.113354860222572


			**************************
			*                        *
			*         CCHBAR         *
			*                        *
			**************************


			**************************
			*        CCLAMBDA        *
			**************************


	Nuclear Rep. energy (wfn)     =   24.323239383855910
	Reference           (wfn)     =                    0
	SCF energy          (wfn)     =  -76.825622571449998
	Reference energy    (CC_INFO) =  -76.825622571449983
	CCSD energy         (CC_INFO) =   -0.287732288772583
	Total CCSD energy   (CC_INFO) =  -77.113354860222572

	Input parameters:
	-----------------
	Maxiter           =     50
	Convergence       = 1.0e-07
	Restart           =     No
	Cache Level       =     2
	Model III         =     No
	DIIS              =     Yes
	AO Basis          =     No
	ABCD              =     NEW
	Local CC          =     No
	Parameters for left-handed eigenvectors:
	    Irr   Root  Ground-State?    EOM energy        R0
	  1   0     0        Yes       0.0000000000   1.0000000000
	Labels for eigenvector 1:
	LIA 0 -1, Lia 0 -1, LIJAB 0 -1, Lijab 0 -1, LIjAb 0 -1, 2LIjAb - LIjbA 0 -1
	Symmetry of left-hand state: A1
	Symmetry of left-hand eigenvector: A1

	          Solving Lambda Equations
	          ------------------------
	Iter     PseudoEnergy or Norm         RMS  
	----     ---------------------     --------
	   0        -0.287854867417223    5.192e-08
	   1        -0.277959377337808    1.705e-02
	   2        -0.276720168513032    3.914e-03
	   3        -0.276455958076586    1.124e-03
	   4        -0.276449938091057    2.847e-04
	   5        -0.276445903626922    9.186e-05
	   6        -0.276442558110112    2.822e-05
	   7        -0.276442197339070    1.005e-05
	   8        -0.276442055927675    3.198e-06
	   9        -0.276442021436666    8.602e-07
	  10        -0.276442030051596    2.116e-07
	  11        -0.276442027488469    5.193e-08

	Largest LIA Amplitudes:
	          5  37         0.0144959571
	          6  50         0.0144959571
	          5  32         0.0083978875
	          6  45         0.0083978875
	          4   7         0.0067463245
	          5  40         0.0058299788
	          6  53         0.0058299788
	          5  42         0.0052906664
	          6  55         0.0052906664
	          3  16         0.0044357485

	Largest LIjAb Amplitudes:
	  5   5  33  33        -0.0689330261
	  6   6  46  46        -0.0689330261
	  5   5  31  33        -0.0425615699
	  5   5  33  31        -0.0425615699
	  6   6  44  46        -0.0425615699
	  6   6  46  44        -0.0425615699
	  5   6  33  46        -0.0413040850
	  6   5  46  33        -0.0413040850
	  5   5  31  31        -0.0269629186
	  6   6  44  44        -0.0269629186

	Iterations converged.

	Overlap <L|e^T> =        0.86754014250

			**************************
			*                        *
			*        CCDENSITY       *
			*                        *
			**************************


	Input parameters:
	-----------------
	Wave function    =   CCSD
	Reference wfn    =   RHF
	Dertype          = 1
	Tolerance        = 1.0e-14
	Cache Level      = 2
	AO Basis         = No
	OPDM Only        = No
	Relax OPDM       = Yes
	Compute Xi       = No
	Use Zeta         = No
	Xi connected     = Yes
	Compute NO       = No

	Nuclear Rep. energy (wfn)     =   24.323239383855910
	SCF energy          (wfn)     =  -76.825622571449998
	Reference energy    (file100) =  -76.825622571449983
	CCSD energy         (CC_INFO) =   -0.287732288772583
	Total CCSD energy   (CC_INFO) =  -77.113354860222572
	Number of States = 1

	Ground?  State     EOM Energy       R0
	  Yes     0 A1    0.0000000000   1.00000000

	Virial Theorem Data:
	--------------------
	Kinetic energy (ref)   =   76.525618888988319
	Kinetic energy (corr)  =    0.350252007284650
	Kinetic energy (total) =   76.875870896272971
	-V/T (ref)             =    2.003920303903675
	-V/T (corr)            =    1.821500755993505
	-V/T (total)           =    2.003089187298705
  Cartesian Displacement SALCs
  By SALC:
  Number of SALCs: 4, nirreps: A1
  Project out translations: False
  Project out rotations: False
	irrep = 0, ncomponent = 1
		0: atom 0, direction x, coef 1.000000
	irrep = 0, ncomponent = 1
		0: atom 1, direction x, coef 1.000000
	irrep = 0, ncomponent = 1
		0: atom 2, direction x, coef 1.000000
	irrep = 0, ncomponent = 1
		0: atom 3, direction x, coef 1.000000

  By Atomic Center:
  Number of atomic centers: 4
   Atomic Center 0:
	x component, size = 1
		0: salc 0, irrep 0, coef 1.000000
	y component, size = 0
	z component, size = 0
   Atomic Center 1:
	x component, size = 1
		0: salc 1, irrep 0, coef 1.000000
	y component, size = 0
	z component, size = 0
   Atomic Center 2:
	x component, size = 1
		0: salc 2, irrep 0, coef 1.000000
	y component, size = 0
	z component, size = 0
   Atomic Center 3:
	x component, size = 1
		0: salc 3, irrep 0, coef 1.000000
	y component, size = 0
	z component, size = 0

    Molecular point group: c2v
    Full point group: C_inf_v

    Geometry (in Bohr), charge = 0, multiplicity = 1:

       Center              X                  Y                   Z       
    ------------   -----------------  -----------------  -----------------
         C           -1.161445204175     0.000000000000     0.000000000000
         C            1.160877025923     0.000000000000     0.000000000000
         H           -3.188799462353     0.000000000000     0.000000000000
         H            3.195564663461     0.000000000000     0.000000000000

	Presorting MO-basis TPDM.
	Sorting File: MO TPDM (AA|AA) nbuckets = 1
	Starting first half-transformation.
	Sorting half-transformed TPDM.
	First half integral transformation complete.


  -Nuclear Repulsion Energy 1st Derivatives:
     Atom            X                  Y                   Z
    ------   -----------------  -----------------  -----------------
       1        5.531364458616     0.000000000000     0.000000000000
       2       -5.542934862809     0.000000000000     0.000000000000
       3        1.801459107056     0.000000000000     0.000000000000
       4       -1.789888702864     0.000000000000     0.000000000000


  -Core Hamiltonian Gradient:
     Atom            X                  Y                   Z
    ------   -----------------  -----------------  -----------------
       1      -15.152330312450     0.000000000000     0.000000000000
       2       15.136284978949     0.000000000000     0.000000000000
       3       -3.874814609895     0.000000000000     0.000000000000
       4        3.890859943395     0.000000000000     0.000000000000


  -Lagrangian contribution to gradient:
     Atom            X                  Y                   Z
    ------   -----------------  -----------------  -----------------
       1        0.454986083381     0.000000000000     0.000000000000
       2       -0.450771756861     0.000000000000     0.000000000000
       3        0.107005625632     0.000000000000     0.000000000000
       4       -0.111219952152     0.000000000000     0.000000000000


  -Two-electron contribution to gradient:
     Atom            X                  Y                   Z
    ------   -----------------  -----------------  -----------------
       1        9.151266458278     0.000000000000     0.000000000000
       2       -9.130890349379     0.000000000000     0.000000000000
       3        1.969054476108     0.000000000000     0.000000000000
       4       -1.989430585007     0.000000000000     0.000000000000


  -Total gradient:
     Atom            X                  Y                   Z
    ------   -----------------  -----------------  -----------------
       1       -0.014713312174     0.000000000000     0.000000000000
       2        0.011688009899     0.000000000000     0.000000000000
       3        0.002704598902     0.000000000000     0.000000000000
       4        0.000320703373     0.000000000000     0.000000000000


         ----------------------------------------------------------
                                   FINDIF
                     R. A. King and Jonathon Misiewicz
         ---------------------------------------------------------

  Computing second-derivative from gradients using projected, 
  symmetry-adapted, cartesian coordinates.

  10 gradients passed in, including the reference geometry.
  Generating complete list of displacements from unique ones.

    Operation 3 takes plus displacements of irrep B1g to minus ones.
    Operation 2 takes plus displacements of irrep B2g to minus ones.
    Operation 3 takes plus displacements of irrep B1u to minus ones.
    Operation 2 takes plus displacements of irrep B2u to minus ones.
    Operation 2 takes plus displacements of irrep B3u to minus ones.

-------------------------------------------------------------


  ==> Harmonic Vibrational Analysis <==

  non-mass-weighted Hessian:       Symmetric? True   Hermitian? True   Lin Dep Dim?  5 (0)
  projection of translations (True) and rotations (True) removed 5 degrees of freedom (5)
  total projector:                 Symmetric? True   Hermitian? True   Lin Dep Dim?  5 (5)
  mass-weighted Hessian:           Symmetric? True   Hermitian? True   Lin Dep Dim?  5 (0)
  pre-proj  low-frequency mode:    0.0000i [cm^-1]
  pre-proj  low-frequency mode:    0.0000i [cm^-1]
  pre-proj  low-frequency mode:    0.0000  [cm^-1]
  pre-proj  low-frequency mode:    0.0000  [cm^-1]
  pre-proj  low-frequency mode:    0.0000  [cm^-1]
  pre-proj  all modes:['0.0000i' '0.0000i' '0.0000' '0.0000' '0.0000' '420.9442' '420.9442'
 '704.2087' '704.2087' '1986.8175' '3424.1733' '3518.9254']
  projected mass-weighted Hessian: Symmetric? True   Hermitian? True   Lin Dep Dim?  5 (5)
  post-proj low-frequency mode:    0.0000i [cm^-1] (TR)
  post-proj low-frequency mode:    0.0000i [cm^-1] (TR)
  post-proj low-frequency mode:    0.0000i [cm^-1] (TR)
  post-proj low-frequency mode:    0.0000i [cm^-1] (TR)
  post-proj low-frequency mode:    0.0001  [cm^-1] (TR)
  post-proj  all modes:['0.0000i' '0.0000i' '0.0000i' '0.0000i' '0.0001' '420.9442' '420.9442'
 '704.2087' '704.2087' '1986.8175' '3424.1733' '3518.9254']

  Vibration                       6                   7                   8           
  Freq [cm^-1]                 420.9442            420.9442            704.2087       
  Irrep                          B1g                 B2g                 B2u          
  Reduced mass [u]              1.5641              1.5641              1.0848        
  Force const [mDyne/A]         0.1633              0.1633              0.3170        
  Turning point v=0 [a0]        0.4276              0.4276              0.3970        
  RMS dev v=0 [a0 u^1/2]        0.3782              0.3782              0.2924        
  Char temp [K]                605.6450            605.6450           1013.1995       
  ----------------------------------------------------------------------------------
      1   C                0.00 -0.16 -0.00    0.00  0.00 -0.16    0.00 -0.06  0.00   
      2   C                0.00  0.16  0.00    0.00 -0.00  0.16    0.00 -0.06  0.00   
      3   H                0.00  0.69  0.00    0.00 -0.00  0.69    0.00  0.70 -0.00   
      4   H                0.00 -0.69 -0.00    0.00  0.00 -0.69   -0.00  0.70 -0.00   

  Vibration                       9                   10                  11          
  Freq [cm^-1]                 704.2087           1986.8175           3424.1733       
  Irrep                          B1u                  Ag                 B3u          
  Reduced mass [u]              1.0848              4.0188              1.0848        
  Force const [mDyne/A]         0.3170              9.3467              7.4941        
  Turning point v=0 [a0]        0.3970              0.1228              0.1800        
  RMS dev v=0 [a0 u^1/2]        0.2924              0.1741              0.1326        
  Char temp [K]               1013.1995           2858.5880           4926.6230       
  ----------------------------------------------------------------------------------
      1   C                0.00 -0.00 -0.06    0.37  0.00  0.00   -0.06  0.00 -0.00   
      2   C                0.00 -0.00 -0.06   -0.37  0.00 -0.00   -0.06  0.00 -0.00   
      3   H                0.00  0.00  0.70    0.60 -0.00  0.00    0.70 -0.00  0.00   
      4   H               -0.00  0.00  0.70   -0.60  0.00 -0.00    0.70  0.00 -0.00   

  Vibration                       12          
  Freq [cm^-1]                3518.9254       
  Irrep                           Ag          
  Reduced mass [u]              1.2096        
  Force const [mDyne/A]         8.8248        
  Turning point v=0 [a0]        0.1682        
  RMS dev v=0 [a0 u^1/2]        0.1308        
  Char temp [K]               5062.9502       
  ----------------------------------------------------------------------------------
      1   C               -0.10  0.00 -0.00   
      2   C                0.10 -0.00  0.00   
      3   H                0.70  0.00 -0.00   
      4   H               -0.70 -0.00  0.00   

  ==> Thermochemistry Components <==

  Entropy, S
    Electronic S            0.000 [cal/(mol K)]        0.000 [J/(mol K)]       0.00000000 [mEh/K] (multiplicity = 1)
    Translational S        35.704 [cal/(mol K)]      149.387 [J/(mol K)]       0.05689862 [mEh/K] (mol. weight = 26.0157 [u], P = 101325.00 [Pa])
    Rotational S           10.952 [cal/(mol K)]       45.824 [J/(mol K)]       0.01745345 [mEh/K] (symmetry no. = 2)
    Vibrational S           2.381 [cal/(mol K)]        9.963 [J/(mol K)]       0.00379477 [mEh/K]
  Total S                  49.038 [cal/(mol K)]      205.174 [J/(mol K)]       0.07814683 [mEh/K]
  Correction S              0.000 [cal/(mol K)]        0.000 [J/(mol K)]       0.00000000 [mEh/K]

  Constant volume heat capacity, Cv
    Electronic Cv           0.000 [cal/(mol K)]        0.000 [J/(mol K)]       0.00000000 [mEh/K]
    Translational Cv        2.981 [cal/(mol K)]       12.472 [J/(mol K)]       0.00475022 [mEh/K]
    Rotational Cv           1.987 [cal/(mol K)]        8.314 [J/(mol K)]       0.00316681 [mEh/K]
    Vibrational Cv          4.504 [cal/(mol K)]       18.846 [J/(mol K)]       0.00717818 [mEh/K]
  Total Cv                  9.472 [cal/(mol K)]       39.632 [J/(mol K)]       0.01509520 [mEh/K]
  Correction Cv             0.000 [cal/(mol K)]        0.000 [J/(mol K)]       0.00000000 [mEh/K]

  Constant pressure heat capacity, Cp
    Electronic Cp           0.000 [cal/(mol K)]        0.000 [J/(mol K)]       0.00000000 [mEh/K]
    Translational Cp        4.968 [cal/(mol K)]       20.786 [J/(mol K)]       0.00791703 [mEh/K]
    Rotational Cp           1.987 [cal/(mol K)]        8.314 [J/(mol K)]       0.00316681 [mEh/K]
    Vibrational Cp          4.504 [cal/(mol K)]       18.846 [J/(mol K)]       0.00717818 [mEh/K]
  Total Cp                 11.460 [cal/(mol K)]       47.947 [J/(mol K)]       0.01826202 [mEh/K]
  Correction Cp             0.000 [cal/(mol K)]        0.000 [J/(mol K)]       0.00000000 [mEh/K]

  ==> Thermochemistry Energy Analysis <==

  Raw electronic energy, E0
  Total E0, Electronic energy at well bottom at 0 [K]                  -77.11336041 [Eh]

  Zero-point energy, ZPE_vib = Sum_i nu_i / 2
    Electronic ZPE          0.000 [kcal/mol]        0.000 [kJ/mol]       0.00000000 [Eh]
    Translational ZPE       0.000 [kcal/mol]        0.000 [kJ/mol]       0.00000000 [Eh]
    Rotational ZPE          0.000 [kcal/mol]        0.000 [kJ/mol]       0.00000000 [Eh]
    Vibrational ZPE        15.983 [kcal/mol]       66.873 [kJ/mol]       0.02547042 [Eh]        5590.111 [cm^-1]
  Correction ZPE           15.983 [kcal/mol]       66.873 [kJ/mol]       0.02547042 [Eh]        5590.111 [cm^-1]
  Total ZPE, Electronic energy at 0 [K]                                -77.08788999 [Eh]

  Thermal Energy, E (includes ZPE)
    Electronic E            0.000 [kcal/mol]        0.000 [kJ/mol]       0.00000000 [Eh]
    Translational E         0.889 [kcal/mol]        3.718 [kJ/mol]       0.00141628 [Eh]
    Rotational E            0.592 [kcal/mol]        2.479 [kJ/mol]       0.00094418 [Eh]
    Vibrational E          16.486 [kcal/mol]       68.977 [kJ/mol]       0.02627206 [Eh]
  Correction E             17.967 [kcal/mol]       75.175 [kJ/mol]       0.02863252 [Eh]
  Total E, Electronic energy at  298.15 [K]                            -77.08472789 [Eh]

  Enthalpy, H_trans = E_trans + k_B * T
    Electronic H            0.000 [kcal/mol]        0.000 [kJ/mol]       0.00000000 [Eh]
    Translational H         1.481 [kcal/mol]        6.197 [kJ/mol]       0.00236046 [Eh]
    Rotational H            0.592 [kcal/mol]        2.479 [kJ/mol]       0.00094418 [Eh]
    Vibrational H          16.486 [kcal/mol]       68.977 [kJ/mol]       0.02627206 [Eh]
  Correction H             18.560 [kcal/mol]       77.654 [kJ/mol]       0.02957671 [Eh]
  Total H, Enthalpy at  298.15 [K]                                     -77.08378370 [Eh]

  Gibbs free energy, G = H - T * S
    Electronic G            0.000 [kcal/mol]        0.000 [kJ/mol]       0.00000000 [Eh]
    Translational G        -9.164 [kcal/mol]      -38.342 [kJ/mol]      -0.01460386 [Eh]
    Rotational G           -2.673 [kcal/mol]      -11.183 [kJ/mol]      -0.00425956 [Eh]
    Vibrational G          15.776 [kcal/mol]       66.007 [kJ/mol]       0.02514065 [Eh]
  Correction G              3.939 [kcal/mol]       16.481 [kJ/mol]       0.00627723 [Eh]
  Total G, Free enthalpy at  298.15 [K]                                -77.10708318 [Eh]

    Psi4 stopped on: Tuesday, 19 April 2022 01:48AM
    Psi4 wall time for execution: 0:00:29.61

*** Psi4 exiting successfully. Buy a developer a beer!
