
    -----------------------------------------------------------------------
          Psi4: An Open-Source Ab Initio Electronic Structure Package
                               Psi4 1.3.2 release

                         Git: Rev {HEAD} ecbda83 


    R. M. Parrish, L. A. Burns, D. G. A. Smith, A. C. Simmonett,
    A. E. DePrince III, E. G. Hohenstein, U. Bozkaya, A. Yu. Sokolov,
    R. Di Remigio, R. M. Richard, J. F. Gonthier, A. M. James,
    H. R. McAlexander, A. Kumar, M. Saitow, X. Wang, B. P. Pritchard,
    P. Verma, H. F. Schaefer III, K. Patkowski, R. A. King, E. F. Valeev,
    F. A. Evangelista, J. M. Turney, T. D. Crawford, and C. D. Sherrill,
    J. Chem. Theory Comput. 13(7) pp 3185--3197 (2017).
    (doi: 10.1021/acs.jctc.7b00174)


                         Additional Contributions by
    P. Kraus, H. Kruse, M. H. Lechner, M. C. Schieber, R. A. Shaw,
    A. Alenaizan, R. Galvelis, Z. L. Glick, S. Lehtola, and J. P. Misiewicz

    -----------------------------------------------------------------------


    Psi4 started on: Tuesday, 19 April 2022 10:10PM

    Process ID: 10181
    Host:       atlantis
    PSIDATADIR: /home/akrom/software/anaconda3/envs/ffpenv/share/psi4
    Memory:     500.0 MiB
    Threads:    1
    
  ==> Input File <==

--------------------------------------------------------------------------
set basis  6-31++G**
molecule {
0 1
   C       -1.22151       -0.69325        0.00000
   C       -1.21114        0.71122        0.00000
   C       -0.01037       -1.40452        0.00000
   C        0.01037        1.40452        0.00000
   C        1.21114       -0.71122        0.00000
   C        1.22151        0.69325        0.00000
   H       -2.17311       -1.23332        0.00000
   H       -2.15464        1.26533        0.00000
   H       -0.01848       -2.49865        0.00000
   H        0.01848        2.49865        0.00000
   H        2.15464       -1.26533        0.00000
   H        2.17311        1.23332        0.00000
}
energy('MP2')
frequencies('MP2')
--------------------------------------------------------------------------
    SCF Algorithm Type (re)set to DF.

*** tstart() called on atlantis
*** at Tue Apr 19 22:10:30 2022

   => Loading Basis Set <=

    Name: 6-31++G**
    Role: ORBITAL
    Keyword: BASIS
    atoms 1-6  entry C          line   115 file /home/akrom/software/anaconda3/envs/ffpenv/share/psi4/basis/6-31ppgss.gbs 
    atoms 7-12 entry H          line    46 file /home/akrom/software/anaconda3/envs/ffpenv/share/psi4/basis/6-31ppgss.gbs 


         ---------------------------------------------------------
                                   SCF
               by Justin Turney, Rob Parrish, Andy Simmonett
                          and Daniel G. A. Smith
                              RHF Reference
                        1 Threads,    500 MiB Core
         ---------------------------------------------------------

  ==> Geometry <==

    Molecular point group: c2h
    Full point group: C2h

    Geometry (in Angstrom), charge = 0, multiplicity = 1:

       Center              X                  Y                   Z               Mass       
    ------------   -----------------  -----------------  -----------------  -----------------
         C           -1.221510000000    -0.693250000000     0.000000000000    12.000000000000
         C           -1.211140000000     0.711220000000     0.000000000000    12.000000000000
         C           -0.010370000000    -1.404520000000     0.000000000000    12.000000000000
         C            0.010370000000     1.404520000000     0.000000000000    12.000000000000
         C            1.211140000000    -0.711220000000     0.000000000000    12.000000000000
         C            1.221510000000     0.693250000000     0.000000000000    12.000000000000
         H           -2.173110000000    -1.233320000000     0.000000000000     1.007825032230
         H           -2.154640000000     1.265330000000     0.000000000000     1.007825032230
         H           -0.018480000000    -2.498650000000     0.000000000000     1.007825032230
         H            0.018480000000     2.498650000000     0.000000000000     1.007825032230
         H            2.154640000000    -1.265330000000     0.000000000000     1.007825032230
         H            2.173110000000     1.233320000000     0.000000000000     1.007825032230

  Running in c2h symmetry.

  Rotational constants: A =      0.18753  B =      0.18752  C =      0.09376 [cm^-1]
  Rotational constants: A =   5621.92707  B =   5621.82252  C =   2810.93740 [MHz]
  Nuclear repulsion =  202.013308935380167

  Charge       = 0
  Multiplicity = 1
  Electrons    = 42
  Nalpha       = 21
  Nbeta        = 21

  ==> Algorithm <==

  SCF Algorithm Type is DF.
  DIIS enabled.
  MOM disabled.
  Fractional occupation disabled.
  Guess Type is SAD.
  Energy threshold   = 1.00e-08
  Density threshold  = 1.00e-08
  Integral threshold = 0.00e+00

  ==> Primary Basis <==

  Basis Set: 6-31++G**
    Blend: 6-31++G**
    Number of shells: 72
    Number of basis function: 150
    Number of Cartesian functions: 150
    Spherical Harmonics?: false
    Max angular momentum: 2

   => Loading Basis Set <=

    Name: (6-31++G** AUX)
    Role: JKFIT
    Keyword: DF_BASIS_SCF
    atoms 1-6  entry C          line   154 file /home/akrom/software/anaconda3/envs/ffpenv/share/psi4/basis/aug-cc-pvdz-jkfit.gbs 
    atoms 7-12 entry H          line    70 file /home/akrom/software/anaconda3/envs/ffpenv/share/psi4/basis/aug-cc-pvdz-jkfit.gbs 

  ==> Pre-Iterations <==

   -------------------------------------------------------
    Irrep   Nso     Nmo     Nalpha   Nbeta   Ndocc  Nsocc
   -------------------------------------------------------
     Ag        57      57       0       0       0       0
     Bg        18      18       0       0       0       0
     Au        18      18       0       0       0       0
     Bu        57      57       0       0       0       0
   -------------------------------------------------------
    Total     150     150      21      21      21       0
   -------------------------------------------------------

  ==> Integral Setup <==

  DFHelper Memory: AOs need 0.145 GiB; user supplied 0.366 GiB. Using in-core AOs.

  ==> MemDFJK: Density-Fitted J/K Matrices <==

    J tasked:                   Yes
    K tasked:                   Yes
    wK tasked:                   No
    OpenMP threads:               1
    Memory [MiB]:               375
    Algorithm:                 Core
    Schwarz Cutoff:           1E-12
    Mask sparsity (%):       1.5200
    Fitting Condition:        1E-10

   => Auxiliary Basis Set <=

  Basis Set: (6-31++G** AUX)
    Blend: AUG-CC-PVDZ-JKFIT
    Number of shells: 240
    Number of basis function: 816
    Number of Cartesian functions: 816
    Spherical Harmonics?: false
    Max angular momentum: 3

  Minimum eigenvalue in the overlap matrix is 1.5878528850E-06.
  Using Symmetric Orthogonalization.

  SCF Guess: Superposition of Atomic Densities via on-the-fly atomic UHF.

  ==> Iterations <==

                           Total Energy        Delta E     RMS |[F,P]|

   @DF-RHF iter SAD:  -229.95673013006504   -2.29957e+02   0.00000e+00 
   @DF-RHF iter   1:  -230.54868802432441   -5.91958e-01   6.03241e-03 DIIS
   @DF-RHF iter   2:  -230.68866528195844   -1.39977e-01   2.79493e-03 DIIS
   @DF-RHF iter   3:  -230.71728727333144   -2.86220e-02   4.29772e-04 DIIS
   @DF-RHF iter   4:  -230.71848532795025   -1.19805e-03   4.22169e-05 DIIS
   @DF-RHF iter   5:  -230.71849922453166   -1.38966e-05   8.21475e-06 DIIS
   @DF-RHF iter   6:  -230.71849976326655   -5.38735e-07   8.22095e-07 DIIS
   @DF-RHF iter   7:  -230.71849976899307   -5.72652e-09   8.57902e-08 DIIS
   @DF-RHF iter   8:  -230.71849976905204   -5.89750e-11   1.30839e-08 DIIS
   @DF-RHF iter   9:  -230.71849976905256   -5.11591e-13   5.22144e-09 DIIS
  Energy and wave function converged.


  ==> Post-Iterations <==

    Orbital Energies [Eh]
    ---------------------

    Doubly Occupied:                                                      

       1Ag   -11.247002     1Bu   -11.246468     2Bu   -11.246466  
       2Ag   -11.245317     3Ag   -11.245315     3Bu   -11.244760  
       4Ag    -1.146429     4Bu    -1.012926     5Bu    -1.012919  
       5Ag    -0.822255     6Ag    -0.822242     7Ag    -0.704655  
       6Bu    -0.643360     7Bu    -0.616378     8Bu    -0.586213  
       9Bu    -0.586210     1Au    -0.497152     8Ag    -0.494572  
       9Ag    -0.494543     1Bg    -0.334857     2Bg    -0.334847  

    Virtual:                                                              

      10Ag     0.042783    10Bu     0.051802    11Bu     0.051802  
      11Ag     0.069770    12Ag     0.069770    12Bu     0.091670  
       2Au     0.107651     3Au     0.107661     4Au     0.138134  
       3Bg     0.159432     4Bg     0.159432    13Bu     0.165317  
      13Ag     0.172658    14Ag     0.183974    15Ag     0.183974  
      14Bu     0.202858    15Bu     0.202858    16Ag     0.204846  
       5Bg     0.209907     5Au     0.225865     6Au     0.225872  
      16Bu     0.226131    17Ag     0.226887    18Ag     0.226888  
      17Bu     0.241286    18Bu     0.241288    19Bu     0.252321  
      20Bu     0.252322    19Ag     0.304842    20Ag     0.305778  
      21Ag     0.305779    21Bu     0.362146    22Ag     0.374347  
       6Bg     0.376962    22Bu     0.441717    23Bu     0.441732  
      23Ag     0.476715    24Ag     0.476716    24Bu     0.488075  
      25Ag     0.541537    26Ag     0.541550    25Bu     0.562818  
      26Bu     0.562832    27Bu     0.755797    27Ag     0.777883  
      28Bu     0.850385    28Ag     0.872087     7Au     0.891981  
       7Bg     0.951854     8Bg     0.951860    29Ag     0.962999  
      30Ag     0.963016     8Au     0.991327     9Au     0.991332  
      29Bu     1.018411    30Bu     1.018424     9Bg     1.047339  
      31Ag     1.082725    31Bu     1.209416    32Bu     1.233223  
      33Bu     1.233246    32Ag     1.233838    33Ag     1.233844  
      34Ag     1.250915    35Ag     1.267781    34Bu     1.316417  
      35Bu     1.316425    36Bu     1.376348    37Bu     1.376360  
      36Ag     1.398525    37Ag     1.398527    10Bg     1.509185  
      10Au     1.559577    38Bu     1.564534    11Bg     1.670159  
      12Bg     1.670167    38Ag     1.687767    39Ag     1.687785  
      11Au     1.693067    12Au     1.693089    40Ag     2.034850  
      39Bu     2.077297    40Bu     2.148052    41Ag     2.175593  
      41Bu     2.268036    42Bu     2.268042    13Au     2.279550  
      14Au     2.279554    42Ag     2.303422    43Ag     2.303441  
      13Bg     2.320961    43Bu     2.375220    44Bu     2.375232  
      14Bg     2.608147    15Bg     2.608186    15Au     2.670988  
      44Ag     2.693455    45Ag     2.693505    45Bu     2.708233  
      16Bg     2.718363    17Bg     2.718405    46Bu     2.797892  
      47Bu     2.797905    46Ag     2.845454    47Ag     2.845481  
      16Au     2.906953    17Au     2.906958    48Ag     2.933863  
      48Bu     2.945625    18Au     2.974722    18Bg     3.080677  
      49Ag     3.147609    50Ag     3.147631    49Bu     3.385789  
      50Bu     3.385826    51Bu     3.514498    51Ag     3.601645  
      52Bu     3.645019    53Bu     3.645039    52Ag     3.728784  
      53Ag     3.901285    54Ag     3.901295    54Bu     4.324036  
      55Ag     4.693590    55Bu     4.713985    56Bu     4.713990  
      56Ag     4.908772    57Ag     4.908774    57Bu     5.263694  

    Final Occupation by Irrep:
             Ag    Bg    Au    Bu 
    DOCC [     9,    2,    1,    9 ]

  @DF-RHF Final Energy:  -230.71849976905256

   => Energetics <=

    Nuclear Repulsion Energy =            202.0133089353801665
    One-Electron Energy =                -710.2938426854929048
    Two-Electron Energy =                 277.5620339810601536
    Total Energy =                       -230.7184997690525847

Computation Completed


Properties will be evaluated at   0.000000,   0.000000,   0.000000 [a0]

Properties computed using the SCF density matrix

  Nuclear Dipole Moment: [e a0]
     X:    -0.0000      Y:    -0.0000      Z:     0.0000

  Electronic Dipole Moment: [e a0]
     X:     0.0000      Y:     0.0000      Z:     0.0000

  Dipole Moment: [e a0]
     X:    -0.0000      Y:    -0.0000      Z:     0.0000     Total:     0.0000

  Dipole Moment: [D]
     X:    -0.0000      Y:    -0.0000      Z:     0.0000     Total:     0.0000


*** tstop() called on atlantis at Tue Apr 19 22:10:33 2022
Module time:
	user time   =       2.36 seconds =       0.04 minutes
	system time =       0.07 seconds =       0.00 minutes
	total time  =          3 seconds =       0.05 minutes
Total time:
	user time   =       2.36 seconds =       0.04 minutes
	system time =       0.07 seconds =       0.00 minutes
	total time  =          3 seconds =       0.05 minutes

*** tstart() called on atlantis
*** at Tue Apr 19 22:10:33 2022


  //>>>>>>>>>>>>>>>>>>>>>>>>>>>>>>>>>>>//
  //               DFMP2               //
  //<<<<<<<<<<<<<<<<<<<<<<<<<<<<<<<<<<<//

   => Loading Basis Set <=

    Name: (6-31++G** AUX)
    Role: RIFIT
    Keyword: DF_BASIS_MP2
    atoms 1-6  entry C          line   112 file /home/akrom/software/anaconda3/envs/ffpenv/share/psi4/basis/aug-cc-pvdz-ri.gbs 
    atoms 7-12 entry H          line    30 file /home/akrom/software/anaconda3/envs/ffpenv/share/psi4/basis/aug-cc-pvdz-ri.gbs 

	 --------------------------------------------------------
	                          DF-MP2                         
	      2nd-Order Density-Fitted Moller-Plesset Theory     
	              RMP2 Wavefunction,   1 Threads             
	                                                         
	        Rob Parrish, Justin Turney, Andy Simmonett,      
	           Ed Hohenstein, and C. David Sherrill          
	 --------------------------------------------------------

   => Auxiliary Basis Set <=

  Basis Set: (6-31++G** AUX)
    Blend: AUG-CC-PVDZ-RI
    Number of shells: 186
    Number of basis function: 570
    Number of Cartesian functions: 666
    Spherical Harmonics?: true
    Max angular momentum: 3

	 --------------------------------------------------------
	                 NBF =   150, NAUX =   570
	 --------------------------------------------------------
	   CLASS    FOCC     OCC    AOCC    AVIR     VIR    FVIR
	   PAIRS       0      21      21     129     129       0
	 --------------------------------------------------------

	-----------------------------------------------------------
	 ==================> DF-MP2 Energies <==================== 
	-----------------------------------------------------------
	 Reference Energy          =    -230.7184997690525563 [Eh]
	 Singles Energy            =      -0.0000000000000000 [Eh]
	 Same-Spin Energy          =      -0.2122455156488796 [Eh]
	 Opposite-Spin Energy      =      -0.6181947221364840 [Eh]
	 Correlation Energy        =      -0.8304402377853636 [Eh]
	 Total Energy              =    -231.5489400068379098 [Eh]
	-----------------------------------------------------------
	 ================> DF-SCS-MP2 Energies <================== 
	-----------------------------------------------------------
	 SCS Same-Spin Scale       =       0.3333333333333333 [-]
	 SCS Opposite-Spin Scale   =       1.2000000000000000 [-]
	 SCS Same-Spin Energy      =      -0.0707485052162932 [Eh]
	 SCS Opposite-Spin Energy  =      -0.7418336665637807 [Eh]
	 SCS Correlation Energy    =      -0.8125821717800739 [Eh]
	 SCS Total Energy          =    -231.5310819408326211 [Eh]
	-----------------------------------------------------------


*** tstop() called on atlantis at Tue Apr 19 22:10:33 2022
Module time:
	user time   =       0.70 seconds =       0.01 minutes
	system time =       0.03 seconds =       0.00 minutes
	total time  =          0 seconds =       0.00 minutes
Total time:
	user time   =       3.06 seconds =       0.05 minutes
	system time =       0.10 seconds =       0.00 minutes
	total time  =          3 seconds =       0.05 minutes
gradient() will perform analytic gradient computation.
    SCF Algorithm Type (re)set to DF.

*** tstart() called on atlantis
*** at Tue Apr 19 22:10:33 2022

   => Loading Basis Set <=

    Name: 6-31++G**
    Role: ORBITAL
    Keyword: BASIS
    atoms 1-6  entry C          line   115 file /home/akrom/software/anaconda3/envs/ffpenv/share/psi4/basis/6-31ppgss.gbs 
    atoms 7-12 entry H          line    46 file /home/akrom/software/anaconda3/envs/ffpenv/share/psi4/basis/6-31ppgss.gbs 


         ---------------------------------------------------------
                                   SCF
               by Justin Turney, Rob Parrish, Andy Simmonett
                          and Daniel G. A. Smith
                              RHF Reference
                        1 Threads,    500 MiB Core
         ---------------------------------------------------------

  ==> Geometry <==

    Molecular point group: c2h
    Full point group: C2h

    Geometry (in Angstrom), charge = 0, multiplicity = 1:

       Center              X                  Y                   Z               Mass       
    ------------   -----------------  -----------------  -----------------  -----------------
         C           -1.221510000000    -0.693250000000     0.000000000000    12.000000000000
         C           -1.211140000000     0.711220000000     0.000000000000    12.000000000000
         C           -0.010370000000    -1.404520000000     0.000000000000    12.000000000000
         C            0.010370000000     1.404520000000     0.000000000000    12.000000000000
         C            1.211140000000    -0.711220000000     0.000000000000    12.000000000000
         C            1.221510000000     0.693250000000     0.000000000000    12.000000000000
         H           -2.173110000000    -1.233320000000     0.000000000000     1.007825032230
         H           -2.154640000000     1.265330000000     0.000000000000     1.007825032230
         H           -0.018480000000    -2.498650000000     0.000000000000     1.007825032230
         H            0.018480000000     2.498650000000     0.000000000000     1.007825032230
         H            2.154640000000    -1.265330000000     0.000000000000     1.007825032230
         H            2.173110000000     1.233320000000     0.000000000000     1.007825032230

  Running in c2h symmetry.

  Rotational constants: A =      0.18753  B =      0.18752  C =      0.09376 [cm^-1]
  Rotational constants: A =   5621.92707  B =   5621.82252  C =   2810.93740 [MHz]
  Nuclear repulsion =  202.013308935380167

  Charge       = 0
  Multiplicity = 1
  Electrons    = 42
  Nalpha       = 21
  Nbeta        = 21

  ==> Algorithm <==

  SCF Algorithm Type is DF.
  DIIS enabled.
  MOM disabled.
  Fractional occupation disabled.
  Guess Type is SAD.
  Energy threshold   = 1.00e-10
  Density threshold  = 1.00e-10
  Integral threshold = 0.00e+00

  ==> Primary Basis <==

  Basis Set: 6-31++G**
    Blend: 6-31++G**
    Number of shells: 72
    Number of basis function: 150
    Number of Cartesian functions: 150
    Spherical Harmonics?: false
    Max angular momentum: 2

   => Loading Basis Set <=

    Name: (6-31++G** AUX)
    Role: JKFIT
    Keyword: DF_BASIS_SCF
    atoms 1-6  entry C          line   154 file /home/akrom/software/anaconda3/envs/ffpenv/share/psi4/basis/aug-cc-pvdz-jkfit.gbs 
    atoms 7-12 entry H          line    70 file /home/akrom/software/anaconda3/envs/ffpenv/share/psi4/basis/aug-cc-pvdz-jkfit.gbs 

  ==> Pre-Iterations <==

   -------------------------------------------------------
    Irrep   Nso     Nmo     Nalpha   Nbeta   Ndocc  Nsocc
   -------------------------------------------------------
     Ag        57      57       0       0       0       0
     Bg        18      18       0       0       0       0
     Au        18      18       0       0       0       0
     Bu        57      57       0       0       0       0
   -------------------------------------------------------
    Total     150     150      21      21      21       0
   -------------------------------------------------------

  ==> Integral Setup <==

  DFHelper Memory: AOs need 0.145 GiB; user supplied 0.366 GiB. Using in-core AOs.

  ==> MemDFJK: Density-Fitted J/K Matrices <==

    J tasked:                   Yes
    K tasked:                   Yes
    wK tasked:                   No
    OpenMP threads:               1
    Memory [MiB]:               375
    Algorithm:                 Core
    Schwarz Cutoff:           1E-12
    Mask sparsity (%):       1.5200
    Fitting Condition:        1E-10

   => Auxiliary Basis Set <=

  Basis Set: (6-31++G** AUX)
    Blend: AUG-CC-PVDZ-JKFIT
    Number of shells: 240
    Number of basis function: 816
    Number of Cartesian functions: 816
    Spherical Harmonics?: false
    Max angular momentum: 3

  Minimum eigenvalue in the overlap matrix is 1.5878528850E-06.
  Using Symmetric Orthogonalization.

  SCF Guess: Superposition of Atomic Densities via on-the-fly atomic UHF.

  ==> Iterations <==

                           Total Energy        Delta E     RMS |[F,P]|

   @DF-RHF iter SAD:  -229.95673013173723   -2.29957e+02   0.00000e+00 
   @DF-RHF iter   1:  -230.54868802582919   -5.91958e-01   6.03241e-03 DIIS
   @DF-RHF iter   2:  -230.68866528344341   -1.39977e-01   2.79493e-03 DIIS
   @DF-RHF iter   3:  -230.71728727482142   -2.86220e-02   4.29772e-04 DIIS
   @DF-RHF iter   4:  -230.71848532943778   -1.19805e-03   4.22169e-05 DIIS
   @DF-RHF iter   5:  -230.71849922601939   -1.38966e-05   8.21475e-06 DIIS
   @DF-RHF iter   6:  -230.71849976475431   -5.38735e-07   8.22095e-07 DIIS
   @DF-RHF iter   7:  -230.71849977048021   -5.72589e-09   8.57902e-08 DIIS
   @DF-RHF iter   8:  -230.71849977053938   -5.91740e-11   1.30839e-08 DIIS
   @DF-RHF iter   9:  -230.71849977054069   -1.30740e-12   5.22143e-09 DIIS
   @DF-RHF iter  10:  -230.71849977054003    6.53699e-13   7.33758e-10 DIIS
   @DF-RHF iter  11:  -230.71849977054038   -3.41061e-13   7.69002e-11 DIIS
  Energy and wave function converged.


  ==> Post-Iterations <==

    Orbital Energies [Eh]
    ---------------------

    Doubly Occupied:                                                      

       1Ag   -11.247002     1Bu   -11.246468     2Bu   -11.246466  
       2Ag   -11.245317     3Ag   -11.245315     3Bu   -11.244760  
       4Ag    -1.146429     4Bu    -1.012926     5Bu    -1.012919  
       5Ag    -0.822255     6Ag    -0.822242     7Ag    -0.704655  
       6Bu    -0.643360     7Bu    -0.616378     8Bu    -0.586213  
       9Bu    -0.586210     1Au    -0.497152     8Ag    -0.494572  
       9Ag    -0.494543     1Bg    -0.334857     2Bg    -0.334847  

    Virtual:                                                              

      10Ag     0.042783    10Bu     0.051802    11Bu     0.051802  
      11Ag     0.069770    12Ag     0.069770    12Bu     0.091670  
       2Au     0.107651     3Au     0.107661     4Au     0.138134  
       3Bg     0.159432     4Bg     0.159432    13Bu     0.165317  
      13Ag     0.172658    14Ag     0.183973    15Ag     0.183974  
      14Bu     0.202858    15Bu     0.202858    16Ag     0.204846  
       5Bg     0.209907     5Au     0.225865     6Au     0.225872  
      16Bu     0.226133    17Ag     0.226887    18Ag     0.226888  
      17Bu     0.241286    18Bu     0.241288    19Bu     0.252321  
      20Bu     0.252321    19Ag     0.304841    20Ag     0.305778  
      21Ag     0.305779    21Bu     0.362150    22Ag     0.374347  
       6Bg     0.376962    22Bu     0.441717    23Bu     0.441732  
      23Ag     0.476715    24Ag     0.476716    24Bu     0.488075  
      25Ag     0.541537    26Ag     0.541550    25Bu     0.562818  
      26Bu     0.562832    27Bu     0.755797    27Ag     0.777883  
      28Bu     0.850385    28Ag     0.872087     7Au     0.891981  
       7Bg     0.951854     8Bg     0.951860    29Ag     0.962999  
      30Ag     0.963016     8Au     0.991327     9Au     0.991332  
      29Bu     1.018411    30Bu     1.018424     9Bg     1.047339  
      31Ag     1.082725    31Bu     1.209417    32Bu     1.233223  
      33Bu     1.233246    32Ag     1.233838    33Ag     1.233844  
      34Ag     1.250915    35Ag     1.267781    34Bu     1.316417  
      35Bu     1.316425    36Bu     1.376348    37Bu     1.376360  
      36Ag     1.398525    37Ag     1.398527    10Bg     1.509185  
      10Au     1.559577    38Bu     1.564534    11Bg     1.670159  
      12Bg     1.670167    38Ag     1.687767    39Ag     1.687785  
      11Au     1.693067    12Au     1.693089    40Ag     2.034850  
      39Bu     2.077297    40Bu     2.148052    41Ag     2.175593  
      41Bu     2.268036    42Bu     2.268042    13Au     2.279550  
      14Au     2.279554    42Ag     2.303422    43Ag     2.303441  
      13Bg     2.320961    43Bu     2.375220    44Bu     2.375232  
      14Bg     2.608147    15Bg     2.608186    15Au     2.670988  
      44Ag     2.693455    45Ag     2.693505    45Bu     2.708233  
      16Bg     2.718363    17Bg     2.718405    46Bu     2.797892  
      47Bu     2.797905    46Ag     2.845454    47Ag     2.845481  
      16Au     2.906953    17Au     2.906958    48Ag     2.933863  
      48Bu     2.945625    18Au     2.974722    18Bg     3.080677  
      49Ag     3.147609    50Ag     3.147631    49Bu     3.385789  
      50Bu     3.385826    51Bu     3.514498    51Ag     3.601645  
      52Bu     3.645019    53Bu     3.645039    52Ag     3.728784  
      53Ag     3.901285    54Ag     3.901295    54Bu     4.324036  
      55Ag     4.693590    55Bu     4.713985    56Bu     4.713990  
      56Ag     4.908772    57Ag     4.908774    57Bu     5.263694  

    Final Occupation by Irrep:
             Ag    Bg    Au    Bu 
    DOCC [     9,    2,    1,    9 ]

  @DF-RHF Final Energy:  -230.71849977054038

   => Energetics <=

    Nuclear Repulsion Energy =            202.0133089353801665
    One-Electron Energy =                -710.2938425046187376
    Two-Electron Energy =                 277.5620337986981667
    Total Energy =                       -230.7184997705404044

Computation Completed


Properties will be evaluated at   0.000000,   0.000000,   0.000000 [a0]

Properties computed using the SCF density matrix

  Nuclear Dipole Moment: [e a0]
     X:    -0.0000      Y:    -0.0000      Z:     0.0000

  Electronic Dipole Moment: [e a0]
     X:     0.0000      Y:     0.0000      Z:     0.0000

  Dipole Moment: [e a0]
     X:    -0.0000      Y:    -0.0000      Z:     0.0000     Total:     0.0000

  Dipole Moment: [D]
     X:    -0.0000      Y:    -0.0000      Z:     0.0000     Total:     0.0000


*** tstop() called on atlantis at Tue Apr 19 22:10:36 2022
Module time:
	user time   =       2.53 seconds =       0.04 minutes
	system time =       0.05 seconds =       0.00 minutes
	total time  =          3 seconds =       0.05 minutes
Total time:
	user time   =       5.60 seconds =       0.09 minutes
	system time =       0.15 seconds =       0.00 minutes
	total time  =          6 seconds =       0.10 minutes

*** tstart() called on atlantis
*** at Tue Apr 19 22:10:36 2022


  //>>>>>>>>>>>>>>>>>>>>>>>>>>>>>>>>>>>//
  //               DFMP2               //
  //<<<<<<<<<<<<<<<<<<<<<<<<<<<<<<<<<<<//

   => Loading Basis Set <=

    Name: (6-31++G** AUX)
    Role: RIFIT
    Keyword: DF_BASIS_MP2
    atoms 1-6  entry C          line   112 file /home/akrom/software/anaconda3/envs/ffpenv/share/psi4/basis/aug-cc-pvdz-ri.gbs 
    atoms 7-12 entry H          line    30 file /home/akrom/software/anaconda3/envs/ffpenv/share/psi4/basis/aug-cc-pvdz-ri.gbs 

	 --------------------------------------------------------
	                          DF-MP2                         
	      2nd-Order Density-Fitted Moller-Plesset Theory     
	              RMP2 Wavefunction,   1 Threads             
	                                                         
	        Rob Parrish, Justin Turney, Andy Simmonett,      
	           Ed Hohenstein, and C. David Sherrill          
	 --------------------------------------------------------

   => Auxiliary Basis Set <=

  Basis Set: (6-31++G** AUX)
    Blend: AUG-CC-PVDZ-RI
    Number of shells: 186
    Number of basis function: 570
    Number of Cartesian functions: 666
    Spherical Harmonics?: true
    Max angular momentum: 3

	 --------------------------------------------------------
	                 NBF =   150, NAUX =   570
	 --------------------------------------------------------
	   CLASS    FOCC     OCC    AOCC    AVIR     VIR    FVIR
	   PAIRS       0      21      21     129     129       0
	 --------------------------------------------------------

  DFHelper Memory: AOs need 0.145 GiB; user supplied 0.366 GiB. Using in-core AOs.


         ------------------------------------------------------------
                                     CPHF                           
                                  Rob Parrish                       
         ------------------------------------------------------------

  ==> Geometry <==

    Molecular point group: c2h
    Full point group: C2h

    Geometry (in Angstrom), charge = 0, multiplicity = 1:

       Center              X                  Y                   Z               Mass       
    ------------   -----------------  -----------------  -----------------  -----------------
         C           -1.221510000000    -0.693250000000     0.000000000000    12.000000000000
         C           -1.211140000000     0.711220000000     0.000000000000    12.000000000000
         C           -0.010370000000    -1.404520000000     0.000000000000    12.000000000000
         C            0.010370000000     1.404520000000     0.000000000000    12.000000000000
         C            1.211140000000    -0.711220000000     0.000000000000    12.000000000000
         C            1.221510000000     0.693250000000     0.000000000000    12.000000000000
         H           -2.173110000000    -1.233320000000     0.000000000000     1.007825032230
         H           -2.154640000000     1.265330000000     0.000000000000     1.007825032230
         H           -0.018480000000    -2.498650000000     0.000000000000     1.007825032230
         H            0.018480000000     2.498650000000     0.000000000000     1.007825032230
         H            2.154640000000    -1.265330000000     0.000000000000     1.007825032230
         H            2.173110000000     1.233320000000     0.000000000000     1.007825032230

  Nuclear repulsion =  202.013308935380167
  Reference energy  = -230.718499770540376

  ==> Basis Set <==

  Basis Set: 6-31++G**
    Blend: 6-31++G**
    Number of shells: 72
    Number of basis function: 150
    Number of Cartesian functions: 150
    Spherical Harmonics?: false
    Max angular momentum: 2

  ==> CGRSolver (by Rob Parrish) <==

   Number of roots    =         1
   Preconditioning    =    JACOBI
   Convergence cutoff =     1E-06
   Maximum iterations =       100

  ==> CPHFRHamiltonian (by Rob Parrish) <== 

  ==> MemDFJK: Density-Fitted J/K Matrices <==

    J tasked:                   Yes
    K tasked:                   Yes
    wK tasked:                   No
    OpenMP threads:               1
    Memory [MiB]:               375
    Algorithm:                 Core
    Schwarz Cutoff:           1E-12
    Mask sparsity (%):       1.5200
    Fitting Condition:        1E-10

   => Auxiliary Basis Set <=

  Basis Set: (6-31++G** AUX)
    Blend: AUG-CC-PVDZ-JKFIT
    Number of shells: 240
    Number of basis function: 816
    Number of Cartesian functions: 816
    Spherical Harmonics?: false
    Max angular momentum: 3

  ==> CPHF Iterations <==

  => Iterations <=

             Iter  Converged  Remaining    Residual
  CGR           1          0          1   7.694E-02
  CGR           2          0          1   1.186E-02
  CGR           3          0          1   2.761E-03
  CGR           4          0          1   4.326E-04
  CGR           5          0          1   5.485E-05
  CGR           6          0          1   6.147E-06
  CGR           7          1          0   6.203E-07

    CGRSolver converged.

  ==> DFCorrGrad: Density-Fitted Correlated Gradients <==

    OpenMP threads:              1
    Integrals threads:           1
    Memory [GiB]:            0.366
    Schwarz Cutoff:          0E+00
    Fitting Condition:       1E-10

   => Auxiliary Basis Set <=

  Basis Set: (6-31++G** AUX)
    Blend: AUG-CC-PVDZ-JKFIT
    Number of shells: 240
    Number of basis function: 816
    Number of Cartesian functions: 816
    Spherical Harmonics?: false
    Max angular momentum: 3

	-----------------------------------------------------------
	 ==================> DF-MP2 Energies <==================== 
	-----------------------------------------------------------
	 Reference Energy          =    -230.7184997705403759 [Eh]
	 Singles Energy            =      -0.0000000000000000 [Eh]
	 Same-Spin Energy          =      -0.2122455166899195 [Eh]
	 Opposite-Spin Energy      =      -0.6181947235342593 [Eh]
	 Correlation Energy        =      -0.8304402402241788 [Eh]
	 Total Energy              =    -231.5489400107645679 [Eh]
	-----------------------------------------------------------
	 ================> DF-SCS-MP2 Energies <================== 
	-----------------------------------------------------------
	 SCS Same-Spin Scale       =       0.3333333333333333 [-]
	 SCS Opposite-Spin Scale   =       1.2000000000000000 [-]
	 SCS Same-Spin Energy      =      -0.0707485055633065 [Eh]
	 SCS Opposite-Spin Energy  =      -0.7418336682411112 [Eh]
	 SCS Correlation Energy    =      -0.8125821738044177 [Eh]
	 SCS Total Energy          =    -231.5310819443448054 [Eh]
	-----------------------------------------------------------


  -Total Gradient:
     Atom            X                  Y                   Z
    ------   -----------------  -----------------  -----------------
       1        0.000975194127     0.000586244473     0.000000000000
       2        0.000966173941    -0.000608662898     0.000000000000
       3        0.000016319247     0.001093967489     0.000000000000
       4       -0.000016319247    -0.001093967489     0.000000000000
       5       -0.000966173941     0.000608662898     0.000000000000
       6       -0.000975194127    -0.000586244473     0.000000000000
       7       -0.007225356788    -0.004101436135     0.000000000000
       8       -0.007164223301     0.004214662080     0.000000000000
       9       -0.000064312915    -0.008300953890     0.000000000000
      10        0.000064312915     0.008300953890     0.000000000000
      11        0.007164223301    -0.004214662080     0.000000000000
      12        0.007225356788     0.004101436135     0.000000000000


*** tstop() called on atlantis at Tue Apr 19 22:10:45 2022
Module time:
	user time   =       8.75 seconds =       0.15 minutes
	system time =       0.44 seconds =       0.01 minutes
	total time  =          9 seconds =       0.15 minutes
Total time:
	user time   =      14.35 seconds =       0.24 minutes
	system time =       0.59 seconds =       0.01 minutes
	total time  =         15 seconds =       0.25 minutes

  Based on options and gradient (rms=3.42E-03), recommend projecting translations and projecting rotations.
hessian() will perform frequency computation by finite difference of analytic gradients.

         ----------------------------------------------------------
                                   FINDIF
                     R. A. King and Jonathon Misiewicz
         ---------------------------------------------------------

  Using finite-differences of gradients to determine vibrational frequencies and 
  normal modes.  Resulting frequencies are only valid at stationary points.
    Generating geometries for use with 3-point formula.
    Displacement size will be 5.00e-03.
    Number of atoms is 12.
    Number of irreps is 4.
    Number of SALCs is 30.
    Translations projected? 1. Rotations projected? 1.
    Index of SALCs per irrep:
     1 :  0  1  2  3  4  5  6  7  8  9  10 
     2 :  11  12  13  14 
     3 :  15  16  17  18  19 
     4 :  20  21  22  23  24  25  26  27  28  29 
    Number of SALCs per irrep:
     Irrep 1: 11
     Irrep 2: 4
     Irrep 3: 5
     Irrep 4: 10
    Number of geometries (including reference) is 42.
    Number of displacements per irrep:
      Irrep 1: 22
      Irrep 2: 4
      Irrep 3: 5
      Irrep 4: 10

  //>>>>>>>>>>>>>>>>>>>>>>>>>>>>>>>>>>>//
  //    Loading displacement 1 of 42   //
  //<<<<<<<<<<<<<<<<<<<<<<<<<<<<<<<<<<<//
gradient() will perform analytic gradient computation.
    SCF Algorithm Type (re)set to DF.

*** tstart() called on atlantis
*** at Tue Apr 19 22:10:46 2022

   => Loading Basis Set <=

    Name: 6-31++G**
    Role: ORBITAL
    Keyword: BASIS
    atoms 1-6  entry C          line   115 file /home/akrom/software/anaconda3/envs/ffpenv/share/psi4/basis/6-31ppgss.gbs 
    atoms 7-12 entry H          line    46 file /home/akrom/software/anaconda3/envs/ffpenv/share/psi4/basis/6-31ppgss.gbs 


         ---------------------------------------------------------
                                   SCF
               by Justin Turney, Rob Parrish, Andy Simmonett
                          and Daniel G. A. Smith
                              RHF Reference
                        1 Threads,    500 MiB Core
         ---------------------------------------------------------

  ==> Geometry <==

    Molecular point group: c2h
    Full point group: C2h

    Geometry (in Angstrom), charge = 0, multiplicity = 1:

       Center              X                  Y                   Z               Mass       
    ------------   -----------------  -----------------  -----------------  -----------------
         C           -1.221510000000    -0.693250000000     0.000000000000    12.000000000000
         C           -1.211140000000     0.711220000000     0.000000000000    12.000000000000
         C           -0.010370000000    -1.404520000000     0.000000000000    12.000000000000
         C            0.010370000000     1.404520000000     0.000000000000    12.000000000000
         C            1.211140000000    -0.711220000000     0.000000000000    12.000000000000
         C            1.221510000000     0.693250000000     0.000000000000    12.000000000000
         H           -2.173110000000    -1.233320000000     0.000000000000     1.007825032230
         H           -2.154640000000     1.265330000000     0.000000000000     1.007825032230
         H           -0.018480000000    -2.498650000000     0.000000000000     1.007825032230
         H            0.018480000000     2.498650000000     0.000000000000     1.007825032230
         H            2.154640000000    -1.265330000000     0.000000000000     1.007825032230
         H            2.173110000000     1.233320000000     0.000000000000     1.007825032230

  Running in c2h symmetry.

  Rotational constants: A =      0.18753  B =      0.18752  C =      0.09376 [cm^-1]
  Rotational constants: A =   5621.92707  B =   5621.82252  C =   2810.93740 [MHz]
  Nuclear repulsion =  202.013308935380167

  Charge       = 0
  Multiplicity = 1
  Electrons    = 42
  Nalpha       = 21
  Nbeta        = 21

  ==> Algorithm <==

  SCF Algorithm Type is DF.
  DIIS enabled.
  MOM disabled.
  Fractional occupation disabled.
  Guess Type is SAD.
  Energy threshold   = 1.00e-10
  Density threshold  = 1.00e-10
  Integral threshold = 0.00e+00

  ==> Primary Basis <==

  Basis Set: 6-31++G**
    Blend: 6-31++G**
    Number of shells: 72
    Number of basis function: 150
    Number of Cartesian functions: 150
    Spherical Harmonics?: false
    Max angular momentum: 2

   => Loading Basis Set <=

    Name: (6-31++G** AUX)
    Role: JKFIT
    Keyword: DF_BASIS_SCF
    atoms 1-6  entry C          line   154 file /home/akrom/software/anaconda3/envs/ffpenv/share/psi4/basis/aug-cc-pvdz-jkfit.gbs 
    atoms 7-12 entry H          line    70 file /home/akrom/software/anaconda3/envs/ffpenv/share/psi4/basis/aug-cc-pvdz-jkfit.gbs 

  ==> Pre-Iterations <==

   -------------------------------------------------------
    Irrep   Nso     Nmo     Nalpha   Nbeta   Ndocc  Nsocc
   -------------------------------------------------------
     Ag        57      57       0       0       0       0
     Bg        18      18       0       0       0       0
     Au        18      18       0       0       0       0
     Bu        57      57       0       0       0       0
   -------------------------------------------------------
    Total     150     150      21      21      21       0
   -------------------------------------------------------

  ==> Integral Setup <==

  DFHelper Memory: AOs need 0.145 GiB; user supplied 0.366 GiB. Using in-core AOs.

  ==> MemDFJK: Density-Fitted J/K Matrices <==

    J tasked:                   Yes
    K tasked:                   Yes
    wK tasked:                   No
    OpenMP threads:               1
    Memory [MiB]:               375
    Algorithm:                 Core
    Schwarz Cutoff:           1E-12
    Mask sparsity (%):       1.5200
    Fitting Condition:        1E-10

   => Auxiliary Basis Set <=

  Basis Set: (6-31++G** AUX)
    Blend: AUG-CC-PVDZ-JKFIT
    Number of shells: 240
    Number of basis function: 816
    Number of Cartesian functions: 816
    Spherical Harmonics?: false
    Max angular momentum: 3

  Minimum eigenvalue in the overlap matrix is 1.5878528852E-06.
  Using Symmetric Orthogonalization.

  SCF Guess: Superposition of Atomic Densities via on-the-fly atomic UHF.

  ==> Iterations <==

                           Total Energy        Delta E     RMS |[F,P]|

   @DF-RHF iter SAD:  -229.95673013056376   -2.29957e+02   0.00000e+00 
   @DF-RHF iter   1:  -230.54868802525363   -5.91958e-01   6.03241e-03 DIIS
   @DF-RHF iter   2:  -230.68866528295919   -1.39977e-01   2.79493e-03 DIIS
   @DF-RHF iter   3:  -230.71728727433290   -2.86220e-02   4.29772e-04 DIIS
   @DF-RHF iter   4:  -230.71848532895433   -1.19805e-03   4.22169e-05 DIIS
   @DF-RHF iter   5:  -230.71849922553582   -1.38966e-05   8.21475e-06 DIIS
   @DF-RHF iter   6:  -230.71849976427089   -5.38735e-07   8.22095e-07 DIIS
   @DF-RHF iter   7:  -230.71849976999746   -5.72658e-09   8.57902e-08 DIIS
   @DF-RHF iter   8:  -230.71849977005678   -5.93161e-11   1.30839e-08 DIIS
   @DF-RHF iter   9:  -230.71849977005735   -5.68434e-13   5.22143e-09 DIIS
   @DF-RHF iter  10:  -230.71849977005769   -3.41061e-13   7.33739e-10 DIIS
   @DF-RHF iter  11:  -230.71849977005729    3.97904e-13   7.68926e-11 DIIS
  Energy and wave function converged.


  ==> Post-Iterations <==

    Orbital Energies [Eh]
    ---------------------

    Doubly Occupied:                                                      

       1Ag   -11.247002     1Bu   -11.246468     2Bu   -11.246466  
       2Ag   -11.245317     3Ag   -11.245315     3Bu   -11.244760  
       4Ag    -1.146429     4Bu    -1.012926     5Bu    -1.012919  
       5Ag    -0.822255     6Ag    -0.822242     7Ag    -0.704655  
       6Bu    -0.643360     7Bu    -0.616378     8Bu    -0.586213  
       9Bu    -0.586210     1Au    -0.497152     8Ag    -0.494572  
       9Ag    -0.494543     1Bg    -0.334857     2Bg    -0.334847  

    Virtual:                                                              

      10Ag     0.042783    10Bu     0.051802    11Bu     0.051802  
      11Ag     0.069770    12Ag     0.069770    12Bu     0.091669  
       2Au     0.107651     3Au     0.107661     4Au     0.138134  
       3Bg     0.159432     4Bg     0.159432    13Bu     0.165317  
      13Ag     0.172658    14Ag     0.183974    15Ag     0.183974  
      14Bu     0.202858    15Bu     0.202858    16Ag     0.204846  
       5Bg     0.209907     5Au     0.225865     6Au     0.225872  
      16Bu     0.226128    17Ag     0.226887    18Ag     0.226888  
      17Bu     0.241286    18Bu     0.241288    19Bu     0.252321  
      20Bu     0.252322    19Ag     0.304842    20Ag     0.305778  
      21Ag     0.305779    21Bu     0.362138    22Ag     0.374347  
       6Bg     0.376962    22Bu     0.441717    23Bu     0.441732  
      23Ag     0.476715    24Ag     0.476716    24Bu     0.488074  
      25Ag     0.541537    26Ag     0.541550    25Bu     0.562818  
      26Bu     0.562832    27Bu     0.755797    27Ag     0.777883  
      28Bu     0.850385    28Ag     0.872087     7Au     0.891981  
       7Bg     0.951854     8Bg     0.951860    29Ag     0.962999  
      30Ag     0.963016     8Au     0.991327     9Au     0.991332  
      29Bu     1.018411    30Bu     1.018424     9Bg     1.047339  
      31Ag     1.082725    31Bu     1.209415    32Bu     1.233223  
      33Bu     1.233246    32Ag     1.233838    33Ag     1.233844  
      34Ag     1.250915    35Ag     1.267781    34Bu     1.316417  
      35Bu     1.316425    36Bu     1.376348    37Bu     1.376360  
      36Ag     1.398525    37Ag     1.398527    10Bg     1.509185  
      10Au     1.559577    38Bu     1.564533    11Bg     1.670159  
      12Bg     1.670167    38Ag     1.687767    39Ag     1.687785  
      11Au     1.693067    12Au     1.693089    40Ag     2.034850  
      39Bu     2.077297    40Bu     2.148052    41Ag     2.175593  
      41Bu     2.268036    42Bu     2.268042    13Au     2.279550  
      14Au     2.279554    42Ag     2.303422    43Ag     2.303441  
      13Bg     2.320961    43Bu     2.375220    44Bu     2.375232  
      14Bg     2.608147    15Bg     2.608186    15Au     2.670988  
      44Ag     2.693455    45Ag     2.693505    45Bu     2.708233  
      16Bg     2.718363    17Bg     2.718405    46Bu     2.797892  
      47Bu     2.797905    46Ag     2.845454    47Ag     2.845481  
      16Au     2.906953    17Au     2.906958    48Ag     2.933863  
      48Bu     2.945625    18Au     2.974722    18Bg     3.080677  
      49Ag     3.147609    50Ag     3.147631    49Bu     3.385789  
      50Bu     3.385826    51Bu     3.514498    51Ag     3.601645  
      52Bu     3.645019    53Bu     3.645039    52Ag     3.728784  
      53Ag     3.901285    54Ag     3.901295    54Bu     4.324036  
      55Ag     4.693590    55Bu     4.713985    56Bu     4.713990  
      56Ag     4.908772    57Ag     4.908774    57Bu     5.263694  

    Final Occupation by Irrep:
             Ag    Bg    Au    Bu 
    DOCC [     9,    2,    1,    9 ]

  @DF-RHF Final Energy:  -230.71849977005729

   => Energetics <=

    Nuclear Repulsion Energy =            202.0133089353801665
    One-Electron Energy =                -710.2938425048206454
    Two-Electron Energy =                 277.5620337993831868
    Total Energy =                       -230.7184997700572922

Computation Completed


Properties will be evaluated at   0.000000,   0.000000,   0.000000 [a0]

Properties computed using the SCF density matrix

  Nuclear Dipole Moment: [e a0]
     X:    -0.0000      Y:    -0.0000      Z:     0.0000

  Electronic Dipole Moment: [e a0]
     X:     0.0000      Y:     0.0000      Z:     0.0000

  Dipole Moment: [e a0]
     X:    -0.0000      Y:    -0.0000      Z:     0.0000     Total:     0.0000

  Dipole Moment: [D]
     X:    -0.0000      Y:    -0.0000      Z:     0.0000     Total:     0.0000


*** tstop() called on atlantis at Tue Apr 19 22:10:48 2022
Module time:
	user time   =       2.51 seconds =       0.04 minutes
	system time =       0.04 seconds =       0.00 minutes
	total time  =          2 seconds =       0.03 minutes
Total time:
	user time   =      17.14 seconds =       0.29 minutes
	system time =       0.65 seconds =       0.01 minutes
	total time  =         18 seconds =       0.30 minutes

*** tstart() called on atlantis
*** at Tue Apr 19 22:10:48 2022


  //>>>>>>>>>>>>>>>>>>>>>>>>>>>>>>>>>>>//
  //               DFMP2               //
  //<<<<<<<<<<<<<<<<<<<<<<<<<<<<<<<<<<<//

   => Loading Basis Set <=

    Name: (6-31++G** AUX)
    Role: RIFIT
    Keyword: DF_BASIS_MP2
    atoms 1-6  entry C          line   112 file /home/akrom/software/anaconda3/envs/ffpenv/share/psi4/basis/aug-cc-pvdz-ri.gbs 
    atoms 7-12 entry H          line    30 file /home/akrom/software/anaconda3/envs/ffpenv/share/psi4/basis/aug-cc-pvdz-ri.gbs 

	 --------------------------------------------------------
	                          DF-MP2                         
	      2nd-Order Density-Fitted Moller-Plesset Theory     
	              RMP2 Wavefunction,   1 Threads             
	                                                         
	        Rob Parrish, Justin Turney, Andy Simmonett,      
	           Ed Hohenstein, and C. David Sherrill          
	 --------------------------------------------------------

   => Auxiliary Basis Set <=

  Basis Set: (6-31++G** AUX)
    Blend: AUG-CC-PVDZ-RI
    Number of shells: 186
    Number of basis function: 570
    Number of Cartesian functions: 666
    Spherical Harmonics?: true
    Max angular momentum: 3

	 --------------------------------------------------------
	                 NBF =   150, NAUX =   570
	 --------------------------------------------------------
	   CLASS    FOCC     OCC    AOCC    AVIR     VIR    FVIR
	   PAIRS       0      21      21     129     129       0
	 --------------------------------------------------------

  DFHelper Memory: AOs need 0.145 GiB; user supplied 0.366 GiB. Using in-core AOs.


         ------------------------------------------------------------
                                     CPHF                           
                                  Rob Parrish                       
         ------------------------------------------------------------

  ==> Geometry <==

    Molecular point group: c2h
    Full point group: C2h

    Geometry (in Angstrom), charge = 0, multiplicity = 1:

       Center              X                  Y                   Z               Mass       
    ------------   -----------------  -----------------  -----------------  -----------------
         C           -1.221510000000    -0.693250000000     0.000000000000    12.000000000000
         C           -1.211140000000     0.711220000000     0.000000000000    12.000000000000
         C           -0.010370000000    -1.404520000000     0.000000000000    12.000000000000
         C            0.010370000000     1.404520000000     0.000000000000    12.000000000000
         C            1.211140000000    -0.711220000000     0.000000000000    12.000000000000
         C            1.221510000000     0.693250000000     0.000000000000    12.000000000000
         H           -2.173110000000    -1.233320000000     0.000000000000     1.007825032230
         H           -2.154640000000     1.265330000000     0.000000000000     1.007825032230
         H           -0.018480000000    -2.498650000000     0.000000000000     1.007825032230
         H            0.018480000000     2.498650000000     0.000000000000     1.007825032230
         H            2.154640000000    -1.265330000000     0.000000000000     1.007825032230
         H            2.173110000000     1.233320000000     0.000000000000     1.007825032230

  Nuclear repulsion =  202.013308935380167
  Reference energy  = -230.718499770057292

  ==> Basis Set <==

  Basis Set: 6-31++G**
    Blend: 6-31++G**
    Number of shells: 72
    Number of basis function: 150
    Number of Cartesian functions: 150
    Spherical Harmonics?: false
    Max angular momentum: 2

  ==> CGRSolver (by Rob Parrish) <==

   Number of roots    =         1
   Preconditioning    =    JACOBI
   Convergence cutoff =     1E-06
   Maximum iterations =       100

  ==> CPHFRHamiltonian (by Rob Parrish) <== 

  ==> MemDFJK: Density-Fitted J/K Matrices <==

    J tasked:                   Yes
    K tasked:                   Yes
    wK tasked:                   No
    OpenMP threads:               1
    Memory [MiB]:               375
    Algorithm:                 Core
    Schwarz Cutoff:           1E-12
    Mask sparsity (%):       1.5200
    Fitting Condition:        1E-10

   => Auxiliary Basis Set <=

  Basis Set: (6-31++G** AUX)
    Blend: AUG-CC-PVDZ-JKFIT
    Number of shells: 240
    Number of basis function: 816
    Number of Cartesian functions: 816
    Spherical Harmonics?: false
    Max angular momentum: 3

  ==> CPHF Iterations <==

  => Iterations <=

             Iter  Converged  Remaining    Residual
  CGR           1          0          1   7.694E-02
  CGR           2          0          1   1.186E-02
  CGR           3          0          1   2.761E-03
  CGR           4          0          1   4.326E-04
  CGR           5          0          1   5.485E-05
  CGR           6          0          1   6.147E-06
  CGR           7          1          0   6.203E-07

    CGRSolver converged.

  ==> DFCorrGrad: Density-Fitted Correlated Gradients <==

    OpenMP threads:              1
    Integrals threads:           1
    Memory [GiB]:            0.366
    Schwarz Cutoff:          0E+00
    Fitting Condition:       1E-10

   => Auxiliary Basis Set <=

  Basis Set: (6-31++G** AUX)
    Blend: AUG-CC-PVDZ-JKFIT
    Number of shells: 240
    Number of basis function: 816
    Number of Cartesian functions: 816
    Spherical Harmonics?: false
    Max angular momentum: 3

	-----------------------------------------------------------
	 ==================> DF-MP2 Energies <==================== 
	-----------------------------------------------------------
	 Reference Energy          =    -230.7184997700572922 [Eh]
	 Singles Energy            =      -0.0000000000000000 [Eh]
	 Same-Spin Energy          =      -0.2122455166419434 [Eh]
	 Opposite-Spin Energy      =      -0.6181947235619124 [Eh]
	 Correlation Energy        =      -0.8304402402038558 [Eh]
	 Total Energy              =    -231.5489400102611341 [Eh]
	-----------------------------------------------------------
	 ================> DF-SCS-MP2 Energies <================== 
	-----------------------------------------------------------
	 SCS Same-Spin Scale       =       0.3333333333333333 [-]
	 SCS Opposite-Spin Scale   =       1.2000000000000000 [-]
	 SCS Same-Spin Energy      =      -0.0707485055473144 [Eh]
	 SCS Opposite-Spin Energy  =      -0.7418336682742949 [Eh]
	 SCS Correlation Energy    =      -0.8125821738216094 [Eh]
	 SCS Total Energy          =    -231.5310819438788883 [Eh]
	-----------------------------------------------------------


  -Total Gradient:
     Atom            X                  Y                   Z
    ------   -----------------  -----------------  -----------------
       1        0.000975945072     0.000587188929     0.000000000000
       2        0.000966993687    -0.000608633012     0.000000000000
       3        0.000017231091     0.001094784736     0.000000000000
       4       -0.000017231091    -0.001094784736     0.000000000000
       5       -0.000966993687     0.000608633012     0.000000000000
       6       -0.000975945072    -0.000587188929     0.000000000000
       7       -0.007225735142    -0.004101956702     0.000000000000
       8       -0.007164169078     0.004214321398     0.000000000000
       9       -0.000064841080    -0.008301022738     0.000000000000
      10        0.000064841080     0.008301022738     0.000000000000
      11        0.007164169078    -0.004214321398     0.000000000000
      12        0.007225735142     0.004101956702     0.000000000000


*** tstop() called on atlantis at Tue Apr 19 22:10:57 2022
Module time:
	user time   =       8.77 seconds =       0.15 minutes
	system time =       0.42 seconds =       0.01 minutes
	total time  =          9 seconds =       0.15 minutes
Total time:
	user time   =      25.91 seconds =       0.43 minutes
	system time =       1.07 seconds =       0.02 minutes
	total time  =         27 seconds =       0.45 minutes

  //>>>>>>>>>>>>>>>>>>>>>>>>>>>>>>>>>>>//
  //    Loading displacement 2 of 42   //
  //<<<<<<<<<<<<<<<<<<<<<<<<<<<<<<<<<<<//
gradient() will perform analytic gradient computation.
    SCF Algorithm Type (re)set to DF.

*** tstart() called on atlantis
*** at Tue Apr 19 22:10:57 2022

   => Loading Basis Set <=

    Name: 6-31++G**
    Role: ORBITAL
    Keyword: BASIS
    atoms 1-6  entry C          line   115 file /home/akrom/software/anaconda3/envs/ffpenv/share/psi4/basis/6-31ppgss.gbs 
    atoms 7-12 entry H          line    46 file /home/akrom/software/anaconda3/envs/ffpenv/share/psi4/basis/6-31ppgss.gbs 


         ---------------------------------------------------------
                                   SCF
               by Justin Turney, Rob Parrish, Andy Simmonett
                          and Daniel G. A. Smith
                              RHF Reference
                        1 Threads,    500 MiB Core
         ---------------------------------------------------------

  ==> Geometry <==

    Molecular point group: c2h
    Full point group: C2h

    Geometry (in Angstrom), charge = 0, multiplicity = 1:

       Center              X                  Y                   Z               Mass       
    ------------   -----------------  -----------------  -----------------  -----------------
         C           -1.222032477591    -0.693313109608     0.000000000000    12.000000000000
         C           -1.211176745353     0.711157426160     0.000000000000    12.000000000000
         C           -0.010297435136    -1.404520535769     0.000000000000    12.000000000000
         C            0.010297435136     1.404520535769     0.000000000000    12.000000000000
         C            1.211176745353    -0.711157426160     0.000000000000    12.000000000000
         C            1.222032477591     0.693313109608     0.000000000000    12.000000000000
         H           -2.173046280225    -1.233432274252     0.000000000000     1.007825032230
         H           -2.154705373579     1.265218680005     0.000000000000     1.007825032230
         H           -0.018350906646    -2.498650954774     0.000000000000     1.007825032230
         H            0.018350906646     2.498650954774     0.000000000000     1.007825032230
         H            2.154705373579    -1.265218680005     0.000000000000     1.007825032230
         H            2.173046280225     1.233432274252     0.000000000000     1.007825032230

  Running in c2h symmetry.

  Rotational constants: A =      0.18753  B =      0.18745  C =      0.09375 [cm^-1]
  Rotational constants: A =   5621.97670  B =   5619.72613  C =   2810.42560 [MHz]
  Nuclear repulsion =  201.998047561272216

  Charge       = 0
  Multiplicity = 1
  Electrons    = 42
  Nalpha       = 21
  Nbeta        = 21

  ==> Algorithm <==

  SCF Algorithm Type is DF.
  DIIS enabled.
  MOM disabled.
  Fractional occupation disabled.
  Guess Type is SAD.
  Energy threshold   = 1.00e-10
  Density threshold  = 1.00e-10
  Integral threshold = 0.00e+00

  ==> Primary Basis <==

  Basis Set: 6-31++G**
    Blend: 6-31++G**
    Number of shells: 72
    Number of basis function: 150
    Number of Cartesian functions: 150
    Spherical Harmonics?: false
    Max angular momentum: 2

   => Loading Basis Set <=

    Name: (6-31++G** AUX)
    Role: JKFIT
    Keyword: DF_BASIS_SCF
    atoms 1-6  entry C          line   154 file /home/akrom/software/anaconda3/envs/ffpenv/share/psi4/basis/aug-cc-pvdz-jkfit.gbs 
    atoms 7-12 entry H          line    70 file /home/akrom/software/anaconda3/envs/ffpenv/share/psi4/basis/aug-cc-pvdz-jkfit.gbs 

  ==> Pre-Iterations <==

   -------------------------------------------------------
    Irrep   Nso     Nmo     Nalpha   Nbeta   Ndocc  Nsocc
   -------------------------------------------------------
     Ag        57      57       0       0       0       0
     Bg        18      18       0       0       0       0
     Au        18      18       0       0       0       0
     Bu        57      57       0       0       0       0
   -------------------------------------------------------
    Total     150     150      21      21      21       0
   -------------------------------------------------------

  ==> Integral Setup <==

  DFHelper Memory: AOs need 0.145 GiB; user supplied 0.366 GiB. Using in-core AOs.

  ==> MemDFJK: Density-Fitted J/K Matrices <==

    J tasked:                   Yes
    K tasked:                   Yes
    wK tasked:                   No
    OpenMP threads:               1
    Memory [MiB]:               375
    Algorithm:                 Core
    Schwarz Cutoff:           1E-12
    Mask sparsity (%):       1.5200
    Fitting Condition:        1E-10

   => Auxiliary Basis Set <=

  Basis Set: (6-31++G** AUX)
    Blend: AUG-CC-PVDZ-JKFIT
    Number of shells: 240
    Number of basis function: 816
    Number of Cartesian functions: 816
    Spherical Harmonics?: false
    Max angular momentum: 3

  Minimum eigenvalue in the overlap matrix is 1.5897966732E-06.
  Using Symmetric Orthogonalization.

  SCF Guess: Superposition of Atomic Densities via on-the-fly atomic UHF.

  ==> Iterations <==

                           Total Energy        Delta E     RMS |[F,P]|

   @DF-RHF iter SAD:  -229.95551609710355   -2.29956e+02   0.00000e+00 
   @DF-RHF iter   1:  -230.54879475936292   -5.93279e-01   6.02993e-03 DIIS
   @DF-RHF iter   2:  -230.68870018933021   -1.39905e-01   2.79277e-03 DIIS
   @DF-RHF iter   3:  -230.71727936947349   -2.85792e-02   4.29693e-04 DIIS
   @DF-RHF iter   4:  -230.71847703581633   -1.19767e-03   4.22105e-05 DIIS
   @DF-RHF iter   5:  -230.71849092980972   -1.38940e-05   8.21581e-06 DIIS
   @DF-RHF iter   6:  -230.71849146847899   -5.38669e-07   8.38011e-07 DIIS
   @DF-RHF iter   7:  -230.71849147423845   -5.75946e-09   1.59660e-07 DIIS
   @DF-RHF iter   8:  -230.71849147435034   -1.11896e-10   5.15490e-08 DIIS
   @DF-RHF iter   9:  -230.71849147436163   -1.12834e-11   4.45454e-09 DIIS
   @DF-RHF iter  10:  -230.71849147436203   -3.97904e-13   6.88719e-10 DIIS
   @DF-RHF iter  11:  -230.71849147436225   -2.27374e-13   8.82220e-11 DIIS
  Energy and wave function converged.


  ==> Post-Iterations <==

    Orbital Energies [Eh]
    ---------------------

    Doubly Occupied:                                                      

       1Ag   -11.247029     1Bu   -11.246508     2Bu   -11.246479  
       2Ag   -11.245359     3Ag   -11.245328     3Bu   -11.244788  
       4Ag    -1.146332     4Bu    -1.012956     5Bu    -1.012814  
       5Ag    -0.822346     6Ag    -0.822165     7Ag    -0.704657  
       6Bu    -0.643473     7Bu    -0.616309     8Bu    -0.586319  
       9Bu    -0.586144     1Au    -0.497079     8Ag    -0.494756  
       9Ag    -0.494418     1Bg    -0.334891     2Bg    -0.334744  

    Virtual:                                                              

      10Ag     0.042784    10Bu     0.051798    11Bu     0.051805  
      11Ag     0.069767    12Ag     0.069769    12Bu     0.091669  
       2Au     0.107569     3Au     0.107686     4Au     0.138145  
       3Bg     0.159432     4Bg     0.159443    13Bu     0.165317  
      13Ag     0.172671    14Ag     0.183962    15Ag     0.183976  
      14Bu     0.202861    15Bu     0.202865    16Ag     0.204867  
       5Bg     0.209898     5Au     0.225818     6Au     0.225895  
      16Bu     0.226129    17Ag     0.226878    18Ag     0.226891  
      17Bu     0.241277    18Bu     0.241295    19Bu     0.252311  
      20Bu     0.252321    19Ag     0.304837    20Ag     0.305764  
      21Ag     0.305782    21Bu     0.362134    22Ag     0.374380  
       6Bg     0.376878    22Bu     0.441654    23Bu     0.441845  
      23Ag     0.476592    24Ag     0.476711    24Bu     0.488086  
      25Ag     0.541499    26Ag     0.541617    25Bu     0.562670  
      26Bu     0.562840    27Bu     0.755863    27Ag     0.777739  
      28Bu     0.850179    28Ag     0.872012     7Au     0.892003  
       7Bg     0.951853     8Bg     0.951922    29Ag     0.962815  
      30Ag     0.963062     8Au     0.991300     9Au     0.991353  
      29Bu     1.018317    30Bu     1.018483     9Bg     1.047316  
      31Ag     1.082689    31Bu     1.209447    32Bu     1.233194  
      33Bu     1.233468    32Ag     1.233874    33Ag     1.234007  
      34Ag     1.250776    35Ag     1.267895    34Bu     1.316340  
      35Bu     1.316447    36Bu     1.376170    37Bu     1.376304  
      36Ag     1.398436    37Ag     1.398492    10Bg     1.509188  
      10Au     1.559618    38Bu     1.564410    11Bg     1.670038  
      12Bg     1.670203    38Ag     1.687682    39Ag     1.687839  
      11Au     1.692888    12Au     1.693140    40Ag     2.034910  
      39Bu     2.077107    40Bu     2.147974    41Ag     2.175694  
      41Bu     2.268077    42Bu     2.268297    13Au     2.279360  
      14Au     2.279540    42Ag     2.303047    43Ag     2.303311  
      13Bg     2.320800    43Bu     2.374876    44Bu     2.375081  
      14Bg     2.607760    15Bg     2.608252    15Au     2.671158  
      44Ag     2.693308    45Ag     2.693698    45Bu     2.708316  
      16Bg     2.718266    17Bg     2.718808    46Bu     2.797728  
      47Bu     2.797887    46Ag     2.845337    47Ag     2.845633  
      16Au     2.906883    17Au     2.907271    48Ag     2.933703  
      48Bu     2.945775    18Au     2.974394    18Bg     3.080727  
      49Ag     3.147448    50Ag     3.147566    49Bu     3.385632  
      50Bu     3.385976    51Bu     3.514351    51Ag     3.602021  
      52Bu     3.645078    53Bu     3.645676    52Ag     3.728808  
      53Ag     3.901205    54Ag     3.901779    54Bu     4.323927  
      55Ag     4.693375    55Bu     4.713899    56Bu     4.714051  
      56Ag     4.908692    57Ag     4.908778    57Bu     5.263533  

    Final Occupation by Irrep:
             Ag    Bg    Au    Bu 
    DOCC [     9,    2,    1,    9 ]

  @DF-RHF Final Energy:  -230.71849147436225

   => Energetics <=

    Nuclear Repulsion Energy =            201.9980475612722159
    One-Electron Energy =                -710.2632873206302975
    Two-Electron Energy =                 277.5467482849958856
    Total Energy =                       -230.7184914743622244

Computation Completed


Properties will be evaluated at   0.000000,   0.000000,   0.000000 [a0]

Properties computed using the SCF density matrix

  Nuclear Dipole Moment: [e a0]
     X:     0.0000      Y:     0.0000      Z:     0.0000

  Electronic Dipole Moment: [e a0]
     X:     0.0000      Y:     0.0000      Z:     0.0000

  Dipole Moment: [e a0]
     X:     0.0000      Y:     0.0000      Z:     0.0000     Total:     0.0000

  Dipole Moment: [D]
     X:     0.0000      Y:     0.0000      Z:     0.0000     Total:     0.0000


*** tstop() called on atlantis at Tue Apr 19 22:11:00 2022
Module time:
	user time   =       2.49 seconds =       0.04 minutes
	system time =       0.08 seconds =       0.00 minutes
	total time  =          3 seconds =       0.05 minutes
Total time:
	user time   =      28.41 seconds =       0.47 minutes
	system time =       1.15 seconds =       0.02 minutes
	total time  =         30 seconds =       0.50 minutes

*** tstart() called on atlantis
*** at Tue Apr 19 22:11:00 2022


  //>>>>>>>>>>>>>>>>>>>>>>>>>>>>>>>>>>>//
  //               DFMP2               //
  //<<<<<<<<<<<<<<<<<<<<<<<<<<<<<<<<<<<//

   => Loading Basis Set <=

    Name: (6-31++G** AUX)
    Role: RIFIT
    Keyword: DF_BASIS_MP2
    atoms 1-6  entry C          line   112 file /home/akrom/software/anaconda3/envs/ffpenv/share/psi4/basis/aug-cc-pvdz-ri.gbs 
    atoms 7-12 entry H          line    30 file /home/akrom/software/anaconda3/envs/ffpenv/share/psi4/basis/aug-cc-pvdz-ri.gbs 

	 --------------------------------------------------------
	                          DF-MP2                         
	      2nd-Order Density-Fitted Moller-Plesset Theory     
	              RMP2 Wavefunction,   1 Threads             
	                                                         
	        Rob Parrish, Justin Turney, Andy Simmonett,      
	           Ed Hohenstein, and C. David Sherrill          
	 --------------------------------------------------------

   => Auxiliary Basis Set <=

  Basis Set: (6-31++G** AUX)
    Blend: AUG-CC-PVDZ-RI
    Number of shells: 186
    Number of basis function: 570
    Number of Cartesian functions: 666
    Spherical Harmonics?: true
    Max angular momentum: 3

	 --------------------------------------------------------
	                 NBF =   150, NAUX =   570
	 --------------------------------------------------------
	   CLASS    FOCC     OCC    AOCC    AVIR     VIR    FVIR
	   PAIRS       0      21      21     129     129       0
	 --------------------------------------------------------

  DFHelper Memory: AOs need 0.145 GiB; user supplied 0.366 GiB. Using in-core AOs.


         ------------------------------------------------------------
                                     CPHF                           
                                  Rob Parrish                       
         ------------------------------------------------------------

  ==> Geometry <==

    Molecular point group: c2h
    Full point group: C2h

    Geometry (in Angstrom), charge = 0, multiplicity = 1:

       Center              X                  Y                   Z               Mass       
    ------------   -----------------  -----------------  -----------------  -----------------
         C           -1.222032477591    -0.693313109608     0.000000000000    12.000000000000
         C           -1.211176745353     0.711157426160     0.000000000000    12.000000000000
         C           -0.010297435136    -1.404520535769     0.000000000000    12.000000000000
         C            0.010297435136     1.404520535769     0.000000000000    12.000000000000
         C            1.211176745353    -0.711157426160     0.000000000000    12.000000000000
         C            1.222032477591     0.693313109608     0.000000000000    12.000000000000
         H           -2.173046280225    -1.233432274252     0.000000000000     1.007825032230
         H           -2.154705373579     1.265218680005     0.000000000000     1.007825032230
         H           -0.018350906646    -2.498650954774     0.000000000000     1.007825032230
         H            0.018350906646     2.498650954774     0.000000000000     1.007825032230
         H            2.154705373579    -1.265218680005     0.000000000000     1.007825032230
         H            2.173046280225     1.233432274252     0.000000000000     1.007825032230

  Nuclear repulsion =  201.998047561272216
  Reference energy  = -230.718491474362253

  ==> Basis Set <==

  Basis Set: 6-31++G**
    Blend: 6-31++G**
    Number of shells: 72
    Number of basis function: 150
    Number of Cartesian functions: 150
    Spherical Harmonics?: false
    Max angular momentum: 2

  ==> CGRSolver (by Rob Parrish) <==

   Number of roots    =         1
   Preconditioning    =    JACOBI
   Convergence cutoff =     1E-06
   Maximum iterations =       100

  ==> CPHFRHamiltonian (by Rob Parrish) <== 

  ==> MemDFJK: Density-Fitted J/K Matrices <==

    J tasked:                   Yes
    K tasked:                   Yes
    wK tasked:                   No
    OpenMP threads:               1
    Memory [MiB]:               375
    Algorithm:                 Core
    Schwarz Cutoff:           1E-12
    Mask sparsity (%):       1.5200
    Fitting Condition:        1E-10

   => Auxiliary Basis Set <=

  Basis Set: (6-31++G** AUX)
    Blend: AUG-CC-PVDZ-JKFIT
    Number of shells: 240
    Number of basis function: 816
    Number of Cartesian functions: 816
    Spherical Harmonics?: false
    Max angular momentum: 3

  ==> CPHF Iterations <==

  => Iterations <=

             Iter  Converged  Remaining    Residual
  CGR           1          0          1   7.694E-02
  CGR           2          0          1   1.186E-02
  CGR           3          0          1   2.762E-03
  CGR           4          0          1   4.327E-04
  CGR           5          0          1   5.536E-05
  CGR           6          0          1   9.101E-06
  CGR           7          0          1   2.703E-06
  CGR           8          1          0   2.218E-07

    CGRSolver converged.

  ==> DFCorrGrad: Density-Fitted Correlated Gradients <==

    OpenMP threads:              1
    Integrals threads:           1
    Memory [GiB]:            0.366
    Schwarz Cutoff:          0E+00
    Fitting Condition:       1E-10

   => Auxiliary Basis Set <=

  Basis Set: (6-31++G** AUX)
    Blend: AUG-CC-PVDZ-JKFIT
    Number of shells: 240
    Number of basis function: 816
    Number of Cartesian functions: 816
    Spherical Harmonics?: false
    Max angular momentum: 3

	-----------------------------------------------------------
	 ==================> DF-MP2 Energies <==================== 
	-----------------------------------------------------------
	 Reference Energy          =    -230.7184914743622528 [Eh]
	 Singles Energy            =      -0.0000000000000000 [Eh]
	 Same-Spin Energy          =      -0.2122449481522524 [Eh]
	 Opposite-Spin Energy      =      -0.6182048228287303 [Eh]
	 Correlation Energy        =      -0.8304497709809828 [Eh]
	 Total Energy              =    -231.5489412453432294 [Eh]
	-----------------------------------------------------------
	 ================> DF-SCS-MP2 Energies <================== 
	-----------------------------------------------------------
	 SCS Same-Spin Scale       =       0.3333333333333333 [-]
	 SCS Opposite-Spin Scale   =       1.2000000000000000 [-]
	 SCS Same-Spin Energy      =      -0.0707483160507508 [Eh]
	 SCS Opposite-Spin Energy  =      -0.7418457873944764 [Eh]
	 SCS Correlation Energy    =      -0.8125941034452272 [Eh]
	 SCS Total Energy          =    -231.5310855778074881 [Eh]
	-----------------------------------------------------------


  -Total Gradient:
     Atom            X                  Y                   Z
    ------   -----------------  -----------------  -----------------
       1        0.000203014826     0.000582078457     0.000000000000
       2        0.001043355218    -0.000594489345     0.000000000000
       3        0.000347294366     0.000932913265     0.000000000000
       4       -0.000347294366    -0.000932913265     0.000000000000
       5       -0.001043355218     0.000594489345     0.000000000000
       6       -0.000203014826    -0.000582078457     0.000000000000
       7       -0.006944178552    -0.003978734427     0.000000000000
       8       -0.007172089851     0.004180619476     0.000000000000
       9       -0.000074032487    -0.008299467111     0.000000000000
      10        0.000074032487     0.008299467111     0.000000000000
      11        0.007172089851    -0.004180619476     0.000000000000
      12        0.006944178552     0.003978734427     0.000000000000


*** tstop() called on atlantis at Tue Apr 19 22:11:09 2022
Module time:
	user time   =       8.84 seconds =       0.15 minutes
	system time =       0.51 seconds =       0.01 minutes
	total time  =          9 seconds =       0.15 minutes
Total time:
	user time   =      37.25 seconds =       0.62 minutes
	system time =       1.66 seconds =       0.03 minutes
	total time  =         39 seconds =       0.65 minutes

  //>>>>>>>>>>>>>>>>>>>>>>>>>>>>>>>>>>>//
  //    Loading displacement 3 of 42   //
  //<<<<<<<<<<<<<<<<<<<<<<<<<<<<<<<<<<<//
gradient() will perform analytic gradient computation.
    SCF Algorithm Type (re)set to DF.

*** tstart() called on atlantis
*** at Tue Apr 19 22:11:09 2022

   => Loading Basis Set <=

    Name: 6-31++G**
    Role: ORBITAL
    Keyword: BASIS
    atoms 1-6  entry C          line   115 file /home/akrom/software/anaconda3/envs/ffpenv/share/psi4/basis/6-31ppgss.gbs 
    atoms 7-12 entry H          line    46 file /home/akrom/software/anaconda3/envs/ffpenv/share/psi4/basis/6-31ppgss.gbs 


         ---------------------------------------------------------
                                   SCF
               by Justin Turney, Rob Parrish, Andy Simmonett
                          and Daniel G. A. Smith
                              RHF Reference
                        1 Threads,    500 MiB Core
         ---------------------------------------------------------

  ==> Geometry <==

    Molecular point group: c2h
    Full point group: C2h

    Geometry (in Angstrom), charge = 0, multiplicity = 1:

       Center              X                  Y                   Z               Mass       
    ------------   -----------------  -----------------  -----------------  -----------------
         C           -1.220987522409    -0.693186890392     0.000000000000    12.000000000000
         C           -1.211103254647     0.711282573840     0.000000000000    12.000000000000
         C           -0.010442564864    -1.404519464231     0.000000000000    12.000000000000
         C            0.010442564864     1.404519464231     0.000000000000    12.000000000000
         C            1.211103254647    -0.711282573840     0.000000000000    12.000000000000
         C            1.220987522409     0.693186890392     0.000000000000    12.000000000000
         H           -2.173173719775    -1.233207725748     0.000000000000     1.007825032230
         H           -2.154574626421     1.265441319995     0.000000000000     1.007825032230
         H           -0.018609093354    -2.498649045226     0.000000000000     1.007825032230
         H            0.018609093354     2.498649045226     0.000000000000     1.007825032230
         H            2.154574626421    -1.265441319995     0.000000000000     1.007825032230
         H            2.173173719775     1.233207725748     0.000000000000     1.007825032230

  Running in c2h symmetry.

  Rotational constants: A =      0.18760  B =      0.18752  C =      0.09378 [cm^-1]
  Rotational constants: A =   5624.12726  B =   5621.66993  C =   2811.44916 [MHz]
  Nuclear repulsion =  202.028576396706484

  Charge       = 0
  Multiplicity = 1
  Electrons    = 42
  Nalpha       = 21
  Nbeta        = 21

  ==> Algorithm <==

  SCF Algorithm Type is DF.
  DIIS enabled.
  MOM disabled.
  Fractional occupation disabled.
  Guess Type is SAD.
  Energy threshold   = 1.00e-10
  Density threshold  = 1.00e-10
  Integral threshold = 0.00e+00

  ==> Primary Basis <==

  Basis Set: 6-31++G**
    Blend: 6-31++G**
    Number of shells: 72
    Number of basis function: 150
    Number of Cartesian functions: 150
    Spherical Harmonics?: false
    Max angular momentum: 2

   => Loading Basis Set <=

    Name: (6-31++G** AUX)
    Role: JKFIT
    Keyword: DF_BASIS_SCF
    atoms 1-6  entry C          line   154 file /home/akrom/software/anaconda3/envs/ffpenv/share/psi4/basis/aug-cc-pvdz-jkfit.gbs 
    atoms 7-12 entry H          line    70 file /home/akrom/software/anaconda3/envs/ffpenv/share/psi4/basis/aug-cc-pvdz-jkfit.gbs 

  ==> Pre-Iterations <==

   -------------------------------------------------------
    Irrep   Nso     Nmo     Nalpha   Nbeta   Ndocc  Nsocc
   -------------------------------------------------------
     Ag        57      57       0       0       0       0
     Bg        18      18       0       0       0       0
     Au        18      18       0       0       0       0
     Bu        57      57       0       0       0       0
   -------------------------------------------------------
    Total     150     150      21      21      21       0
   -------------------------------------------------------

  ==> Integral Setup <==

  DFHelper Memory: AOs need 0.145 GiB; user supplied 0.366 GiB. Using in-core AOs.

  ==> MemDFJK: Density-Fitted J/K Matrices <==

    J tasked:                   Yes
    K tasked:                   Yes
    wK tasked:                   No
    OpenMP threads:               1
    Memory [MiB]:               375
    Algorithm:                 Core
    Schwarz Cutoff:           1E-12
    Mask sparsity (%):       1.5200
    Fitting Condition:        1E-10

   => Auxiliary Basis Set <=

  Basis Set: (6-31++G** AUX)
    Blend: AUG-CC-PVDZ-JKFIT
    Number of shells: 240
    Number of basis function: 816
    Number of Cartesian functions: 816
[...]
      5   C               -0.28  0.21  0.00    0.16  0.08 -0.00    0.00 -0.00 -0.03   
      6   C                0.17  0.23  0.00    0.28  0.03  0.00   -0.00 -0.00 -0.03   
      7   H               -0.30 -0.00  0.00   -0.16 -0.25  0.00    0.00  0.00  0.41   
      8   H                0.33 -0.13  0.00    0.02  0.22  0.00   -0.00  0.00  0.41   
      9   H                0.20 -0.10  0.00    0.06  0.35 -0.00   -0.00  0.00  0.41   
     10   H               -0.20  0.10 -0.00   -0.06 -0.35  0.00    0.00  0.00  0.41   
     11   H               -0.33  0.13 -0.00   -0.02 -0.22  0.00    0.00 -0.00  0.41   
     12   H                0.30  0.00  0.00    0.16  0.25 -0.00   -0.00 -0.00  0.41   

  Vibration                       13                  14                  15          
  Freq [cm^-1]                 866.4374            866.4827            881.2081       
  Irrep                           Bg                  Bg                  Au          
  Reduced mass [u]              1.2479              1.2479              1.1802        
  Force const [mDyne/A]         0.5519              0.5520              0.5399        
  Turning point v=0 [a0]        0.3337              0.3337              0.3403        
  RMS dev v=0 [a0 u^1/2]        0.2636              0.2636              0.2614        
  Char temp [K]               1246.6105           1246.6756           1267.8622       
  ----------------------------------------------------------------------------------
      1   C                0.00  0.00 -0.05    0.00  0.00 -0.07   -0.00 -0.00  0.04   
      2   C               -0.00  0.00  0.03    0.00 -0.00 -0.08   -0.00  0.00  0.03   
      3   C                0.00  0.00 -0.08   -0.00  0.00  0.01   -0.00 -0.00 -0.07   
      4   C                0.00  0.00  0.08   -0.00  0.00 -0.01    0.00 -0.00 -0.07   
      5   C               -0.00 -0.00 -0.03   -0.00 -0.00  0.08    0.00  0.00  0.03   
      6   C               -0.00 -0.00  0.05   -0.00 -0.00  0.07    0.00  0.00  0.04   
      7   H                0.00 -0.00  0.34    0.00 -0.00  0.46   -0.00 -0.00 -0.35   
      8   H               -0.00 -0.00 -0.23    0.00 -0.00  0.52    0.00  0.00 -0.22   
      9   H               -0.00  0.00  0.57   -0.00  0.00 -0.07    0.00 -0.00  0.57   
     10   H                0.00 -0.00 -0.57    0.00  0.00  0.07    0.00 -0.00  0.57   
     11   H               -0.00 -0.00  0.23   -0.00 -0.00 -0.52    0.00  0.00 -0.22   
     12   H                0.00 -0.00 -0.34   -0.00 -0.00 -0.46    0.00  0.00 -0.35   

  Vibration                       16                  17                  18          
  Freq [cm^-1]                 881.2774            887.2199           1001.8181       
  Irrep                           Au                  Bg                  Ag          
  Reduced mass [u]              1.1801              1.0386              5.9615        
  Force const [mDyne/A]         0.5400              0.4817              3.5252        
  Turning point v=0 [a0]        0.3402              0.3615              0.1420        
  RMS dev v=0 [a0 u^1/2]        0.2614              0.2605              0.2451        
  Char temp [K]               1267.9620           1276.5119           1441.3932       
  ----------------------------------------------------------------------------------
      1   C                0.00  0.00  0.06   -0.00 -0.00  0.02    0.24  0.14  0.00   
      2   C                0.00 -0.00 -0.07   -0.00  0.00 -0.02    0.24 -0.14 -0.00   
      3   C               -0.00  0.00  0.01    0.00 -0.00 -0.02    0.00  0.27 -0.00   
      4   C               -0.00  0.00  0.01    0.00  0.00  0.02   -0.00 -0.27  0.00   
      5   C                0.00  0.00 -0.07    0.00 -0.00  0.02   -0.24  0.14  0.00   
      6   C               -0.00 -0.00  0.06    0.00  0.00 -0.02   -0.24 -0.14 -0.00   
      7   H                0.00  0.00 -0.45   -0.00 -0.00  0.41    0.26  0.15  0.00   
      8   H                0.00  0.00  0.53   -0.00  0.00 -0.41    0.27 -0.14 -0.00   
      9   H               -0.00  0.00 -0.08    0.00 -0.00 -0.41    0.01  0.30 -0.00   
     10   H               -0.00  0.00 -0.08    0.00  0.00  0.41   -0.01 -0.30  0.00   
     11   H                0.00  0.00  0.53    0.00 -0.00  0.41   -0.27  0.14  0.00   
     12   H                0.00 -0.00 -0.45    0.00  0.00 -0.41   -0.26 -0.15 -0.00   

  Vibration                       19                  20                  21          
  Freq [cm^-1]                1009.6199           1073.6265           1075.6072       
  Irrep                           Bu                  Bu                  Bu          
  Reduced mass [u]              6.5428              1.8327              1.8485        
  Force const [mDyne/A]         3.9294              1.2447              1.2600        
  Turning point v=0 [a0]        0.1350              0.2474              0.2461        
  RMS dev v=0 [a0 u^1/2]        0.2442              0.2368              0.2366        
  Char temp [K]               1452.6183           1544.7095           1547.5593       
  ----------------------------------------------------------------------------------
      1   C               -0.25 -0.14  0.00    0.08 -0.06  0.00   -0.09 -0.08 -0.00   
      2   C                0.25 -0.15 -0.00   -0.11 -0.01 -0.00   -0.05  0.10 -0.00   
      3   C                0.00  0.29 -0.00    0.02  0.12  0.00    0.09 -0.03  0.00   
      4   C                0.00  0.29  0.00    0.02  0.12 -0.00    0.09 -0.03  0.00   
      5   C                0.25 -0.15  0.00   -0.11 -0.01 -0.00   -0.05  0.10 -0.00   
      6   C               -0.25 -0.14 -0.00    0.08 -0.06  0.00   -0.09 -0.08  0.00   
      7   H               -0.25 -0.14  0.00    0.29 -0.43 -0.00   -0.04 -0.20 -0.00   
      8   H                0.24 -0.15 -0.00   -0.28 -0.29  0.00    0.10  0.37  0.00   
      9   H               -0.01  0.29 -0.00    0.12  0.13  0.00    0.52 -0.03  0.00   
     10   H               -0.01  0.29  0.00    0.12  0.13 -0.00    0.52 -0.03 -0.00   
     11   H                0.24 -0.15  0.00   -0.28 -0.29 -0.00    0.10  0.37 -0.00   
     12   H               -0.25 -0.14 -0.00    0.29 -0.43  0.00   -0.04 -0.20  0.00   

  Vibration                       22                  23                  24          
  Freq [cm^-1]                1213.9062           1227.3412           1229.0118       
  Irrep                           Bu                  Ag                  Ag          
  Reduced mass [u]              1.0767              1.1618              1.1623        
  Force const [mDyne/A]         0.9348              1.0311              1.0344        
  Turning point v=0 [a0]        0.3035              0.2906              0.2903        
  RMS dev v=0 [a0 u^1/2]        0.2227              0.2215              0.2213        
  Char temp [K]               1746.5408           1765.8707           1768.2743       
  ----------------------------------------------------------------------------------
      1   C               -0.02  0.03  0.00    0.01 -0.03 -0.00   -0.03  0.05 -0.00   
      2   C               -0.02 -0.03 -0.00    0.03  0.06  0.00   -0.00 -0.01  0.00   
      3   C                0.03 -0.00  0.00    0.04  0.00 -0.00    0.06 -0.00 -0.00   
      4   C                0.03 -0.00 -0.00   -0.04 -0.00  0.00   -0.06  0.00 -0.00   
      5   C               -0.02 -0.03 -0.00   -0.03 -0.06 -0.00    0.00  0.01  0.00   
      6   C               -0.02  0.03  0.00   -0.01  0.03 -0.00    0.03 -0.05 -0.00   
      7   H               -0.20  0.35 -0.00    0.11 -0.20 -0.00   -0.26  0.46  0.00   
      8   H               -0.21 -0.35  0.00    0.29  0.49  0.00   -0.03 -0.06 -0.00   
      9   H                0.41 -0.00  0.00    0.34 -0.00  0.00    0.46 -0.01 -0.00   
     10   H                0.41 -0.00 -0.00   -0.34  0.00 -0.00   -0.46  0.01  0.00   
     11   H               -0.21 -0.35  0.00   -0.29 -0.49  0.00    0.03  0.06 -0.00   
     12   H               -0.20  0.35 -0.00   -0.11  0.20 -0.00    0.26 -0.46  0.00   

  Vibration                       25                  26                  27          
  Freq [cm^-1]                1409.2862           1438.3576           1531.2541       
  Irrep                           Ag                  Bu                  Bu          
  Reduced mass [u]              1.2479              6.8074              1.8516        
  Force const [mDyne/A]         1.4602              8.2978              2.5580        
  Turning point v=0 [a0]        0.2617              0.1109              0.2061        
  RMS dev v=0 [a0 u^1/2]        0.2067              0.2046              0.1983        
  Char temp [K]               2027.6491           2069.4764           2203.1338       
  ----------------------------------------------------------------------------------
      1   C               -0.03  0.05  0.00   -0.14  0.26  0.00    0.08 -0.11 -0.00   
      2   C                0.03  0.05 -0.00   -0.15 -0.26  0.00   -0.10 -0.04  0.00   
      3   C               -0.06  0.00 -0.00    0.29 -0.00 -0.00    0.05  0.08 -0.00   
      4   C                0.06 -0.00 -0.00    0.29 -0.00  0.00    0.05  0.08 -0.00   
      5   C               -0.03 -0.05 -0.00   -0.15 -0.26  0.00   -0.10 -0.04  0.00   
      6   C                0.03 -0.05  0.00   -0.14  0.26 -0.00    0.08 -0.11 -0.00   
      7   H                0.20 -0.35 -0.00    0.14 -0.25  0.00   -0.25  0.48  0.00   
      8   H               -0.20 -0.35  0.00    0.15  0.25 -0.00    0.10  0.34 -0.00   
      9   H                0.40 -0.00  0.00   -0.27  0.00  0.00   -0.19  0.10  0.00   
     10   H               -0.40  0.00 -0.00   -0.27  0.00  0.00   -0.19  0.10  0.00   
     11   H                0.20  0.35  0.00    0.15  0.25 -0.00    0.10  0.34 -0.00   
     12   H               -0.20  0.35 -0.00    0.14 -0.25  0.00   -0.25  0.48 -0.00   

  Vibration                       28                  29                  30          
  Freq [cm^-1]                1532.9714           1642.1615           1643.5930       
  Irrep                           Bu                  Ag                  Ag          
  Reduced mass [u]              1.8364              4.7117              4.7137        
  Force const [mDyne/A]         2.5426              7.4862              7.5024        
  Turning point v=0 [a0]        0.2068              0.1247              0.1247        
  RMS dev v=0 [a0 u^1/2]        0.1982              0.1915              0.1914        
  Char temp [K]               2205.6045           2362.7048           2364.7644       
  ----------------------------------------------------------------------------------
      1   C                0.06  0.06 -0.00   -0.19  0.17 -0.00   -0.01 -0.21  0.00   
      2   C               -0.01 -0.12 -0.00    0.14 -0.04 -0.00    0.14  0.27 -0.00   
      3   C               -0.13  0.03  0.00    0.28 -0.06 -0.00    0.12  0.13  0.00   
      4   C               -0.13  0.03  0.00   -0.28  0.06  0.00   -0.12 -0.13  0.00   
      5   C               -0.01 -0.12 -0.00   -0.14  0.04  0.00   -0.14 -0.27 -0.00   
      6   C                0.06  0.06  0.00    0.19 -0.17 -0.00    0.01  0.21  0.00   
      7   H                0.13 -0.02 -0.00    0.09 -0.36  0.00   -0.24  0.16 -0.00   
      8   H                0.27  0.33  0.00    0.11 -0.13 -0.00   -0.24 -0.37  0.00   
      9   H                0.51  0.03 -0.00   -0.41 -0.06 -0.00   -0.17  0.15  0.00   
     10   H                0.51  0.03 -0.00    0.41  0.06  0.00    0.17 -0.15 -0.00   
     11   H                0.27  0.33  0.00   -0.11  0.13 -0.00    0.24  0.37  0.00   
     12   H                0.13 -0.02  0.00   -0.09  0.36  0.00    0.24 -0.16 -0.00   

  Vibration                       31                  32                  33          
  Freq [cm^-1]                3128.1981           3141.1275           3142.0001       
  Irrep                           Bu                  Ag                  Ag          
  Reduced mass [u]              1.0837              1.0888              1.0888        
  Force const [mDyne/A]         6.2480              6.3298              6.3330        
  Turning point v=0 [a0]        0.1885              0.1876              0.1876        
  RMS dev v=0 [a0 u^1/2]        0.1387              0.1384              0.1384        
  Char temp [K]               4500.7806           4519.3831           4520.6386       
  ----------------------------------------------------------------------------------
      1   C                0.03  0.02  0.00   -0.04 -0.02  0.00    0.01  0.00 -0.00   
      2   C               -0.03  0.02 -0.00    0.01 -0.00 -0.00   -0.04  0.02 -0.00   
      3   C               -0.00 -0.03 -0.00    0.00  0.04 -0.00   -0.00  0.03 -0.00   
      4   C               -0.00 -0.03 -0.00   -0.00 -0.04  0.00    0.00 -0.03  0.00   
      5   C               -0.03  0.02 -0.00   -0.01  0.00  0.00    0.04 -0.02  0.00   
      6   C                0.03  0.02  0.00    0.04  0.02  0.00   -0.01 -0.00 -0.00   
      7   H               -0.35 -0.20 -0.00    0.48  0.27 -0.00   -0.14 -0.07 -0.00   
      8   H                0.35 -0.20  0.00   -0.12  0.07  0.00    0.48 -0.28  0.00   
      9   H                0.00  0.41 -0.00   -0.00 -0.41 -0.00   -0.00 -0.40 -0.00   
     10   H                0.00  0.41 -0.00    0.00  0.41 -0.00    0.00  0.40 -0.00   
     11   H                0.35 -0.20  0.00    0.12 -0.07  0.00   -0.48  0.28  0.00   
     12   H               -0.35 -0.20 -0.00   -0.48 -0.27 -0.00    0.14  0.07 -0.00   

  Vibration                       34                  35                  36          
  Freq [cm^-1]                3158.0945           3158.8119           3168.5645       
  Irrep                           Bu                  Bu                  Ag          
  Reduced mass [u]              1.0969              1.0968              1.1015        
  Force const [mDyne/A]         6.4456              6.4479              6.5154        
  Turning point v=0 [a0]        0.1864              0.1864              0.1857        
  RMS dev v=0 [a0 u^1/2]        0.1381              0.1380              0.1378        
  Char temp [K]               4543.7949           4544.8270           4558.8589       
  ----------------------------------------------------------------------------------
      1   C               -0.02 -0.02 -0.00   -0.04 -0.02  0.00   -0.03 -0.02  0.00   
      2   C               -0.04  0.03 -0.00    0.01  0.00 -0.00   -0.03  0.02  0.00   
      3   C                0.00  0.02 -0.00    0.00 -0.05  0.00   -0.00 -0.04 -0.00   
      4   C                0.00  0.02  0.00    0.00 -0.05 -0.00    0.00  0.04  0.00   
      5   C               -0.04  0.03  0.00    0.01  0.00  0.00    0.03 -0.02 -0.00   
      6   C               -0.02 -0.02  0.00   -0.04 -0.02  0.00    0.03  0.02 -0.00   
      7   H                0.29  0.17  0.00    0.41  0.23 -0.00    0.35  0.20  0.00   
      8   H                0.50 -0.29  0.00   -0.06  0.03 -0.00    0.35 -0.20 -0.00   
      9   H               -0.01 -0.23  0.00    0.00  0.52 -0.00    0.00  0.41 -0.00   
     10   H               -0.01 -0.23 -0.00    0.00  0.52 -0.00   -0.00 -0.41 -0.00   
     11   H                0.50 -0.29  0.00   -0.06  0.03 -0.00   -0.35  0.20 -0.00   
     12   H                0.29  0.17 -0.00    0.41  0.23  0.00   -0.35 -0.20 -0.00   

  ==> Thermochemistry Components <==

  Entropy, S
    Electronic S            0.000 [cal/(mol K)]        0.000 [J/(mol K)]       0.00000000 [mEh/K] (multiplicity = 1)
    Translational S        38.979 [cal/(mol K)]      163.089 [J/(mol K)]       0.06211726 [mEh/K] (mol. weight = 78.0470 [u], P = 101325.00 [Pa])
    Rotational S           24.318 [cal/(mol K)]      101.746 [J/(mol K)]       0.03875307 [mEh/K] (symmetry no. = 2)
    Vibrational S           4.574 [cal/(mol K)]       19.139 [J/(mol K)]       0.00728955 [mEh/K]
  Total S                  67.871 [cal/(mol K)]      283.974 [J/(mol K)]       0.10815988 [mEh/K]
  Correction S              0.000 [cal/(mol K)]        0.000 [J/(mol K)]       0.00000000 [mEh/K]

  Constant volume heat capacity, Cv
    Electronic Cv           0.000 [cal/(mol K)]        0.000 [J/(mol K)]       0.00000000 [mEh/K]
    Translational Cv        2.981 [cal/(mol K)]       12.472 [J/(mol K)]       0.00475022 [mEh/K]
    Rotational Cv           2.981 [cal/(mol K)]       12.472 [J/(mol K)]       0.00475022 [mEh/K]
    Vibrational Cv         10.833 [cal/(mol K)]       45.327 [J/(mol K)]       0.01726410 [mEh/K]
  Total Cv                 16.795 [cal/(mol K)]       70.270 [J/(mol K)]       0.02676454 [mEh/K]
  Correction Cv             0.000 [cal/(mol K)]        0.000 [J/(mol K)]       0.00000000 [mEh/K]

  Constant pressure heat capacity, Cp
    Electronic Cp           0.000 [cal/(mol K)]        0.000 [J/(mol K)]       0.00000000 [mEh/K]
    Translational Cp        4.968 [cal/(mol K)]       20.786 [J/(mol K)]       0.00791703 [mEh/K]
    Rotational Cp           2.981 [cal/(mol K)]       12.472 [J/(mol K)]       0.00475022 [mEh/K]
    Vibrational Cp         10.833 [cal/(mol K)]       45.327 [J/(mol K)]       0.01726410 [mEh/K]
  Total Cp                 18.782 [cal/(mol K)]       78.585 [J/(mol K)]       0.02993135 [mEh/K]
  Correction Cp             0.000 [cal/(mol K)]        0.000 [J/(mol K)]       0.00000000 [mEh/K]

  ==> Thermochemistry Energy Analysis <==

  Raw electronic energy, E0
  Total E0, Electronic energy at well bottom at 0 [K]                 -231.54894001 [Eh]

  Zero-point energy, ZPE_vib = Sum_i nu_i / 2
    Electronic ZPE          0.000 [kcal/mol]        0.000 [kJ/mol]       0.00000000 [Eh]
    Translational ZPE       0.000 [kcal/mol]        0.000 [kJ/mol]       0.00000000 [Eh]
    Rotational ZPE          0.000 [kcal/mol]        0.000 [kJ/mol]       0.00000000 [Eh]
    Vibrational ZPE        61.491 [kcal/mol]      257.277 [kJ/mol]       0.09799154 [Eh]       21506.658 [cm^-1]
  Correction ZPE           61.491 [kcal/mol]      257.277 [kJ/mol]       0.09799154 [Eh]       21506.658 [cm^-1]
  Total ZPE, Electronic energy at 0 [K]                               -231.45094847 [Eh]

  Thermal Energy, E (includes ZPE)
    Electronic E            0.000 [kcal/mol]        0.000 [kJ/mol]       0.00000000 [Eh]
    Translational E         0.889 [kcal/mol]        3.718 [kJ/mol]       0.00141628 [Eh]
    Rotational E            0.889 [kcal/mol]        3.718 [kJ/mol]       0.00141628 [Eh]
    Vibrational E          62.485 [kcal/mol]      261.437 [kJ/mol]       0.09957628 [Eh]
  Correction E             64.263 [kcal/mol]      268.874 [kJ/mol]       0.10240883 [Eh]
  Total E, Electronic energy at  298.15 [K]                           -231.44653118 [Eh]

  Enthalpy, H_trans = E_trans + k_B * T
    Electronic H            0.000 [kcal/mol]        0.000 [kJ/mol]       0.00000000 [Eh]
    Translational H         1.481 [kcal/mol]        6.197 [kJ/mol]       0.00236046 [Eh]
    Rotational H            0.889 [kcal/mol]        3.718 [kJ/mol]       0.00141628 [Eh]
    Vibrational H          62.485 [kcal/mol]      261.437 [kJ/mol]       0.09957628 [Eh]
  Correction H             64.855 [kcal/mol]      271.353 [kJ/mol]       0.10335302 [Eh]
  Total H, Enthalpy at  298.15 [K]                                    -231.44558700 [Eh]

  Gibbs free energy, G = H - T * S
    Electronic G            0.000 [kcal/mol]        0.000 [kJ/mol]       0.00000000 [Eh]
    Translational G       -10.140 [kcal/mol]      -42.428 [kJ/mol]      -0.01615980 [Eh]
    Rotational G           -6.362 [kcal/mol]      -26.617 [kJ/mol]      -0.01013795 [Eh]
    Vibrational G          61.121 [kcal/mol]      255.731 [kJ/mol]       0.09740290 [Eh]
  Correction G             44.619 [kcal/mol]      186.687 [kJ/mol]       0.07110515 [Eh]
  Total G, Free enthalpy at  298.15 [K]                               -231.47783486 [Eh]

    Psi4 stopped on: Tuesday, 19 April 2022 10:19PM
    Psi4 wall time for execution: 0:08:41.22

*** Psi4 exiting successfully. Buy a developer a beer!
