
    -----------------------------------------------------------------------
          Psi4: An Open-Source Ab Initio Electronic Structure Package
                               Psi4 1.3.2 release

                         Git: Rev {HEAD} ecbda83 


    R. M. Parrish, L. A. Burns, D. G. A. Smith, A. C. Simmonett,
    A. E. DePrince III, E. G. Hohenstein, U. Bozkaya, A. Yu. Sokolov,
    R. Di Remigio, R. M. Richard, J. F. Gonthier, A. M. James,
    H. R. McAlexander, A. Kumar, M. Saitow, X. Wang, B. P. Pritchard,
    P. Verma, H. F. Schaefer III, K. Patkowski, R. A. King, E. F. Valeev,
    F. A. Evangelista, J. M. Turney, T. D. Crawford, and C. D. Sherrill,
    J. Chem. Theory Comput. 13(7) pp 3185--3197 (2017).
    (doi: 10.1021/acs.jctc.7b00174)


                         Additional Contributions by
    P. Kraus, H. Kruse, M. H. Lechner, M. C. Schieber, R. A. Shaw,
    A. Alenaizan, R. Galvelis, Z. L. Glick, S. Lehtola, and J. P. Misiewicz

    -----------------------------------------------------------------------


    Psi4 started on: Wednesday, 20 April 2022 03:28AM

    Process ID: 13076
    Host:       atlantis
    PSIDATADIR: /home/akrom/software/anaconda3/envs/ffpenv/share/psi4
    Memory:     500.0 MiB
    Threads:    1
    
  ==> Input File <==

--------------------------------------------------------------------------
set basis  aug-cc-pVDZ
molecule {
0 1
   C       -1.22151       -0.69325        0.00000
   C       -1.21114        0.71122        0.00000
   C       -0.01037       -1.40452        0.00000
   C        0.01037        1.40452        0.00000
   C        1.21114       -0.71122        0.00000
   C        1.22151        0.69325        0.00000
   H       -2.17311       -1.23332        0.00000
   H       -2.15464        1.26533        0.00000
   H       -0.01848       -2.49865        0.00000
   H        0.01848        2.49865        0.00000
   H        2.15464       -1.26533        0.00000
   H        2.17311        1.23332        0.00000
}
energy('m06-2x')
frequencies('m06-2x')
--------------------------------------------------------------------------

*** tstart() called on atlantis
*** at Wed Apr 20 03:28:06 2022

   => Loading Basis Set <=

    Name: AUG-CC-PVDZ
    Role: ORBITAL
    Keyword: BASIS
    atoms 1-6  entry C          line   178 file /home/akrom/software/anaconda3/envs/ffpenv/share/psi4/basis/aug-cc-pvdz.gbs 
    atoms 7-12 entry H          line    36 file /home/akrom/software/anaconda3/envs/ffpenv/share/psi4/basis/aug-cc-pvdz.gbs 


         ---------------------------------------------------------
                                   SCF
               by Justin Turney, Rob Parrish, Andy Simmonett
                          and Daniel G. A. Smith
                              RKS Reference
                        1 Threads,    500 MiB Core
         ---------------------------------------------------------

  ==> Geometry <==

    Molecular point group: c2h
    Full point group: C2h

    Geometry (in Angstrom), charge = 0, multiplicity = 1:

       Center              X                  Y                   Z               Mass       
    ------------   -----------------  -----------------  -----------------  -----------------
         C           -1.221510000000    -0.693250000000     0.000000000000    12.000000000000
         C           -1.211140000000     0.711220000000     0.000000000000    12.000000000000
         C           -0.010370000000    -1.404520000000     0.000000000000    12.000000000000
         C            0.010370000000     1.404520000000     0.000000000000    12.000000000000
         C            1.211140000000    -0.711220000000     0.000000000000    12.000000000000
         C            1.221510000000     0.693250000000     0.000000000000    12.000000000000
         H           -2.173110000000    -1.233320000000     0.000000000000     1.007825032230
         H           -2.154640000000     1.265330000000     0.000000000000     1.007825032230
         H           -0.018480000000    -2.498650000000     0.000000000000     1.007825032230
         H            0.018480000000     2.498650000000     0.000000000000     1.007825032230
         H            2.154640000000    -1.265330000000     0.000000000000     1.007825032230
         H            2.173110000000     1.233320000000     0.000000000000     1.007825032230

  Running in c2h symmetry.

  Rotational constants: A =      0.18753  B =      0.18752  C =      0.09376 [cm^-1]
  Rotational constants: A =   5621.92707  B =   5621.82252  C =   2810.93740 [MHz]
  Nuclear repulsion =  202.013308935380167

  Charge       = 0
  Multiplicity = 1
  Electrons    = 42
  Nalpha       = 21
  Nbeta        = 21

  ==> Algorithm <==

  SCF Algorithm Type is DF.
  DIIS enabled.
  MOM disabled.
  Fractional occupation disabled.
  Guess Type is SAD.
  Energy threshold   = 1.00e-06
  Density threshold  = 1.00e-06
  Integral threshold = 0.00e+00

  ==> Primary Basis <==

  Basis Set: AUG-CC-PVDZ
    Blend: AUG-CC-PVDZ
    Number of shells: 84
    Number of basis function: 192
    Number of Cartesian functions: 204
    Spherical Harmonics?: true
    Max angular momentum: 2

  ==> DFT Potential <==

   => Composite Functional: M06-2X <= 

    Hybrid M06-2X Meta-GGA XC Functional

    Y. Zhao and D. G. Truhlar,  Theor. Chem. Acc., 120, 215, 2008


    Deriv               =              1
    GGA                 =           TRUE
    Meta                =           TRUE

    Exchange Hybrid     =           TRUE
    MP2 Hybrid          =          FALSE

   => Exchange Functionals <=

    1.0000   XC_HYB_MGGA_X_M06_2X

   => Exact (HF) Exchange <=

    0.5400               HF 

   => Correlation Functionals <=

    1.0000   XC_MGGA_C_M06_2X

   => Molecular Quadrature <=

    Radial Scheme          =       TREUTLER
    Pruning Scheme         =           FLAT
    Nuclear Scheme         =       TREUTLER

    BS radius alpha        =              1
    Pruning alpha          =              1
    Radial Points          =             75
    Spherical Points       =            302
    Total Points           =         271800
    Total Blocks           =           2142
    Max Points             =            256
    Max Functions          =            192

   => Loading Basis Set <=

    Name: (AUG-CC-PVDZ AUX)
    Role: JKFIT
    Keyword: DF_BASIS_SCF
    atoms 1-6  entry C          line   154 file /home/akrom/software/anaconda3/envs/ffpenv/share/psi4/basis/aug-cc-pvdz-jkfit.gbs 
    atoms 7-12 entry H          line    70 file /home/akrom/software/anaconda3/envs/ffpenv/share/psi4/basis/aug-cc-pvdz-jkfit.gbs 

  ==> Pre-Iterations <==

   -------------------------------------------------------
    Irrep   Nso     Nmo     Nalpha   Nbeta   Ndocc  Nsocc
   -------------------------------------------------------
     Ag        69      69       0       0       0       0
     Bg        27      27       0       0       0       0
     Au        27      27       0       0       0       0
     Bu        69      69       0       0       0       0
   -------------------------------------------------------
    Total     192     192      21      21      21       0
   -------------------------------------------------------

  ==> Integral Setup <==

  DFHelper Memory: AOs need 0.204 GiB; user supplied 0.204 GiB. Using in-core AOs.

  ==> MemDFJK: Density-Fitted J/K Matrices <==

    J tasked:                   Yes
    K tasked:                   Yes
    wK tasked:                   No
    OpenMP threads:               1
    Memory [MiB]:               208
    Algorithm:                 Core
    Schwarz Cutoff:           1E-12
    Mask sparsity (%):       0.1465
    Fitting Condition:        1E-10

   => Auxiliary Basis Set <=

  Basis Set: (AUG-CC-PVDZ AUX)
    Blend: AUG-CC-PVDZ-JKFIT
    Number of shells: 240
    Number of basis function: 708
    Number of Cartesian functions: 816
    Spherical Harmonics?: true
    Max angular momentum: 3

  Cached 4.8% of DFT collocation blocks in 0.175 [GiB].

  Minimum eigenvalue in the overlap matrix is 2.5980864004E-06.
  Using Symmetric Orthogonalization.

  SCF Guess: Superposition of Atomic Densities via on-the-fly atomic UHF.

  ==> Iterations <==

                           Total Energy        Delta E     RMS |[F,P]|

   @DF-RKS iter SAD:  -231.58472663118829   -2.31585e+02   0.00000e+00 
   @DF-RKS iter   1:  -231.82857253237074   -2.43846e-01   7.27709e-03 DIIS
   @DF-RKS iter   2:  -231.86665028430701   -3.80778e-02   7.07367e-03 DIIS
   @DF-RKS iter   3:  -232.17021679024336   -3.03567e-01   4.58028e-04 DIIS
   @DF-RKS iter   4:  -232.17132221451175   -1.10542e-03   7.88737e-05 DIIS
   @DF-RKS iter   5:  -232.17136428712391   -4.20726e-05   6.28860e-06 DIIS
   @DF-RKS iter   6:  -232.17136465750349   -3.70380e-07   6.58731e-07 DIIS
  Energy and wave function converged.


  ==> Post-Iterations <==

    Orbital Energies [Eh]
    ---------------------

    Doubly Occupied:                                                      

       1Ag   -10.558101     1Bu   -10.557820     2Bu   -10.557812  
       2Ag   -10.557101     3Ag   -10.557093     3Bu   -10.556750  
       4Ag    -0.954751     4Bu    -0.840320     5Bu    -0.840314  
       5Ag    -0.683841     6Ag    -0.683826     7Ag    -0.595487  
       6Bu    -0.533272     7Bu    -0.509324     8Bu    -0.485647  
       9Bu    -0.485633     1Au    -0.435408     8Ag    -0.401388  
       9Ag    -0.401385     1Bg    -0.306738     2Bg    -0.306730  

    Virtual:                                                              

      10Ag    -0.002499    10Bu     0.010555    11Bu     0.010557  
       2Au     0.015183     3Au     0.015189    11Ag     0.029553  
      12Ag     0.029555    12Bu     0.054035     4Au     0.065569  
      13Ag     0.084532     3Bg     0.089544     4Bg     0.089547  
      13Bu     0.093500    14Bu     0.107019    15Bu     0.107026  
      14Ag     0.108918    15Ag     0.108922    16Ag     0.116818  
      16Bu     0.119372    17Bu     0.119377     5Au     0.130727  
       6Au     0.130737     5Bg     0.139288    18Bu     0.140529  
      17Ag     0.143106    18Ag     0.143109     6Bg     0.210506  
      19Ag     0.229305    20Ag     0.232986    19Bu     0.242677  
      20Bu     0.242680    21Ag     0.251203    22Ag     0.251209  
       7Au     0.252257    23Ag     0.266272    24Ag     0.266287  
      21Bu     0.277064    22Bu     0.277072    23Bu     0.299369  
      24Bu     0.306197    25Bu     0.329045    26Bu     0.337390  
      27Bu     0.337406     7Bg     0.346672     8Bg     0.346677  
      25Ag     0.352456    26Ag     0.352460    27Ag     0.406942  
       8Au     0.421294     9Au     0.421295     9Bg     0.449866  
      28Bu     0.454385    29Bu     0.454401    28Ag     0.458630  
      29Ag     0.458640    10Bg     0.473118    10Au     0.485790  
      30Ag     0.489337    31Ag     0.508679    32Ag     0.511612  
      30Bu     0.549724    11Au     0.557003    12Au     0.557017  
      31Bu     0.569334    32Bu     0.569337    33Ag     0.588025  
      34Ag     0.588031    33Bu     0.591821    34Bu     0.591825  
      11Bg     0.633443    12Bg     0.633466    35Bu     0.651712  
      35Ag     0.666708    36Ag     0.666712    36Bu     0.670867  
      13Au     0.674729    37Ag     0.682434    37Bu     0.702572  
      38Bu     0.702603    38Ag     0.765618    39Ag     0.765623  
      13Bg     0.779182    14Bg     0.779207    14Au     0.794242  
      15Au     0.794255    40Ag     0.803201    41Ag     0.803219  
      15Bg     0.810547    39Bu     0.814649    16Bg     0.826713  
      17Bg     0.826723    42Ag     0.830783    40Bu     0.932140  
      41Bu     0.933360    42Bu     0.933393    16Au     0.962558  
      17Au     1.001485    18Au     1.001523    43Ag     1.013018  
      43Bu     1.167048    44Bu     1.167093    18Bg     1.232303  
      19Bg     1.302320    45Bu     1.306750    46Bu     1.329701  
      47Bu     1.329753    19Au     1.350996    44Ag     1.352396  
      45Ag     1.352422    48Bu     1.388226    46Ag     1.405123  
      49Bu     1.430096    50Bu     1.430110    47Ag     1.438626  
      48Ag     1.438657    49Ag     1.445010    20Au     1.491861  
      21Au     1.491879    20Bg     1.514824    21Bg     1.514889  
      50Ag     1.564199    51Ag     1.564263    51Bu     1.568416  
      52Ag     1.619431    53Ag     1.669051    22Au     1.679166  
      23Au     1.679204    52Bu     1.712260    53Bu     1.712278  
      54Ag     1.734982    55Ag     1.739104    56Ag     1.739111  
      54Bu     1.765609    22Bg     1.766768    24Au     1.847032  
      55Bu     1.854251    56Bu     1.854270    23Bg     1.873164  
      24Bg     1.873186    25Bg     1.941779    26Bg     1.941792  
      57Ag     1.957079    58Ag     1.957122    57Bu     2.006401  
      58Bu     2.006445    59Bu     2.026338    25Au     2.102691  
      26Au     2.102701    60Bu     2.113455    59Ag     2.126186  
      60Ag     2.172465    61Ag     2.172584    27Au     2.324200  
      27Bg     2.380597    62Ag     2.474156    63Ag     2.493112  
      64Ag     2.493203    61Bu     2.495265    62Bu     2.495358  
      63Bu     2.657748    64Bu     2.668940    65Bu     2.668996  
      65Ag     2.804481    66Ag     2.804617    66Bu     2.808478  
      67Bu     2.808537    67Ag     3.032006    68Ag     3.214652  
      69Ag     3.214750    68Bu     3.506409    69Bu     4.438442  

    Final Occupation by Irrep:
             Ag    Bg    Au    Bu 
    DOCC [     9,    2,    1,    9 ]

  @DF-RKS Final Energy:  -232.17136465750349

   => Energetics <=

    Nuclear Repulsion Energy =            202.0133089353801665
    One-Electron Energy =                -710.9838268383714421
    Two-Electron Energy =                 293.5189262787379221
    DFT Exchange-Correlation Energy =     -16.7197730332501102
    Empirical Dispersion Energy =           0.0000000000000000
    VV10 Nonlocal Energy =                  0.0000000000000000
    Total Energy =                       -232.1713646575034602

Computation Completed


Properties will be evaluated at   0.000000,   0.000000,   0.000000 [a0]

Properties computed using the SCF density matrix

  Nuclear Dipole Moment: [e a0]
     X:    -0.0000      Y:    -0.0000      Z:     0.0000

  Electronic Dipole Moment: [e a0]
     X:     0.0000      Y:     0.0000      Z:     0.0000

  Dipole Moment: [e a0]
     X:    -0.0000      Y:    -0.0000      Z:     0.0000     Total:     0.0000

  Dipole Moment: [D]
     X:    -0.0000      Y:    -0.0000      Z:     0.0000     Total:     0.0000


*** tstop() called on atlantis at Wed Apr 20 03:28:40 2022
Module time:
	user time   =      33.92 seconds =       0.57 minutes
	system time =       0.11 seconds =       0.00 minutes
	total time  =         34 seconds =       0.57 minutes
Total time:
	user time   =      33.92 seconds =       0.57 minutes
	system time =       0.11 seconds =       0.00 minutes
	total time  =         34 seconds =       0.57 minutes
gradient() will perform analytic gradient computation.

*** tstart() called on atlantis
*** at Wed Apr 20 03:28:40 2022

   => Loading Basis Set <=

    Name: AUG-CC-PVDZ
    Role: ORBITAL
    Keyword: BASIS
    atoms 1-6  entry C          line   178 file /home/akrom/software/anaconda3/envs/ffpenv/share/psi4/basis/aug-cc-pvdz.gbs 
    atoms 7-12 entry H          line    36 file /home/akrom/software/anaconda3/envs/ffpenv/share/psi4/basis/aug-cc-pvdz.gbs 


         ---------------------------------------------------------
                                   SCF
               by Justin Turney, Rob Parrish, Andy Simmonett
                          and Daniel G. A. Smith
                              RKS Reference
                        1 Threads,    500 MiB Core
         ---------------------------------------------------------

  ==> Geometry <==

    Molecular point group: c2h
    Full point group: C2h

    Geometry (in Angstrom), charge = 0, multiplicity = 1:

       Center              X                  Y                   Z               Mass       
    ------------   -----------------  -----------------  -----------------  -----------------
         C           -1.221510000000    -0.693250000000     0.000000000000    12.000000000000
         C           -1.211140000000     0.711220000000     0.000000000000    12.000000000000
         C           -0.010370000000    -1.404520000000     0.000000000000    12.000000000000
         C            0.010370000000     1.404520000000     0.000000000000    12.000000000000
         C            1.211140000000    -0.711220000000     0.000000000000    12.000000000000
         C            1.221510000000     0.693250000000     0.000000000000    12.000000000000
         H           -2.173110000000    -1.233320000000     0.000000000000     1.007825032230
         H           -2.154640000000     1.265330000000     0.000000000000     1.007825032230
         H           -0.018480000000    -2.498650000000     0.000000000000     1.007825032230
         H            0.018480000000     2.498650000000     0.000000000000     1.007825032230
         H            2.154640000000    -1.265330000000     0.000000000000     1.007825032230
         H            2.173110000000     1.233320000000     0.000000000000     1.007825032230

  Running in c2h symmetry.

  Rotational constants: A =      0.18753  B =      0.18752  C =      0.09376 [cm^-1]
  Rotational constants: A =   5621.92707  B =   5621.82252  C =   2810.93740 [MHz]
  Nuclear repulsion =  202.013308935380167

  Charge       = 0
  Multiplicity = 1
  Electrons    = 42
  Nalpha       = 21
  Nbeta        = 21

  ==> Algorithm <==

  SCF Algorithm Type is DF.
  DIIS enabled.
  MOM disabled.
  Fractional occupation disabled.
  Guess Type is SAD.
  Energy threshold   = 1.00e-08
  Density threshold  = 1.00e-08
  Integral threshold = 0.00e+00

  ==> Primary Basis <==

  Basis Set: AUG-CC-PVDZ
    Blend: AUG-CC-PVDZ
    Number of shells: 84
    Number of basis function: 192
    Number of Cartesian functions: 204
    Spherical Harmonics?: true
    Max angular momentum: 2

  ==> DFT Potential <==

   => Composite Functional: M06-2X <= 

    Hybrid M06-2X Meta-GGA XC Functional

    Y. Zhao and D. G. Truhlar,  Theor. Chem. Acc., 120, 215, 2008


    Deriv               =              1
    GGA                 =           TRUE
    Meta                =           TRUE

    Exchange Hybrid     =           TRUE
    MP2 Hybrid          =          FALSE

   => Exchange Functionals <=

    1.0000   XC_HYB_MGGA_X_M06_2X

   => Exact (HF) Exchange <=

    0.5400               HF 

   => Correlation Functionals <=

    1.0000   XC_MGGA_C_M06_2X

   => Molecular Quadrature <=

    Radial Scheme          =       TREUTLER
    Pruning Scheme         =           FLAT
    Nuclear Scheme         =       TREUTLER

    BS radius alpha        =              1
    Pruning alpha          =              1
    Radial Points          =             75
    Spherical Points       =            302
    Total Points           =         271800
    Total Blocks           =           2142
    Max Points             =            256
    Max Functions          =            192

   => Loading Basis Set <=

    Name: (AUG-CC-PVDZ AUX)
    Role: JKFIT
    Keyword: DF_BASIS_SCF
    atoms 1-6  entry C          line   154 file /home/akrom/software/anaconda3/envs/ffpenv/share/psi4/basis/aug-cc-pvdz-jkfit.gbs 
    atoms 7-12 entry H          line    70 file /home/akrom/software/anaconda3/envs/ffpenv/share/psi4/basis/aug-cc-pvdz-jkfit.gbs 

  ==> Pre-Iterations <==

   -------------------------------------------------------
    Irrep   Nso     Nmo     Nalpha   Nbeta   Ndocc  Nsocc
   -------------------------------------------------------
     Ag        69      69       0       0       0       0
     Bg        27      27       0       0       0       0
     Au        27      27       0       0       0       0
     Bu        69      69       0       0       0       0
   -------------------------------------------------------
    Total     192     192      21      21      21       0
   -------------------------------------------------------

  ==> Integral Setup <==

  DFHelper Memory: AOs need 0.204 GiB; user supplied 0.204 GiB. Using in-core AOs.

  ==> MemDFJK: Density-Fitted J/K Matrices <==

    J tasked:                   Yes
    K tasked:                   Yes
    wK tasked:                   No
    OpenMP threads:               1
    Memory [MiB]:               208
    Algorithm:                 Core
    Schwarz Cutoff:           1E-12
    Mask sparsity (%):       0.1465
    Fitting Condition:        1E-10

   => Auxiliary Basis Set <=

  Basis Set: (AUG-CC-PVDZ AUX)
    Blend: AUG-CC-PVDZ-JKFIT
    Number of shells: 240
    Number of basis function: 708
    Number of Cartesian functions: 816
    Spherical Harmonics?: true
    Max angular momentum: 3

  Cached 4.8% of DFT collocation blocks in 0.175 [GiB].

  Minimum eigenvalue in the overlap matrix is 2.5980863999E-06.
  Using Symmetric Orthogonalization.

  SCF Guess: Superposition of Atomic Densities via on-the-fly atomic UHF.

  ==> Iterations <==

                           Total Energy        Delta E     RMS |[F,P]|

   @DF-RKS iter SAD:  -231.58472663219067   -2.31585e+02   0.00000e+00 
   @DF-RKS iter   1:  -231.82857253370111   -2.43846e-01   7.27709e-03 DIIS
   @DF-RKS iter   2:  -231.86665028542066   -3.80778e-02   7.07367e-03 DIIS
   @DF-RKS iter   3:  -232.17021679165322   -3.03567e-01   4.58028e-04 DIIS
   @DF-RKS iter   4:  -232.17132221592018   -1.10542e-03   7.88737e-05 DIIS
   @DF-RKS iter   5:  -232.17136428853243   -4.20726e-05   6.28860e-06 DIIS
   @DF-RKS iter   6:  -232.17136465891150   -3.70379e-07   6.58731e-07 DIIS
   @DF-RKS iter   7:  -232.17136466442565   -5.51415e-09   8.81687e-08 DIIS
   @DF-RKS iter   8:  -232.17136466446408   -3.84262e-11   7.49124e-08 DIIS
   @DF-RKS iter   9:  -232.17136466449369   -2.96154e-11   3.61219e-09 DIIS
  Energy and wave function converged.


  ==> Post-Iterations <==

    Orbital Energies [Eh]
    ---------------------

    Doubly Occupied:                                                      

       1Ag   -10.558102     1Bu   -10.557820     2Bu   -10.557814  
       2Ag   -10.557101     3Ag   -10.557095     3Bu   -10.556751  
       4Ag    -0.954752     4Bu    -0.840321     5Bu    -0.840316  
       5Ag    -0.683841     6Ag    -0.683827     7Ag    -0.595487  
       6Bu    -0.533272     7Bu    -0.509325     8Bu    -0.485647  
       9Bu    -0.485634     1Au    -0.435410     8Ag    -0.401389  
       9Ag    -0.401385     1Bg    -0.306739     2Bg    -0.306732  

    Virtual:                                                              

      10Ag    -0.002500    10Bu     0.010555    11Bu     0.010556  
       2Au     0.015182     3Au     0.015189    11Ag     0.029553  
      12Ag     0.029555    12Bu     0.054035     4Au     0.065568  
      13Ag     0.084532     3Bg     0.089543     4Bg     0.089547  
      13Bu     0.093500    14Bu     0.107018    15Bu     0.107025  
      14Ag     0.108918    15Ag     0.108922    16Ag     0.116818  
      16Bu     0.119373    17Bu     0.119377     5Au     0.130726  
       6Au     0.130737     5Bg     0.139287    18Bu     0.140529  
      17Ag     0.143106    18Ag     0.143109     6Bg     0.210505  
      19Ag     0.229302    20Ag     0.232986    19Bu     0.242676  
      20Bu     0.242680    21Ag     0.251202    22Ag     0.251208  
       7Au     0.252256    23Ag     0.266272    24Ag     0.266286  
      21Bu     0.277065    22Bu     0.277072    23Bu     0.299368  
      24Bu     0.306196    25Bu     0.329045    26Bu     0.337390  
      27Bu     0.337406     7Bg     0.346673     8Bg     0.346677  
      25Ag     0.352455    26Ag     0.352460    27Ag     0.406940  
       8Au     0.421295     9Au     0.421295     9Bg     0.449865  
      28Bu     0.454385    29Bu     0.454402    28Ag     0.458630  
      29Ag     0.458640    10Bg     0.473119    10Au     0.485789  
      30Ag     0.489337    31Ag     0.508679    32Ag     0.511612  
      30Bu     0.549725    11Au     0.557002    12Au     0.557016  
      31Bu     0.569333    32Bu     0.569337    33Ag     0.588024  
      34Ag     0.588031    33Bu     0.591823    34Bu     0.591826  
      11Bg     0.633443    12Bg     0.633466    35Bu     0.651713  
      35Ag     0.666709    36Ag     0.666714    36Bu     0.670867  
      13Au     0.674729    37Ag     0.682435    37Bu     0.702573  
      38Bu     0.702604    38Ag     0.765619    39Ag     0.765625  
      13Bg     0.779182    14Bg     0.779206    14Au     0.794242  
      15Au     0.794256    40Ag     0.803201    41Ag     0.803219  
      15Bg     0.810548    39Bu     0.814650    16Bg     0.826714  
      17Bg     0.826723    42Ag     0.830783    40Bu     0.932140  
      41Bu     0.933361    42Bu     0.933394    16Au     0.962558  
      17Au     1.001485    18Au     1.001522    43Ag     1.013018  
      43Bu     1.167048    44Bu     1.167093    18Bg     1.232302  
      19Bg     1.302320    45Bu     1.306750    46Bu     1.329701  
      47Bu     1.329752    19Au     1.350995    44Ag     1.352396  
      45Ag     1.352421    48Bu     1.388224    46Ag     1.405122  
      49Bu     1.430096    50Bu     1.430110    47Ag     1.438626  
      48Ag     1.438657    49Ag     1.445009    20Au     1.491860  
      21Au     1.491879    20Bg     1.514824    21Bg     1.514888  
      50Ag     1.564199    51Ag     1.564263    51Bu     1.568415  
      52Ag     1.619430    53Ag     1.669050    22Au     1.679165  
      23Au     1.679204    52Bu     1.712259    53Bu     1.712276  
      54Ag     1.734979    55Ag     1.739103    56Ag     1.739110  
      54Bu     1.765610    22Bg     1.766767    24Au     1.847032  
      55Bu     1.854250    56Bu     1.854270    23Bg     1.873164  
      24Bg     1.873185    25Bg     1.941778    26Bg     1.941792  
      57Ag     1.957078    58Ag     1.957121    57Bu     2.006400  
      58Bu     2.006445    59Bu     2.026338    25Au     2.102691  
      26Au     2.102700    60Bu     2.113454    59Ag     2.126186  
      60Ag     2.172464    61Ag     2.172584    27Au     2.324199  
      27Bg     2.380596    62Ag     2.474157    63Ag     2.493112  
      64Ag     2.493203    61Bu     2.495265    62Bu     2.495359  
      63Bu     2.657748    64Bu     2.668940    65Bu     2.668995  
      65Ag     2.804480    66Ag     2.804617    66Bu     2.808478  
      67Bu     2.808536    67Ag     3.032005    68Ag     3.214651  
      69Ag     3.214750    68Bu     3.506408    69Bu     4.438442  

    Final Occupation by Irrep:
             Ag    Bg    Au    Bu 
    DOCC [     9,    2,    1,    9 ]

  @DF-RKS Final Energy:  -232.17136466449369

   => Energetics <=

    Nuclear Repulsion Energy =            202.0133089353801665
    One-Electron Energy =                -710.9835911854099777
    Two-Electron Energy =                 293.5186892221803987
    DFT Exchange-Correlation Energy =     -16.7197716366442819
    Empirical Dispersion Energy =           0.0000000000000000
    VV10 Nonlocal Energy =                  0.0000000000000000
    Total Energy =                       -232.1713646644936944

Computation Completed


Properties will be evaluated at   0.000000,   0.000000,   0.000000 [a0]

Properties computed using the SCF density matrix

  Nuclear Dipole Moment: [e a0]
     X:    -0.0000      Y:    -0.0000      Z:     0.0000

  Electronic Dipole Moment: [e a0]
     X:     0.0000      Y:     0.0000      Z:     0.0000

  Dipole Moment: [e a0]
     X:    -0.0000      Y:    -0.0000      Z:     0.0000     Total:     0.0000

  Dipole Moment: [D]
     X:    -0.0000      Y:    -0.0000      Z:     0.0000     Total:     0.0000


*** tstop() called on atlantis at Wed Apr 20 03:29:28 2022
Module time:
	user time   =      47.29 seconds =       0.79 minutes
	system time =       0.08 seconds =       0.00 minutes
	total time  =         48 seconds =       0.80 minutes
Total time:
	user time   =      81.21 seconds =       1.35 minutes
	system time =       0.19 seconds =       0.00 minutes
	total time  =         82 seconds =       1.37 minutes

*** tstart() called on atlantis
*** at Wed Apr 20 03:29:28 2022


         ------------------------------------------------------------
                                   SCF GRAD                          
                          Rob Parrish, Justin Turney,                
                       Andy Simmonett, and Alex Sokolov              
         ------------------------------------------------------------

  ==> Geometry <==

    Molecular point group: c2h
    Full point group: C2h

    Geometry (in Angstrom), charge = 0, multiplicity = 1:

       Center              X                  Y                   Z               Mass       
    ------------   -----------------  -----------------  -----------------  -----------------
         C           -1.221510000000    -0.693250000000     0.000000000000    12.000000000000
         C           -1.211140000000     0.711220000000     0.000000000000    12.000000000000
         C           -0.010370000000    -1.404520000000     0.000000000000    12.000000000000
         C            0.010370000000     1.404520000000     0.000000000000    12.000000000000
         C            1.211140000000    -0.711220000000     0.000000000000    12.000000000000
         C            1.221510000000     0.693250000000     0.000000000000    12.000000000000
         H           -2.173110000000    -1.233320000000     0.000000000000     1.007825032230
         H           -2.154640000000     1.265330000000     0.000000000000     1.007825032230
         H           -0.018480000000    -2.498650000000     0.000000000000     1.007825032230
         H            0.018480000000     2.498650000000     0.000000000000     1.007825032230
         H            2.154640000000    -1.265330000000     0.000000000000     1.007825032230
         H            2.173110000000     1.233320000000     0.000000000000     1.007825032230

  Nuclear repulsion =  202.013308935380167

  ==> Basis Set <==

  Basis Set: AUG-CC-PVDZ
    Blend: AUG-CC-PVDZ
    Number of shells: 84
    Number of basis function: 192
    Number of Cartesian functions: 204
    Spherical Harmonics?: true
    Max angular momentum: 2

  ==> DFJKGrad: Density-Fitted SCF Gradients <==

    Gradient:                    1
    J tasked:                  Yes
    K tasked:                  Yes
    wK tasked:                  No
    OpenMP threads:              1
    Integrals threads:           1
    Memory [MiB]:              375
    Schwarz Cutoff:          0E+00
    Fitting Condition:       1E-10

   => Auxiliary Basis Set <=

  Basis Set: (AUG-CC-PVDZ AUX)
    Blend: AUG-CC-PVDZ-JKFIT
    Number of shells: 240
    Number of basis function: 708
    Number of Cartesian functions: 816
    Spherical Harmonics?: true
    Max angular momentum: 3

  ==> DFT Potential <==

   => Composite Functional: M06-2X <= 

    Hybrid M06-2X Meta-GGA XC Functional

    Y. Zhao and D. G. Truhlar,  Theor. Chem. Acc., 120, 215, 2008


    Deriv               =              1
    GGA                 =           TRUE
    Meta                =           TRUE

    Exchange Hybrid     =           TRUE
    MP2 Hybrid          =          FALSE

   => Exchange Functionals <=

    1.0000   XC_HYB_MGGA_X_M06_2X

   => Exact (HF) Exchange <=

    0.5400               HF 

   => Correlation Functionals <=

    1.0000   XC_MGGA_C_M06_2X

   => Molecular Quadrature <=

    Radial Scheme          =       TREUTLER
    Pruning Scheme         =           FLAT
    Nuclear Scheme         =       TREUTLER

    BS radius alpha        =              1
    Pruning alpha          =              1
    Radial Points          =             75
    Spherical Points       =            302
    Total Points           =         271800
    Total Blocks           =           2142
    Max Points             =            256
    Max Functions          =            192


  -Total Gradient:
     Atom            X                  Y                   Z
    ------   -----------------  -----------------  -----------------
       1       -0.004991274416    -0.002816686418     0.000000000000
       2       -0.004959541676     0.002929717673     0.000000000000
       3       -0.000023321328    -0.005779922247     0.000000000000
       4        0.000023321328     0.005779922247     0.000000000000
       5        0.004959541676    -0.002929717673     0.000000000000
       6        0.004991274416     0.002816686418     0.000000000000
       7       -0.002955437615    -0.001723794301     0.000000000000
       8       -0.002922387351     0.001808688731     0.000000000000
       9       -0.000012729714    -0.003418908000     0.000000000000
      10        0.000012729714     0.003418908000     0.000000000000
      11        0.002922387351    -0.001808688731     0.000000000000
      12        0.002955437615     0.001723794301     0.000000000000


*** tstop() called on atlantis at Wed Apr 20 03:29:38 2022
Module time:
	user time   =      10.22 seconds =       0.17 minutes
	system time =       0.11 seconds =       0.00 minutes
	total time  =         10 seconds =       0.17 minutes
Total time:
	user time   =      91.43 seconds =       1.52 minutes
	system time =       0.30 seconds =       0.01 minutes
	total time  =         92 seconds =       1.53 minutes

  Based on options and gradient (rms=2.73E-03), recommend projecting translations and projecting rotations.
hessian() will perform frequency computation by finite difference of analytic gradients.

         ----------------------------------------------------------
                                   FINDIF
                     R. A. King and Jonathon Misiewicz
         ---------------------------------------------------------

  Using finite-differences of gradients to determine vibrational frequencies and 
  normal modes.  Resulting frequencies are only valid at stationary points.
    Generating geometries for use with 3-point formula.
    Displacement size will be 5.00e-03.
    Number of atoms is 12.
    Number of irreps is 4.
    Number of SALCs is 30.
    Translations projected? 1. Rotations projected? 1.
    Index of SALCs per irrep:
     1 :  0  1  2  3  4  5  6  7  8  9  10 
     2 :  11  12  13  14 
     3 :  15  16  17  18  19 
     4 :  20  21  22  23  24  25  26  27  28  29 
    Number of SALCs per irrep:
     Irrep 1: 11
     Irrep 2: 4
     Irrep 3: 5
     Irrep 4: 10
    Number of geometries (including reference) is 42.
    Number of displacements per irrep:
      Irrep 1: 22
      Irrep 2: 4
      Irrep 3: 5
      Irrep 4: 10

  //>>>>>>>>>>>>>>>>>>>>>>>>>>>>>>>>>>>//
  //    Loading displacement 1 of 42   //
  //<<<<<<<<<<<<<<<<<<<<<<<<<<<<<<<<<<<//
gradient() will perform analytic gradient computation.

*** tstart() called on atlantis
*** at Wed Apr 20 03:29:38 2022

   => Loading Basis Set <=

    Name: AUG-CC-PVDZ
    Role: ORBITAL
    Keyword: BASIS
    atoms 1-6  entry C          line   178 file /home/akrom/software/anaconda3/envs/ffpenv/share/psi4/basis/aug-cc-pvdz.gbs 
    atoms 7-12 entry H          line    36 file /home/akrom/software/anaconda3/envs/ffpenv/share/psi4/basis/aug-cc-pvdz.gbs 


         ---------------------------------------------------------
                                   SCF
               by Justin Turney, Rob Parrish, Andy Simmonett
                          and Daniel G. A. Smith
                              RKS Reference
                        1 Threads,    500 MiB Core
         ---------------------------------------------------------

  ==> Geometry <==

    Molecular point group: c2h
    Full point group: C2h

    Geometry (in Angstrom), charge = 0, multiplicity = 1:

       Center              X                  Y                   Z               Mass       
    ------------   -----------------  -----------------  -----------------  -----------------
         C           -1.221510000000    -0.693250000000     0.000000000000    12.000000000000
         C           -1.211140000000     0.711220000000     0.000000000000    12.000000000000
         C           -0.010370000000    -1.404520000000     0.000000000000    12.000000000000
         C            0.010370000000     1.404520000000     0.000000000000    12.000000000000
         C            1.211140000000    -0.711220000000     0.000000000000    12.000000000000
         C            1.221510000000     0.693250000000     0.000000000000    12.000000000000
         H           -2.173110000000    -1.233320000000     0.000000000000     1.007825032230
         H           -2.154640000000     1.265330000000     0.000000000000     1.007825032230
         H           -0.018480000000    -2.498650000000     0.000000000000     1.007825032230
         H            0.018480000000     2.498650000000     0.000000000000     1.007825032230
         H            2.154640000000    -1.265330000000     0.000000000000     1.007825032230
         H            2.173110000000     1.233320000000     0.000000000000     1.007825032230

  Running in c2h symmetry.

  Rotational constants: A =      0.18753  B =      0.18752  C =      0.09376 [cm^-1]
  Rotational constants: A =   5621.92707  B =   5621.82252  C =   2810.93740 [MHz]
  Nuclear repulsion =  202.013308935380167

  Charge       = 0
  Multiplicity = 1
  Electrons    = 42
  Nalpha       = 21
  Nbeta        = 21

  ==> Algorithm <==

  SCF Algorithm Type is DF.
  DIIS enabled.
  MOM disabled.
  Fractional occupation disabled.
  Guess Type is SAD.
  Energy threshold   = 1.00e-08
  Density threshold  = 1.00e-08
  Integral threshold = 0.00e+00

  ==> Primary Basis <==

  Basis Set: AUG-CC-PVDZ
    Blend: AUG-CC-PVDZ
    Number of shells: 84
    Number of basis function: 192
    Number of Cartesian functions: 204
    Spherical Harmonics?: true
    Max angular momentum: 2

  ==> DFT Potential <==

   => Composite Functional: M06-2X <= 

    Hybrid M06-2X Meta-GGA XC Functional

    Y. Zhao and D. G. Truhlar,  Theor. Chem. Acc., 120, 215, 2008


    Deriv               =              1
    GGA                 =           TRUE
    Meta                =           TRUE

    Exchange Hybrid     =           TRUE
    MP2 Hybrid          =          FALSE

   => Exchange Functionals <=

    1.0000   XC_HYB_MGGA_X_M06_2X

   => Exact (HF) Exchange <=

    0.5400               HF 

   => Correlation Functionals <=

    1.0000   XC_MGGA_C_M06_2X

   => Molecular Quadrature <=

    Radial Scheme          =       TREUTLER
    Pruning Scheme         =           FLAT
    Nuclear Scheme         =       TREUTLER

    BS radius alpha        =              1
    Pruning alpha          =              1
    Radial Points          =             75
    Spherical Points       =            302
    Total Points           =         271800
    Total Blocks           =           2142
    Max Points             =            256
    Max Functions          =            192

   => Loading Basis Set <=

    Name: (AUG-CC-PVDZ AUX)
    Role: JKFIT
    Keyword: DF_BASIS_SCF
    atoms 1-6  entry C          line   154 file /home/akrom/software/anaconda3/envs/ffpenv/share/psi4/basis/aug-cc-pvdz-jkfit.gbs 
    atoms 7-12 entry H          line    70 file /home/akrom/software/anaconda3/envs/ffpenv/share/psi4/basis/aug-cc-pvdz-jkfit.gbs 

  ==> Pre-Iterations <==

   -------------------------------------------------------
    Irrep   Nso     Nmo     Nalpha   Nbeta   Ndocc  Nsocc
   -------------------------------------------------------
     Ag        69      69       0       0       0       0
     Bg        27      27       0       0       0       0
     Au        27      27       0       0       0       0
     Bu        69      69       0       0       0       0
   -------------------------------------------------------
    Total     192     192      21      21      21       0
   -------------------------------------------------------

  ==> Integral Setup <==

  DFHelper Memory: AOs need 0.204 GiB; user supplied 0.204 GiB. Using in-core AOs.

  ==> MemDFJK: Density-Fitted J/K Matrices <==

    J tasked:                   Yes
    K tasked:                   Yes
    wK tasked:                   No
    OpenMP threads:               1
    Memory [MiB]:               208
    Algorithm:                 Core
    Schwarz Cutoff:           1E-12
    Mask sparsity (%):       0.1465
    Fitting Condition:        1E-10

   => Auxiliary Basis Set <=

  Basis Set: (AUG-CC-PVDZ AUX)
    Blend: AUG-CC-PVDZ-JKFIT
    Number of shells: 240
    Number of basis function: 708
    Number of Cartesian functions: 816
    Spherical Harmonics?: true
    Max angular momentum: 3

  Cached 4.8% of DFT collocation blocks in 0.175 [GiB].

  Minimum eigenvalue in the overlap matrix is 2.5980864001E-06.
  Using Symmetric Orthogonalization.

  SCF Guess: Superposition of Atomic Densities via on-the-fly atomic UHF.

  ==> Iterations <==

                           Total Energy        Delta E     RMS |[F,P]|

   @DF-RKS iter SAD:  -231.58472663009624   -2.31585e+02   0.00000e+00 
   @DF-RKS iter   1:  -231.82857253108395   -2.43846e-01   7.27709e-03 DIIS
   @DF-RKS iter   2:  -231.86665028341099   -3.80778e-02   7.07367e-03 DIIS
   @DF-RKS iter   3:  -232.17021678890569   -3.03567e-01   4.58028e-04 DIIS
   @DF-RKS iter   4:  -232.17132221317235   -1.10542e-03   7.88737e-05 DIIS
   @DF-RKS iter   5:  -232.17136428578416   -4.20726e-05   6.28860e-06 DIIS
   @DF-RKS iter   6:  -232.17136465616400   -3.70380e-07   6.58731e-07 DIIS
   @DF-RKS iter   7:  -232.17136466167830   -5.51429e-09   8.81683e-08 DIIS
   @DF-RKS iter   8:  -232.17136466171561   -3.73177e-11   7.49119e-08 DIIS
   @DF-RKS iter   9:  -232.17136466174563   -3.00133e-11   3.61221e-09 DIIS
  Energy and wave function converged.


  ==> Post-Iterations <==

    Orbital Energies [Eh]
    ---------------------

    Doubly Occupied:                                                      

       1Ag   -10.558102     1Bu   -10.557820     2Bu   -10.557814  
       2Ag   -10.557101     3Ag   -10.557095     3Bu   -10.556751  
       4Ag    -0.954752     4Bu    -0.840321     5Bu    -0.840316  
       5Ag    -0.683841     6Ag    -0.683827     7Ag    -0.595487  
       6Bu    -0.533272     7Bu    -0.509325     8Bu    -0.485647  
       9Bu    -0.485634     1Au    -0.435410     8Ag    -0.401389  
       9Ag    -0.401385     1Bg    -0.306739     2Bg    -0.306732  

    Virtual:                                                              

      10Ag    -0.002500    10Bu     0.010555    11Bu     0.010556  
       2Au     0.015182     3Au     0.015189    11Ag     0.029553  
      12Ag     0.029555    12Bu     0.054035     4Au     0.065568  
      13Ag     0.084532     3Bg     0.089543     4Bg     0.089547  
      13Bu     0.093500    14Bu     0.107018    15Bu     0.107025  
      14Ag     0.108918    15Ag     0.108922    16Ag     0.116818  
      16Bu     0.119373    17Bu     0.119377     5Au     0.130726  
       6Au     0.130737     5Bg     0.139287    18Bu     0.140529  
      17Ag     0.143106    18Ag     0.143109     6Bg     0.210505  
      19Ag     0.229301    20Ag     0.232986    19Bu     0.242676  
      20Bu     0.242680    21Ag     0.251202    22Ag     0.251208  
       7Au     0.252256    23Ag     0.266272    24Ag     0.266286  
      21Bu     0.277065    22Bu     0.277072    23Bu     0.299369  
      24Bu     0.306196    25Bu     0.329045    26Bu     0.337390  
      27Bu     0.337406     7Bg     0.346673     8Bg     0.346677  
      25Ag     0.352455    26Ag     0.352460    27Ag     0.406940  
       8Au     0.421295     9Au     0.421295     9Bg     0.449865  
      28Bu     0.454385    29Bu     0.454402    28Ag     0.458630  
      29Ag     0.458640    10Bg     0.473119    10Au     0.485789  
      30Ag     0.489337    31Ag     0.508679    32Ag     0.511612  
      30Bu     0.549725    11Au     0.557002    12Au     0.557016  
      31Bu     0.569333    32Bu     0.569337    33Ag     0.588024  
      34Ag     0.588031    33Bu     0.591823    34Bu     0.591826  
      11Bg     0.633443    12Bg     0.633466    35Bu     0.651713  
      35Ag     0.666709    36Ag     0.666714    36Bu     0.670868  
      13Au     0.674729    37Ag     0.682435    37Bu     0.702573  
      38Bu     0.702604    38Ag     0.765619    39Ag     0.765625  
      13Bg     0.779182    14Bg     0.779206    14Au     0.794242  
      15Au     0.794256    40Ag     0.803201    41Ag     0.803219  
      15Bg     0.810548    39Bu     0.814650    16Bg     0.826714  
      17Bg     0.826723    42Ag     0.830783    40Bu     0.932141  
      41Bu     0.933361    42Bu     0.933394    16Au     0.962558  
      17Au     1.001485    18Au     1.001522    43Ag     1.013018  
      43Bu     1.167048    44Bu     1.167093    18Bg     1.232302  
      19Bg     1.302320    45Bu     1.306750    46Bu     1.329701  
      47Bu     1.329752    19Au     1.350995    44Ag     1.352396  
      45Ag     1.352421    48Bu     1.388224    46Ag     1.405122  
      49Bu     1.430096    50Bu     1.430110    47Ag     1.438626  
      48Ag     1.438657    49Ag     1.445009    20Au     1.491860  
      21Au     1.491879    20Bg     1.514824    21Bg     1.514888  
      50Ag     1.564199    51Ag     1.564263    51Bu     1.568415  
      52Ag     1.619431    53Ag     1.669050    22Au     1.679165  
      23Au     1.679204    52Bu     1.712259    53Bu     1.712276  
      54Ag     1.734982    55Ag     1.739103    56Ag     1.739110  
      54Bu     1.765610    22Bg     1.766767    24Au     1.847032  
      55Bu     1.854250    56Bu     1.854270    23Bg     1.873164  
      24Bg     1.873185    25Bg     1.941778    26Bg     1.941792  
      57Ag     1.957078    58Ag     1.957121    57Bu     2.006400  
      58Bu     2.006445    59Bu     2.026338    25Au     2.102691  
      26Au     2.102700    60Bu     2.113454    59Ag     2.126186  
      60Ag     2.172464    61Ag     2.172584    27Au     2.324199  
      27Bg     2.380596    62Ag     2.474157    63Ag     2.493112  
      64Ag     2.493203    61Bu     2.495265    62Bu     2.495359  
      63Bu     2.657748    64Bu     2.668940    65Bu     2.668995  
      65Ag     2.804480    66Ag     2.804617    66Bu     2.808478  
      67Bu     2.808536    67Ag     3.032006    68Ag     3.214651  
      69Ag     3.214750    68Bu     3.506408    69Bu     4.438442  

    Final Occupation by Irrep:
             Ag    Bg    Au    Bu 
    DOCC [     9,    2,    1,    9 ]

  @DF-RKS Final Energy:  -232.17136466174563

   => Energetics <=

    Nuclear Repulsion Energy =            202.0133089353801665
    One-Electron Energy =                -710.9835911875782131
    Two-Electron Energy =                 293.5186892268612837
    DFT Exchange-Correlation Energy =     -16.7197716364089004
    Empirical Dispersion Energy =           0.0000000000000000
    VV10 Nonlocal Energy =                  0.0000000000000000
    Total Energy =                       -232.1713646617456561

Computation Completed


Properties will be evaluated at   0.000000,   0.000000,   0.000000 [a0]

Properties computed using the SCF density matrix

  Nuclear Dipole Moment: [e a0]
     X:    -0.0000      Y:    -0.0000      Z:     0.0000

  Electronic Dipole Moment: [e a0]
     X:     0.0000      Y:     0.0000      Z:     0.0000

  Dipole Moment: [e a0]
     X:    -0.0000      Y:    -0.0000      Z:     0.0000     Total:     0.0000

  Dipole Moment: [D]
     X:    -0.0000      Y:    -0.0000      Z:     0.0000     Total:     0.0000


*** tstop() called on atlantis at Wed Apr 20 03:30:26 2022
Module time:
	user time   =      47.86 seconds =       0.80 minutes
	system time =       0.09 seconds =       0.00 minutes
	total time  =         48 seconds =       0.80 minutes
Total time:
	user time   =     139.58 seconds =       2.33 minutes
	system time =       0.39 seconds =       0.01 minutes
	total time  =        140 seconds =       2.33 minutes

*** tstart() called on atlantis
*** at Wed Apr 20 03:30:26 2022


         ------------------------------------------------------------
                                   SCF GRAD                          
                          Rob Parrish, Justin Turney,                
                       Andy Simmonett, and Alex Sokolov              
         ------------------------------------------------------------

  ==> Geometry <==

    Molecular point group: c2h
    Full point group: C2h

    Geometry (in Angstrom), charge = 0, multiplicity = 1:

       Center              X                  Y                   Z               Mass       
    ------------   -----------------  -----------------  -----------------  -----------------
         C           -1.221510000000    -0.693250000000     0.000000000000    12.000000000000
         C           -1.211140000000     0.711220000000     0.000000000000    12.000000000000
         C           -0.010370000000    -1.404520000000     0.000000000000    12.000000000000
         C            0.010370000000     1.404520000000     0.000000000000    12.000000000000
         C            1.211140000000    -0.711220000000     0.000000000000    12.000000000000
         C            1.221510000000     0.693250000000     0.000000000000    12.000000000000
         H           -2.173110000000    -1.233320000000     0.000000000000     1.007825032230
         H           -2.154640000000     1.265330000000     0.000000000000     1.007825032230
         H           -0.018480000000    -2.498650000000     0.000000000000     1.007825032230
         H            0.018480000000     2.498650000000     0.000000000000     1.007825032230
         H            2.154640000000    -1.265330000000     0.000000000000     1.007825032230
         H            2.173110000000     1.233320000000     0.000000000000     1.007825032230

  Nuclear repulsion =  202.013308935380167

  ==> Basis Set <==

  Basis Set: AUG-CC-PVDZ
    Blend: AUG-CC-PVDZ
    Number of shells: 84
    Number of basis function: 192
    Number of Cartesian functions: 204
    Spherical Harmonics?: true
    Max angular momentum: 2

  ==> DFJKGrad: Density-Fitted SCF Gradients <==

    Gradient:                    1
    J tasked:                  Yes
    K tasked:                  Yes
    wK tasked:                  No
    OpenMP threads:              1
    Integrals threads:           1
    Memory [MiB]:              375
    Schwarz Cutoff:          0E+00
    Fitting Condition:       1E-10

   => Auxiliary Basis Set <=

  Basis Set: (AUG-CC-PVDZ AUX)
    Blend: AUG-CC-PVDZ-JKFIT
    Number of shells: 240
    Number of basis function: 708
    Number of Cartesian functions: 816
    Spherical Harmonics?: true
    Max angular momentum: 3

  ==> DFT Potential <==

   => Composite Functional: M06-2X <= 

    Hybrid M06-2X Meta-GGA XC Functional

    Y. Zhao and D. G. Truhlar,  Theor. Chem. Acc., 120, 215, 2008


    Deriv               =              1
    GGA                 =           TRUE
    Meta                =           TRUE

    Exchange Hybrid     =           TRUE
    MP2 Hybrid          =          FALSE

   => Exchange Functionals <=

    1.0000   XC_HYB_MGGA_X_M06_2X

   => Exact (HF) Exchange <=

    0.5400               HF 

   => Correlation Functionals <=

    1.0000   XC_MGGA_C_M06_2X

   => Molecular Quadrature <=

    Radial Scheme          =       TREUTLER
    Pruning Scheme         =           FLAT
    Nuclear Scheme         =       TREUTLER

    BS radius alpha        =              1
    Pruning alpha          =              1
    Radial Points          =             75
    Spherical Points       =            302
    Total Points           =         271800
    Total Blocks           =           2142
    Max Points             =            256
    Max Functions          =            192


  -Total Gradient:
     Atom            X                  Y                   Z
    ------   -----------------  -----------------  -----------------
       1       -0.004990881070    -0.002816425037     0.000000000000
       2       -0.004959156271     0.002929451129     0.000000000000
       3       -0.000023320135    -0.005779500007     0.000000000000
       4        0.000023320135     0.005779500007     0.000000000000
       5        0.004959156271    -0.002929451129     0.000000000000
       6        0.004990881070     0.002816425037     0.000000000000
       7       -0.002955508201    -0.001723821953     0.000000000000
       8       -0.002922455996     0.001808719316     0.000000000000
       9       -0.000012729718    -0.003418999928     0.000000000000
      10        0.000012729718     0.003418999928     0.000000000000
      11        0.002922455996    -0.001808719316     0.000000000000
      12        0.002955508201     0.001723821953     0.000000000000


*** tstop() called on atlantis at Wed Apr 20 03:30:37 2022
Module time:
	user time   =      10.27 seconds =       0.17 minutes
	system time =       0.10 seconds =       0.00 minutes
	total time  =         11 seconds =       0.18 minutes
Total time:
	user time   =     149.85 seconds =       2.50 minutes
	system time =       0.49 seconds =       0.01 minutes
	total time  =        151 seconds =       2.52 minutes

  //>>>>>>>>>>>>>>>>>>>>>>>>>>>>>>>>>>>//
  //    Loading displacement 2 of 42   //
  //<<<<<<<<<<<<<<<<<<<<<<<<<<<<<<<<<<<//
gradient() will perform analytic gradient computation.

*** tstart() called on atlantis
*** at Wed Apr 20 03:30:37 2022

   => Loading Basis Set <=

    Name: AUG-CC-PVDZ
    Role: ORBITAL
    Keyword: BASIS
    atoms 1-6  entry C          line   178 file /home/akrom/software/anaconda3/envs/ffpenv/share/psi4/basis/aug-cc-pvdz.gbs 
    atoms 7-12 entry H          line    36 file /home/akrom/software/anaconda3/envs/ffpenv/share/psi4/basis/aug-cc-pvdz.gbs 


         ---------------------------------------------------------
                                   SCF
               by Justin Turney, Rob Parrish, Andy Simmonett
                          and Daniel G. A. Smith
                              RKS Reference
                        1 Threads,    500 MiB Core
         ---------------------------------------------------------

  ==> Geometry <==

    Molecular point group: c2h
    Full point group: C2h

    Geometry (in Angstrom), charge = 0, multiplicity = 1:

       Center              X                  Y                   Z               Mass       
    ------------   -----------------  -----------------  -----------------  -----------------
         C           -1.222032477591    -0.693313109608     0.000000000000    12.000000000000
         C           -1.211176745353     0.711157426160     0.000000000000    12.000000000000
         C           -0.010297435136    -1.404520535769     0.000000000000    12.000000000000
         C            0.010297435136     1.404520535769     0.000000000000    12.000000000000
         C            1.211176745353    -0.711157426160     0.000000000000    12.000000000000
         C            1.222032477591     0.693313109608     0.000000000000    12.000000000000
         H           -2.173046280225    -1.233432274252     0.000000000000     1.007825032230
         H           -2.154705373579     1.265218680005     0.000000000000     1.007825032230
         H           -0.018350906646    -2.498650954774     0.000000000000     1.007825032230
         H            0.018350906646     2.498650954774     0.000000000000     1.007825032230
         H            2.154705373579    -1.265218680005     0.000000000000     1.007825032230
         H            2.173046280225     1.233432274252     0.000000000000     1.007825032230

  Running in c2h symmetry.

  Rotational constants: A =      0.18753  B =      0.18745  C =      0.09375 [cm^-1]
  Rotational constants: A =   5621.97670  B =   5619.72613  C =   2810.42560 [MHz]
  Nuclear repulsion =  201.998047561272216

  Charge       = 0
  Multiplicity = 1
  Electrons    = 42
  Nalpha       = 21
  Nbeta        = 21

  ==> Algorithm <==

  SCF Algorithm Type is DF.
  DIIS enabled.
  MOM disabled.
  Fractional occupation disabled.
  Guess Type is SAD.
  Energy threshold   = 1.00e-08
  Density threshold  = 1.00e-08
  Integral threshold = 0.00e+00

  ==> Primary Basis <==

  Basis Set: AUG-CC-PVDZ
    Blend: AUG-CC-PVDZ
    Number of shells: 84
    Number of basis function: 192
    Number of Cartesian functions: 204
    Spherical Harmonics?: true
    Max angular momentum: 2

  ==> DFT Potential <==

   => Composite Functional: M06-2X <= 

    Hybrid M06-2X Meta-GGA XC Functional

    Y. Zhao and D. G. Truhlar,  Theor. Chem. Acc., 120, 215, 2008


    Deriv               =              1
    GGA                 =           TRUE
    Meta                =           TRUE

    Exchange Hybrid     =           TRUE
    MP2 Hybrid          =          FALSE

   => Exchange Functionals <=

    1.0000   XC_HYB_MGGA_X_M06_2X

   => Exact (HF) Exchange <=

    0.5400               HF 

   => Correlation Functionals <=

    1.0000   XC_MGGA_C_M06_2X

   => Molecular Quadrature <=

    Radial Scheme          =       TREUTLER
    Pruning Scheme         =           FLAT
    Nuclear Scheme         =       TREUTLER

    BS radius alpha        =              1
    Pruning alpha          =              1
    Radial Points          =             75
    Spherical Points       =            302
    Total Points           =         271800
    Total Blocks           =           2142
    Max Points             =            256
    Max Functions          =            192

   => Loading Basis Set <=

    Name: (AUG-CC-PVDZ AUX)
    Role: JKFIT
    Keyword: DF_BASIS_SCF
    atoms 1-6  entry C          line   154 file /home/akrom/software/anaconda3/envs/ffpenv/share/psi4/basis/aug-cc-pvdz-jkfit.gbs 
    atoms 7-12 entry H          line    70 file /home/akrom/software/anaconda3/envs/ffpenv/share/psi4/basis/aug-cc-pvdz-jkfit.gbs 

  ==> Pre-Iterations <==

   -------------------------------------------------------
    Irrep   Nso     Nmo     Nalpha   Nbeta   Ndocc  Nsocc
   -------------------------------------------------------
     Ag        69      69       0       0       0       0
     Bg        27      27       0       0       0       0
     Au        27      27       0       0       0       0
     Bu        69      69       0       0       0       0
   -------------------------------------------------------
    Total     192     192      21      21      21       0
   -------------------------------------------------------

  ==> Integral Setup <==

  DFHelper Memory: AOs need 0.204 GiB; user supplied 0.204 GiB. Using in-core AOs.

  ==> MemDFJK: Density-Fitted J/K Matrices <==

    J tasked:                   Yes
    K tasked:                   Yes
    wK tasked:                   No
    OpenMP threads:               1
    Memory [MiB]:               208
    Algorithm:                 Core
    Schwarz Cutoff:           1E-12
    Mask sparsity (%):       0.1465
    Fitting Condition:        1E-10

   => Auxiliary Basis Set <=

  Basis Set: (AUG-CC-PVDZ AUX)
    Blend: AUG-CC-PVDZ-JKFIT
    Number of shells: 240
    Number of basis function: 708
    Number of Cartesian functions: 816
    Spherical Harmonics?: true
    Max angular momentum: 3

  Cached 4.8% of DFT collocation blocks in 0.165 [GiB].

  Minimum eigenvalue in the overlap matrix is 2.6017390529E-06.
  Using Symmetric Orthogonalization.

  SCF Guess: Superposition of Atomic Densities via on-the-fly atomic UHF.

  ==> Iterations <==

                           Total Energy        Delta E     RMS |[F,P]|

   @DF-RKS iter SAD:  -231.58386725095033   -2.31584e+02   0.00000e+00 
   @DF-RKS iter   1:  -231.82892003009292   -2.45053e-01   7.27448e-03 DIIS
   @DF-RKS iter   2:  -231.86718117473055   -3.82611e-02   7.06874e-03 DIIS
   @DF-RKS iter   3:  -232.17032659623879   -3.03145e-01   4.57961e-04 DIIS
   @DF-RKS iter   4:  -232.17143180768551   -1.10521e-03   7.88285e-05 DIIS
   @DF-RKS iter   5:  -232.17147382207042   -4.20144e-05   6.31267e-06 DIIS
   @DF-RKS iter   6:  -232.17147419055169   -3.68481e-07   1.01974e-06 DIIS
   @DF-RKS iter   7:  -232.17147419516508   -4.61338e-09   8.81778e-07 DIIS
   @DF-RKS iter   8:  -232.17147419935549   -4.19041e-09   5.69580e-08 DIIS
   @DF-RKS iter   9:  -232.17147419938016   -2.46700e-11   2.61089e-09 DIIS
  Energy and wave function converged.


  ==> Post-Iterations <==

    Orbital Energies [Eh]
    ---------------------

    Doubly Occupied:                                                      

       1Ag   -10.558135     1Bu   -10.557861     2Bu   -10.557839  
       2Ag   -10.557143     3Ag   -10.557119     3Bu   -10.556784  
       4Ag    -0.954679     4Bu    -0.840345     5Bu    -0.840235  
       5Ag    -0.683922     6Ag    -0.683761     7Ag    -0.595490  
       6Bu    -0.533358     7Bu    -0.509285     8Bu    -0.485726  
       9Bu    -0.485578     1Au    -0.435350     8Ag    -0.401555  
       9Ag    -0.401260     1Bg    -0.306768     2Bg    -0.306649  

    Virtual:                                                              

      10Ag    -0.002499    10Bu     0.010553    11Bu     0.010559  
       2Au     0.015094     3Au     0.015216    11Ag     0.029552  
      12Ag     0.029554    12Bu     0.054034     4Au     0.065543  
      13Ag     0.084497     3Bg     0.089549     4Bg     0.089555  
      13Bu     0.093502    14Bu     0.107017    15Bu     0.107041  
      14Ag     0.108912    15Ag     0.108924    16Ag     0.116825  
      16Bu     0.119380    17Bu     0.119386     5Au     0.130723  
       6Au     0.130734     5Bg     0.139273    18Bu     0.140528  
      17Ag     0.143103    18Ag     0.143110     6Bg     0.210440  
      19Ag     0.229299    20Ag     0.233000    19Bu     0.242651  
      20Bu     0.242690    21Ag     0.251187    22Ag     0.251206  
       7Au     0.252249    23Ag     0.266243    24Ag     0.266286  
      21Bu     0.277011    22Bu     0.277165    23Bu     0.299376  
      24Bu     0.306226    25Bu     0.329038    26Bu     0.337358  
      27Bu     0.337406     7Bg     0.346680     8Bg     0.346685  
      25Ag     0.352467    26Ag     0.352493    27Ag     0.406951  
       8Au     0.421292     9Au     0.421311     9Bg     0.449823  
      28Bu     0.454247    29Bu     0.454421    28Ag     0.458491  
      29Ag     0.458648    10Bg     0.473111    10Au     0.485834  
      30Ag     0.489331    31Ag     0.508644    32Ag     0.511631  
      30Bu     0.549642    11Au     0.556945    12Au     0.556983  
      31Bu     0.569313    32Bu     0.569333    33Ag     0.587988  
      34Ag     0.588032    33Bu     0.591836    34Bu     0.591857  
      11Bg     0.633448    12Bg     0.633473    35Bu     0.651718  
      35Ag     0.666724    36Ag     0.666770    36Bu     0.670856  
      13Au     0.674775    37Ag     0.682274    37Bu     0.702493  
      38Bu     0.702632    38Ag     0.765611    39Ag     0.765708  
      13Bg     0.778969    14Bg     0.779146    14Au     0.794240  
      15Au     0.794272    40Ag     0.803114    41Ag     0.803244  
      15Bg     0.810550    39Bu     0.814542    16Bg     0.826660  
      17Bg     0.826716    42Ag     0.830777    40Bu     0.932136  
      41Bu     0.933248    42Bu     0.933533    16Au     0.962525  
      17Au     1.001382    18Au     1.001516    43Ag     1.013001  
      43Bu     1.166750    44Bu     1.167295    18Bg     1.232299  
      19Bg     1.302252    45Bu     1.306759    46Bu     1.329205  
      47Bu     1.329771    19Au     1.351057    44Ag     1.352357  
      45Ag     1.352471    48Bu     1.388264    46Ag     1.405207  
      49Bu     1.429977    50Bu     1.430060    47Ag     1.438532  
      48Ag     1.438701    49Ag     1.444992    20Au     1.491808  
      21Au     1.491831    20Bg     1.514827    21Bg     1.514948  
      50Ag     1.564055    51Ag     1.564220    51Bu     1.568348  
      52Ag     1.619459    53Ag     1.669302    22Au     1.679105  
      23Au     1.679285    52Bu     1.712095    53Bu     1.712224  
      54Ag     1.734952    55Ag     1.739041    56Ag     1.739110  
      54Bu     1.765499    22Bg     1.766781    24Au     1.847188  
      55Bu     1.854055    56Bu     1.854605    23Bg     1.873173  
      24Bg     1.873235    25Bg     1.941486    26Bg     1.942061  
      57Ag     1.956878    58Ag     1.957093    57Bu     2.006324  
      58Bu     2.006499    59Bu     2.026377    25Au     2.102636  
      26Au     2.102909    60Bu     2.113348    59Ag     2.126245  
      60Ag     2.172427    61Ag     2.172726    27Au     2.323999  
      27Bg     2.380600    62Ag     2.474536    63Ag     2.493098  
      64Ag     2.493593    61Bu     2.494989    62Bu     2.495735  
      63Bu     2.657804    64Bu     2.668691    65Bu     2.669092  
      65Ag     2.804033    66Ag     2.804717    66Bu     2.807826  
      67Bu     2.808203    67Ag     3.031961    68Ag     3.214115  
      69Ag     3.214561    68Bu     3.506461    69Bu     4.438164  

    Final Occupation by Irrep:
             Ag    Bg    Au    Bu 
    DOCC [     9,    2,    1,    9 ]

  @DF-RKS Final Energy:  -232.17147419938016

   => Energetics <=

    Nuclear Repulsion Energy =            201.9980475612722159
    One-Electron Energy =                -710.9530438816336755
    Two-Electron Energy =                 293.5032981144016162
    DFT Exchange-Correlation Energy =     -16.7197759934202672
    Empirical Dispersion Energy =           0.0000000000000000
    VV10 Nonlocal Energy =                  0.0000000000000000
    Total Energy =                       -232.1714741993801283

Computation Completed


Properties will be evaluated at   0.000000,   0.000000,   0.000000 [a0]

Properties computed using the SCF density matrix

  Nuclear Dipole Moment: [e a0]
     X:     0.0000      Y:     0.0000      Z:     0.0000

  Electronic Dipole Moment: [e a0]
     X:     0.0000      Y:     0.0000      Z:     0.0000

  Dipole Moment: [e a0]
     X:     0.0000      Y:     0.0000      Z:     0.0000     Total:     0.0000

  Dipole Moment: [D]
     X:     0.0000      Y:     0.0000      Z:     0.0000     Total:     0.0000


*** tstop() called on atlantis at Wed Apr 20 03:31:24 2022
Module time:
	user time   =      47.23 seconds =       0.79 minutes
	system time =       0.10 seconds =       0.00 minutes
	total time  =         47 seconds =       0.78 minutes
Total time:
	user time   =     197.08 seconds =       3.28 minutes
	system time =       0.59 seconds =       0.01 minutes
	total time  =        198 seconds =       3.30 minutes

*** tstart() called on atlantis
*** at Wed Apr 20 03:31:24 2022


         ------------------------------------------------------------
                                   SCF GRAD                          
                          Rob Parrish, Justin Turney,                
                       Andy Simmonett, and Alex Sokolov              
         ------------------------------------------------------------

  ==> Geometry <==

    Molecular point group: c2h
    Full point group: C2h

    Geometry (in Angstrom), charge = 0, multiplicity = 1:

       Center              X                  Y                   Z               Mass       
    ------------   -----------------  -----------------  -----------------  -----------------
         C           -1.222032477591    -0.693313109608     0.000000000000    12.000000000000
         C           -1.211176745353     0.711157426160     0.000000000000    12.000000000000
         C           -0.010297435136    -1.404520535769     0.000000000000    12.000000000000
         C            0.010297435136     1.404520535769     0.000000000000    12.000000000000
         C            1.211176745353    -0.711157426160     0.000000000000    12.000000000000
         C            1.222032477591     0.693313109608     0.000000000000    12.000000000000
         H           -2.173046280225    -1.233432274252     0.000000000000     1.007825032230
         H           -2.154705373579     1.265218680005     0.000000000000     1.007825032230
         H           -0.018350906646    -2.498650954774     0.000000000000     1.007825032230
         H            0.018350906646     2.498650954774     0.000000000000     1.007825032230
         H            2.154705373579    -1.265218680005     0.000000000000     1.007825032230
         H            2.173046280225     1.233432274252     0.000000000000     1.007825032230

  Nuclear repulsion =  201.998047561272216

  ==> Basis Set <==

  Basis Set: AUG-CC-PVDZ
    Blend: AUG-CC-PVDZ
    Number of shells: 84
    Number of basis function: 192
    Number of Cartesian functions: 204
    Spherical Harmonics?: true
    Max angular momentum: 2

  ==> DFJKGrad: Density-Fitted SCF Gradients <==

    Gradient:                    1
    J tasked:                  Yes
    K tasked:                  Yes
    wK tasked:                  No
    OpenMP threads:              1
    Integrals threads:           1
    Memory [MiB]:              375
    Schwarz Cutoff:          0E+00
    Fitting Condition:       1E-10

   => Auxiliary Basis Set <=

  Basis Set: (AUG-CC-PVDZ AUX)
    Blend: AUG-CC-PVDZ-JKFIT
    Number of shells: 240
    Number of basis function: 708
    Number of Cartesian functions: 816
    Spherical Harmonics?: true
    Max angular momentum: 3

  ==> DFT Potential <==

   => Composite Functional: M06-2X <= 

    Hybrid M06-2X Meta-GGA XC Functional

    Y. Zhao and D. G. Truhlar,  Theor. Chem. Acc., 120, 215, 2008


    Deriv               =              1
    GGA                 =           TRUE
    Meta                =           TRUE

    Exchange Hybrid     =           TRUE
    MP2 Hybrid          =          FALSE

   => Exchange Functionals <=

    1.0000   XC_HYB_MGGA_X_M06_2X

   => Exact (HF) Exchange <=

    0.5400               HF 

   => Correlation Functionals <=

    1.0000   XC_MGGA_C_M06_2X

   => Molecular Quadrature <=

    Radial Scheme          =       TREUTLER
    Pruning Scheme         =           FLAT
    Nuclear Scheme         =       TREUTLER

    BS radius alpha        =              1
    Pruning alpha          =              1
    Radial Points          =             75
    Spherical Points       =            302
    Total Points           =         271800
    Total Blocks           =           2142
    Max Points             =            256
    Max Functions          =            192


  -Total Gradient:
     Atom            X                  Y                   Z
    ------   -----------------  -----------------  -----------------
       1       -0.005790935536    -0.002894946819     0.000000000000
       2       -0.004966029068     0.002937654438     0.000000000000
       3        0.000219149565    -0.005993134583     0.000000000000
       4       -0.000219149565     0.005993134583     0.000000000000
       5        0.004966029068    -0.002937654438     0.000000000000
       6        0.005790935536     0.002894946819     0.000000000000
       7       -0.002726289532    -0.001564291097     0.000000000000
       8       -0.002939467865     0.001696353584     0.000000000000
       9       -0.000049755677    -0.003446107190     0.000000000000
      10        0.000049755677     0.003446107190     0.000000000000
      11        0.002939467865    -0.001696353584     0.000000000000
      12        0.002726289532     0.001564291097     0.000000000000


*** tstop() called on atlantis at Wed Apr 20 03:31:34 2022
Module time:
	user time   =      10.13 seconds =       0.17 minutes
	system time =       0.11 seconds =       0.00 minutes
	total time  =         10 seconds =       0.17 minutes
Total time:
	user time   =     207.21 seconds =       3.45 minutes
	system time =       0.70 seconds =       0.01 minutes
	total time  =        208 seconds =       3.47 minutes

  //>>>>>>>>>>>>>>>>>>>>>>>>>>>>>>>>>>>//
  //    Loading displacement 3 of 42   //
  //<<<<<<<<<<<<<<<<<<<<<<<<<<<<<<<<<<<//
gradient() will perform analytic gradient computation.

*** tstart() called on atlantis
*** at Wed Apr 20 03:31:34 2022

   => Loading Basis Set <=

    Name: AUG-CC-PVDZ
    Role: ORBITAL
    Keyword: BASIS
    atoms 1-6  entry C          line   178 file /home/akrom/software/anaconda3/envs/ffpenv/share/psi4/basis/aug-cc-pvdz.gbs 
    atoms 7-12 entry H          line    36 file /home/akrom/software/anaconda3/envs/ffpenv/share/psi4/basis/aug-cc-pvdz.gbs 


         ---------------------------------------------------------
                                   SCF
               by Justin Turney, Rob Parrish, Andy Simmonett
                          and Daniel G. A. Smith
                              RKS Reference
                        1 Threads,    500 MiB Core
         ---------------------------------------------------------

  ==> Geometry <==

    Molecular point group: c2h
    Full point group: C2h

    Geometry (in Angstrom), charge = 0, multiplicity = 1:

       Center              X                  Y                   Z               Mass       
    ------------   -----------------  -----------------  -----------------  -----------------
         C           -1.220987522409    -0.693186890392     0.000000000000    12.000000000000
         C           -1.211103254647     0.711282573840     0.000000000000    12.000000000000
         C           -0.010442564864    -1.404519464231     0.000000000000    12.000000000000
         C            0.010442564864     1.404519464231     0.000000000000    12.000000000000
         C            1.211103254647    -0.711282573840     0.000000000000    12.000000000000
         C            1.220987522409     0.693186890392     0.000000000000    12.000000000000
         H           -2.173173719775    -1.233207725748     0.000000000000     1.007825032230
         H           -2.154574626421     1.265441319995     0.000000000000     1.007825032230
         H           -0.018609093354    -2.498649045226     0.000000000000     1.007825032230
         H            0.018609093354     2.498649045226     0.000000000000     1.007825032230
         H            2.154574626421    -1.265441319995     0.000000000000     1.007825032230
         H            2.173173719775     1.233207725748     0.000000000000     1.007825032230

  Running in c2h symmetry.

  Rotational constants: A =      0.18760  B =      0.18752  C =      0.09378 [cm^-1]
  Rotational constants: A =   5624.12726  B =   5621.66993  C =   2811.44916 [MHz]
  Nuclear repulsion =  202.028576396706484

  Charge       = 0
  Multiplicity = 1
  Electrons    = 42
  Nalpha       = 21
  Nbeta        = 21

  ==> Algorithm <==

  SCF Algorithm Type is DF.
  DIIS enabled.
  MOM disabled.
  Fractional occupation disabled.
  Guess Type is SAD.
  Energy threshold   = 1.00e-08
  Density threshold  = 1.00e-08
  Integral threshold = 0.00e+00

  ==> Primary Basis <==

  Basis Set: AUG-CC-PVDZ
    Blend: AUG-CC-PVDZ
    Number of shells: 84
    Number of basis function: 192
    Number of Cartesian functions: 204
    Spherical Harmonics?: true
    Max angular momentum: 2

  ==> DFT Potential <==

   => Composite Functional: M06-2X <= 

    Hybrid M06-2X Meta-GGA XC Functional

    Y. Zhao and D. G. Truhlar,  Theor. Chem. Acc., 120, 215, 2008


    Deriv               =              1
    GGA                 =           TRUE
    Meta                =           TRUE

    Exchange Hybrid     =           TRUE
    MP2 Hybrid          =          FALSE

   => Exchange Functionals <=

    1.0000   XC_HYB_MGGA_X_M06_2X

   => Exact (HF) Exchange <=

    0.5400               HF 

   => Correlation Functionals <=

    1.0000   XC_MGGA_C_M06_2X

   => Molecular Quadrature <=

    Radial Scheme          =       TREUTLER
    Pruning Scheme         =           FLAT
    Nuclear Scheme         =       TREUTLER

    BS radius alpha        =              1
    Pruning alpha          =              1
    Radial Points          =             75
    Spherical Points       =            302
    Total Points           =         271800
    Total Blocks           =           2140
    Max Points             =            256
    Max Functions          =            192

   => Loading Basis Set <=

    Name: (AUG-CC-PVDZ AUX)
    Role: JKFIT
    Keyword: DF_BASIS_SCF
    atoms 1-6  entry C          line   154 file /home/akrom/software/anaconda3/envs/ffpenv/share/psi4/basis/aug-cc-pvdz-jkfit.gbs 
    atoms 7-12 entry H          line    70 file /home/akrom/software/anaconda3/envs/ffpenv/share/psi4/basis/aug-cc-pvdz-jkfit.gbs 

  ==> Pre-Iterations <==

   -------------------------------------------------------
    Irrep   Nso     Nmo     Nalpha   Nbeta   Ndocc  Nsocc
   -------------------------------------------------------
     Ag        69      69       0       0       0       0
     Bg        27      27       0       0       0       0
     Au        27      27       0       0       0       0
     Bu        69      69       0       0       0       0
   -------------------------------------------------------
    Total     192     192      21      21      21       0
   -------------------------------------------------------

  ==> Integral Setup <==

  DFHelper Memory: AOs need 0.204 GiB; user supplied 0.204 GiB. Using in-core AOs.

  ==> MemDFJK: Density-Fitted J/K Matrices <==

    J tasked:                   Yes
    K tasked:                   Yes
    wK tasked:                   No
    OpenMP threads:               1
    Memory [MiB]:               208
    Algorithm:                 Core
    Schwarz Cutoff:           1E-12
    Mask sparsity (%):       0.1465
    Fitting Condition:        1E-10

   => Auxiliary Basis Set <=

  Basis Set: (AUG-CC-PVDZ AUX)
    Blend: AUG-CC-PVDZ-JKFIT
    Number of shells: 240
    Number of basis function: 708
    Number of Cartesian functions: 816
    Spherical Harmonics?: true
    Max angular momentum: 3

  Cached 4.8% of DFT collocation blocks in 0.156 [GiB].

  Minimum eigenvalue in the overlap matrix is 2.5944665838E-06.
  Using Symmetric Orthogonalization.

  SCF Guess: Superposition of Atomic Densities via on-the-fly atomic UHF.

  ==> Iterations <==

                           Total Energy        Delta E     RMS |[F,P]|

   @DF-RKS iter SAD:  -231.58583826202985   -2.31586e+02   0.00000e+00 
   @DF-RKS iter   1:  -231.82842778552629   -2.42590e-01   7.28023e-03 DIIS
   @DF-RKS iter   2:  -231.86632120276195   -3.78934e-02   7.07923e-03 DIIS
   @DF-RKS iter   3:  -232.17035082475974   -3.04030e-01   4.58073e-04 DIIS
   @DF-RKS iter   4:  -232.17145643720630   -1.10561e-03   7.89451e-05 DIIS
   @DF-RKS iter   5:  -232.17149855510777   -4.21179e-05   6.33347e-06 DIIS
   @DF-RKS iter   6:  -232.17149892437675   -3.69269e-07   1.10203e-06 DIIS
   @DF-RKS iter   7:  -232.17149892913702   -4.76027e-09   9.61694e-07 DIIS
   @DF-RKS iter   8:  -232.17149893412946   -4.99244e-09   5.32220e-08 DIIS
   @DF-RKS iter   9:  -232.17149893415228   -2.28226e-11   2.61928e-09 DIIS
  Energy and wave function converged.


  ==> Post-Iterations <==

    Orbital Energies [Eh]
    ---------------------

    Doubly Occupied:                                                      

       1Ag   -10.558087     1Bu   -10.557812     2Bu   -10.557792  
       2Ag   -10.557093     3Ag   -10.557070     3Bu   -10.556734  
       4Ag    -0.954843     4Bu    -0.840405     5Bu    -0.840288  
       5Ag    -0.683891     6Ag    -0.683756     7Ag    -0.595499  
       6Bu    -0.533171     7Bu    -0.509389     8Bu    -0.485706  
       9Bu    -0.485549     1Au    -0.435472     8Ag    -0.401487  
       9Ag    -0.401227     1Bg    -0.306812     2Bg    -0.306709  

    Virtual:                                                              

      10Ag    -0.002507    10Bu     0.010553    11Bu     0.010558  
       2Au     0.015150     3Au     0.015291    11Ag     0.029556  
      12Ag     0.029557    12Bu     0.054036     4Au     0.065527  
      13Ag     0.084458     3Bg     0.089536     4Bg     0.089551  
      13Bu     0.093501    14Bu     0.107007    15Bu     0.107022  
      14Ag     0.108921    15Ag     0.108929    16Ag     0.116804  
[...]
      5   C                0.03 -0.17 -0.00    0.00  0.00 -0.03    0.00  0.00  0.19   
      6   C               -0.32 -0.14  0.00    0.00 -0.00 -0.04   -0.00  0.00 -0.19   
      7   H                0.20  0.35  0.00   -0.00 -0.00  0.41    0.00 -0.00  0.37   
      8   H               -0.16 -0.05  0.00    0.00  0.00  0.41   -0.00 -0.00 -0.36   
      9   H               -0.19 -0.23  0.00    0.00  0.00  0.41   -0.00 -0.00 -0.36   
     10   H                0.19  0.23 -0.00    0.00 -0.00  0.41   -0.00  0.00  0.36   
     11   H                0.16  0.05 -0.00    0.00 -0.00  0.41    0.00  0.00  0.36   
     12   H               -0.20 -0.35  0.00   -0.00  0.00  0.41   -0.00  0.00 -0.37   

  Vibration                       13                  14                  15          
  Freq [cm^-1]                 887.4385            890.7289            959.7872       
  Irrep                           Bg                  Bg                  Ag          
  Reduced mass [u]              1.2480              1.2479              1.9928        
  Force const [mDyne/A]         0.5791              0.5833              1.0816        
  Turning point v=0 [a0]        0.3297              0.3291              0.2509        
  RMS dev v=0 [a0 u^1/2]        0.2605              0.2600              0.2504        
  Char temp [K]               1276.8264           1281.5606           1380.9200       
  ----------------------------------------------------------------------------------
      1   C               -0.00 -0.00 -0.09    0.00  0.00 -0.01    0.06  0.10 -0.00   
      2   C               -0.00  0.00 -0.03   -0.00 -0.00 -0.08    0.07 -0.07  0.00   
      3   C               -0.00 -0.00 -0.05    0.00  0.00  0.07    0.06  0.13 -0.00   
      4   C                0.00  0.00  0.05    0.00 -0.00 -0.07   -0.06 -0.13  0.00   
      5   C                0.00 -0.00  0.03   -0.00  0.00  0.08   -0.07  0.07  0.00   
      6   C                0.00  0.00  0.09    0.00 -0.00  0.01   -0.06 -0.10  0.00   
      7   H                0.00 -0.00  0.57   -0.00  0.00  0.06   -0.16  0.52  0.00   
      8   H                0.00  0.00  0.23   -0.00 -0.00  0.52    0.08 -0.09 -0.00   
      9   H               -0.00 -0.00  0.33    0.00  0.00 -0.46    0.36  0.14  0.00   
     10   H                0.00  0.00 -0.33   -0.00 -0.00  0.46   -0.36 -0.14  0.00   
     11   H                0.00  0.00 -0.23   -0.00 -0.00 -0.52   -0.08  0.09  0.00   
     12   H                0.00  0.00 -0.57    0.00 -0.00 -0.06    0.16 -0.52 -0.00   

  Vibration                       16                  17                  18          
  Freq [cm^-1]                1008.3492           1010.2282           1012.8001       
  Irrep                           Bu                  Au                  Au          
  Reduced mass [u]              6.4905              1.3805              1.3747        
  Force const [mDyne/A]         3.8882              0.8301              0.8308        
  Turning point v=0 [a0]        0.1356              0.2938              0.2941        
  RMS dev v=0 [a0 u^1/2]        0.2443              0.2441              0.2438        
  Char temp [K]               1450.7900           1453.4935           1457.1938       
  ----------------------------------------------------------------------------------
      1   C               -0.25 -0.14 -0.00    0.00  0.00 -0.11    0.00  0.00  0.01   
      2   C                0.25 -0.15  0.00    0.00 -0.00  0.04    0.00  0.00 -0.10   
      3   C                0.00  0.29  0.00   -0.00 -0.00  0.06   -0.00  0.00  0.09   
      4   C                0.00  0.29 -0.00   -0.00 -0.00  0.06    0.00 -0.00  0.09   
      5   C                0.25 -0.15  0.00    0.00 -0.00  0.04    0.00  0.00 -0.10   
      6   C               -0.25 -0.14  0.00    0.00  0.00 -0.11   -0.00 -0.00  0.01   
      7   H               -0.25 -0.15  0.00   -0.00  0.00  0.56    0.00 -0.00 -0.06   
      8   H                0.25 -0.15 -0.00    0.00  0.00 -0.24    0.00 -0.00  0.52   
      9   H               -0.00  0.29 -0.00   -0.00 -0.00 -0.34   -0.00  0.00 -0.46   
     10   H               -0.00  0.29  0.00   -0.00 -0.00 -0.34    0.00 -0.00 -0.46   
     11   H                0.25 -0.15  0.00   -0.00 -0.00 -0.24    0.00  0.00  0.52   
     12   H               -0.25 -0.15 -0.00   -0.00  0.00  0.56   -0.00  0.00 -0.06   

  Vibration                       19                  20                  21          
  Freq [cm^-1]                1038.9543           1055.0604           1055.7230       
  Irrep                           Bg                  Bu                  Bu          
  Reduced mass [u]              1.2953              1.6574              1.6607        
  Force const [mDyne/A]         0.8238              1.0870              1.0906        
  Turning point v=0 [a0]        0.2991              0.2624              0.2621        
  RMS dev v=0 [a0 u^1/2]        0.2407              0.2389              0.2388        
  Char temp [K]               1494.8239           1517.9971           1518.9503       
  ----------------------------------------------------------------------------------
      1   C                0.00  0.00  0.06   -0.07 -0.08 -0.00    0.08 -0.03 -0.00   
      2   C                0.00 -0.00 -0.07   -0.06  0.09  0.00   -0.09 -0.03 -0.00   
      3   C               -0.00  0.00 -0.07    0.08 -0.00  0.00    0.00  0.11  0.00   
      4   C               -0.00 -0.00  0.07    0.08 -0.00  0.00    0.00  0.11  0.00   
      5   C                0.00  0.00  0.07   -0.06  0.09  0.00   -0.09 -0.03 -0.00   
      6   C               -0.00 -0.00 -0.06   -0.07 -0.08 -0.00    0.08 -0.03 -0.00   
      7   H                0.00 -0.00 -0.39    0.03 -0.28  0.00    0.29 -0.39  0.00   
      8   H                0.00 -0.00  0.41    0.05  0.30 -0.00   -0.29 -0.37  0.00   
      9   H               -0.00  0.00  0.41    0.55 -0.01 -0.00    0.02  0.12 -0.00   
     10   H               -0.00 -0.00 -0.41    0.55 -0.01 -0.00    0.02  0.12 -0.00   
     11   H                0.00  0.00 -0.41    0.05  0.30 -0.00   -0.29 -0.37 -0.00   
     12   H               -0.00 -0.00  0.39    0.03 -0.28  0.00    0.29 -0.39  0.00   

  Vibration                       22                  23                  24          
  Freq [cm^-1]                1067.1727           1145.9768           1226.8917       
  Irrep                           Ag                  Bu                  Ag          
  Reduced mass [u]              2.0322              1.1852              1.1422        
  Force const [mDyne/A]         1.3636              0.9171              1.0130        
  Turning point v=0 [a0]        0.2356              0.2977              0.2931        
  RMS dev v=0 [a0 u^1/2]        0.2375              0.2292              0.2215        
  Char temp [K]               1535.4239           1648.8054           1765.2239       
  ----------------------------------------------------------------------------------
      1   C                0.13  0.02 -0.00   -0.03  0.05  0.00    0.02 -0.04  0.00   
      2   C                0.11 -0.02  0.00   -0.03 -0.04 -0.00    0.03  0.01 -0.00   
      3   C               -0.06  0.11 -0.00    0.05 -0.00 -0.00    0.06 -0.00 -0.00   
      4   C                0.06 -0.11 -0.00    0.05 -0.00  0.00   -0.06  0.00  0.00   
      5   C               -0.11  0.02  0.00   -0.03 -0.04 -0.00   -0.03 -0.01 -0.00   
      6   C               -0.13 -0.02  0.00   -0.03  0.05  0.00   -0.02  0.04 -0.00   
      7   H                0.41 -0.45  0.00   -0.20  0.35 -0.00    0.03 -0.05 -0.00   
      8   H                0.08 -0.09 -0.00   -0.20 -0.35  0.00    0.36  0.59  0.00   
      9   H               -0.25  0.12  0.00    0.40 -0.00  0.00    0.12 -0.00  0.00   
     10   H                0.25 -0.12  0.00    0.40 -0.00 -0.00   -0.12  0.00 -0.00   
     11   H               -0.08  0.09 -0.00   -0.20 -0.35  0.00   -0.36 -0.59  0.00   
     12   H               -0.41  0.45 -0.00   -0.20  0.35 -0.00   -0.03  0.05 -0.00   

  Vibration                       25                  26                  27          
  Freq [cm^-1]                1299.6347           1332.1867           1492.7754       
  Irrep                           Bu                  Ag                  Bu          
  Reduced mass [u]              4.3137              1.2592              2.0718        
  Force const [mDyne/A]         4.2928              1.3167              2.7201        
  Turning point v=0 [a0]        0.1465              0.2679              0.1973        
  RMS dev v=0 [a0 u^1/2]        0.2152              0.2126              0.2008        
  Char temp [K]               1869.8850           1916.7201           2147.7715       
  ----------------------------------------------------------------------------------
      1   C               -0.11  0.19  0.00   -0.03  0.06 -0.00    0.01 -0.13 -0.00   
      2   C               -0.11 -0.19 -0.00    0.01  0.08  0.00   -0.07  0.06  0.00   
      3   C                0.22 -0.00 -0.00   -0.01 -0.02  0.00    0.14  0.04  0.00   
      4   C                0.22 -0.00  0.00    0.01  0.02 -0.00    0.14  0.04  0.00   
      5   C               -0.11 -0.19  0.00   -0.01 -0.08 -0.00   -0.07  0.06  0.00   
      6   C               -0.11  0.19 -0.00    0.03 -0.06  0.00    0.01 -0.13 -0.00   
      7   H                0.17 -0.30 -0.00    0.16 -0.29  0.00   -0.28  0.34  0.00   
      8   H                0.17  0.30  0.00   -0.06 -0.06 -0.00   -0.13  0.01  0.00   
      9   H               -0.34  0.00  0.00    0.61 -0.02 -0.00   -0.49  0.05 -0.00   
     10   H               -0.34  0.00 -0.00   -0.61  0.02  0.00   -0.49  0.05 -0.00   
     11   H                0.17  0.30 -0.00    0.06  0.06  0.00   -0.13  0.01  0.00   
     12   H                0.17 -0.30 -0.00   -0.16  0.29 -0.00   -0.28  0.34 -0.00   

  Vibration                       28                  29                  30          
  Freq [cm^-1]                1493.0920           1624.9345           1663.9894       
  Irrep                           Bu                  Ag                  Ag          
  Reduced mass [u]              2.0726              5.8516              4.3032        
  Force const [mDyne/A]         2.7223              9.1033              7.0201        
  Turning point v=0 [a0]        0.1972              0.1125              0.1297        
  RMS dev v=0 [a0 u^1/2]        0.2008              0.1925              0.1902        
  Char temp [K]               2148.2269           2337.9190           2394.1102       
  ----------------------------------------------------------------------------------
      1   C                0.11 -0.04 -0.00   -0.05 -0.20  0.00   -0.17  0.20  0.00   
      2   C               -0.08 -0.12 -0.00    0.18  0.30 -0.00    0.11 -0.09 -0.00   
      3   C               -0.06  0.09 -0.00    0.19  0.13  0.00    0.24 -0.07 -0.00   
      4   C               -0.06  0.09 -0.00   -0.19 -0.13 -0.00   -0.24  0.07  0.00   
      5   C               -0.08 -0.12 -0.00   -0.18 -0.30 -0.00   -0.11  0.09  0.00   
      6   C                0.11 -0.04  0.00    0.05  0.20  0.00    0.17 -0.20 -0.00   
      7   H               -0.07  0.32 -0.00   -0.24  0.10 -0.00    0.12 -0.35 -0.00   
      8   H                0.26  0.47  0.00   -0.20 -0.36  0.00    0.12 -0.10  0.00   
      9   H                0.22  0.11 -0.00   -0.15  0.15 -0.00   -0.42 -0.07  0.00   
     10   H                0.22  0.11  0.00    0.15 -0.15  0.00    0.42  0.07  0.00   
     11   H                0.26  0.47 -0.00    0.20  0.36  0.00   -0.12  0.10  0.00   
     12   H               -0.07  0.32 -0.00    0.24 -0.10 -0.00   -0.12  0.35 -0.00   

  Vibration                       31                  32                  33          
  Freq [cm^-1]                3163.0923           3164.4255           3173.0066       
  Irrep                           Bu                  Ag                  Ag          
  Reduced mass [u]              1.0852              1.0902              1.0872        
  Force const [mDyne/A]         6.3969              6.4320              6.4493        
  Turning point v=0 [a0]        0.1873              0.1868              0.1868        
  RMS dev v=0 [a0 u^1/2]        0.1380              0.1379              0.1377        
  Char temp [K]               4550.9855           4552.9037           4565.2500       
  ----------------------------------------------------------------------------------
      1   C                0.03  0.02  0.00    0.01  0.00 -0.00   -0.05 -0.03  0.00   
      2   C               -0.03  0.02 -0.00   -0.04  0.02 -0.00    0.01 -0.00 -0.00   
      3   C               -0.00 -0.03  0.00   -0.00  0.04  0.00    0.00  0.03  0.00   
      4   C               -0.00 -0.03 -0.00    0.00 -0.04  0.00   -0.00 -0.03  0.00   
      5   C               -0.03  0.02  0.00    0.04 -0.02 -0.00   -0.01  0.00 -0.00   
      6   C                0.03  0.02  0.00   -0.01 -0.00 -0.00    0.05  0.03  0.00   
      7   H               -0.35 -0.20 -0.00   -0.09 -0.05  0.00    0.53  0.30  0.00   
      8   H                0.35 -0.21 -0.00    0.46 -0.27  0.00   -0.13  0.07  0.00   
      9   H                0.00  0.41 -0.00   -0.00 -0.45 -0.00   -0.00 -0.32 -0.00   
     10   H                0.00  0.41  0.00    0.00  0.45 -0.00    0.00  0.32 -0.00   
     11   H                0.35 -0.21  0.00   -0.46  0.27  0.00    0.13 -0.07 -0.00   
     12   H               -0.35 -0.20 -0.00    0.09  0.05  0.00   -0.53 -0.30  0.00   

  Vibration                       34                  35                  36          
  Freq [cm^-1]                3184.0286           3184.1435           3194.3571       
  Irrep                           Bu                  Bu                  Ag          
  Reduced mass [u]              1.0964              1.0964              1.0995        
  Force const [mDyne/A]         6.5491              6.5497              6.6104        
  Turning point v=0 [a0]        0.1857              0.1857              0.1851        
  RMS dev v=0 [a0 u^1/2]        0.1375              0.1375              0.1373        
  Char temp [K]               4581.1082           4581.2736           4595.9686       
  ----------------------------------------------------------------------------------
      1   C               -0.05 -0.03 -0.00   -0.00  0.00 -0.00   -0.03 -0.02 -0.00   
      2   C               -0.02  0.02 -0.00    0.04 -0.02  0.00   -0.03  0.02  0.00   
      3   C                0.00 -0.03 -0.00   -0.00 -0.04 -0.00   -0.00 -0.04  0.00   
      4   C                0.00 -0.03 -0.00   -0.00 -0.04 -0.00    0.00  0.04  0.00   
      5   C               -0.02  0.02  0.00    0.04 -0.02  0.00    0.03 -0.02 -0.00   
      6   C               -0.05 -0.03 -0.00   -0.00  0.00  0.00    0.03  0.02 -0.00   
      7   H                0.50  0.28 -0.00   -0.01 -0.01  0.00    0.29  0.16 -0.00   
      8   H                0.24 -0.14  0.00   -0.44  0.25 -0.00    0.38 -0.22 -0.00   
      9   H               -0.00  0.30  0.00    0.01  0.49 -0.00   -0.00  0.44  0.00   
     10   H               -0.00  0.30 -0.00    0.01  0.49  0.00    0.00 -0.44  0.00   
     11   H                0.24 -0.14  0.00   -0.44  0.25 -0.00   -0.38  0.22  0.00   
     12   H                0.50  0.28 -0.00   -0.01 -0.01  0.00   -0.29 -0.16  0.00   

  ==> Thermochemistry Components <==

  Entropy, S
    Electronic S            0.000 [cal/(mol K)]        0.000 [J/(mol K)]       0.00000000 [mEh/K] (multiplicity = 1)
    Translational S        38.979 [cal/(mol K)]      163.089 [J/(mol K)]       0.06211726 [mEh/K] (mol. weight = 78.0470 [u], P = 101325.00 [Pa])
    Rotational S           24.318 [cal/(mol K)]      101.746 [J/(mol K)]       0.03875307 [mEh/K] (symmetry no. = 2)
    Vibrational S           4.353 [cal/(mol K)]       18.215 [J/(mol K)]       0.00693759 [mEh/K]
  Total S                  67.650 [cal/(mol K)]      283.050 [J/(mol K)]       0.10780792 [mEh/K]
  Correction S              0.000 [cal/(mol K)]        0.000 [J/(mol K)]       0.00000000 [mEh/K]

  Constant volume heat capacity, Cv
    Electronic Cv           0.000 [cal/(mol K)]        0.000 [J/(mol K)]       0.00000000 [mEh/K]
    Translational Cv        2.981 [cal/(mol K)]       12.472 [J/(mol K)]       0.00475022 [mEh/K]
    Rotational Cv           2.981 [cal/(mol K)]       12.472 [J/(mol K)]       0.00475022 [mEh/K]
    Vibrational Cv         11.265 [cal/(mol K)]       47.132 [J/(mol K)]       0.01795181 [mEh/K]
  Total Cv                 17.227 [cal/(mol K)]       72.076 [J/(mol K)]       0.02745224 [mEh/K]
  Correction Cv             0.000 [cal/(mol K)]        0.000 [J/(mol K)]       0.00000000 [mEh/K]

  Constant pressure heat capacity, Cp
    Electronic Cp           0.000 [cal/(mol K)]        0.000 [J/(mol K)]       0.00000000 [mEh/K]
    Translational Cp        4.968 [cal/(mol K)]       20.786 [J/(mol K)]       0.00791703 [mEh/K]
    Rotational Cp           2.981 [cal/(mol K)]       12.472 [J/(mol K)]       0.00475022 [mEh/K]
    Vibrational Cp         11.265 [cal/(mol K)]       47.132 [J/(mol K)]       0.01795181 [mEh/K]
  Total Cp                 19.214 [cal/(mol K)]       80.390 [J/(mol K)]       0.03061905 [mEh/K]
  Correction Cp             0.000 [cal/(mol K)]        0.000 [J/(mol K)]       0.00000000 [mEh/K]

  ==> Thermochemistry Energy Analysis <==

  Raw electronic energy, E0
  Total E0, Electronic energy at well bottom at 0 [K]                 -232.17136466 [Eh]

  Zero-point energy, ZPE_vib = Sum_i nu_i / 2
    Electronic ZPE          0.000 [kcal/mol]        0.000 [kJ/mol]       0.00000000 [Eh]
    Translational ZPE       0.000 [kcal/mol]        0.000 [kJ/mol]       0.00000000 [Eh]
    Rotational ZPE          0.000 [kcal/mol]        0.000 [kJ/mol]       0.00000000 [Eh]
    Vibrational ZPE        62.649 [kcal/mol]      262.123 [kJ/mol]       0.09983733 [Eh]       21911.762 [cm^-1]
  Correction ZPE           62.649 [kcal/mol]      262.123 [kJ/mol]       0.09983733 [Eh]       21911.762 [cm^-1]
  Total ZPE, Electronic energy at 0 [K]                               -232.07152733 [Eh]

  Thermal Energy, E (includes ZPE)
    Electronic E            0.000 [kcal/mol]        0.000 [kJ/mol]       0.00000000 [Eh]
    Translational E         0.889 [kcal/mol]        3.718 [kJ/mol]       0.00141628 [Eh]
    Rotational E            0.889 [kcal/mol]        3.718 [kJ/mol]       0.00141628 [Eh]
    Vibrational E          63.623 [kcal/mol]      266.198 [kJ/mol]       0.10138935 [Eh]
  Correction E             65.400 [kcal/mol]      273.635 [kJ/mol]       0.10422191 [Eh]
  Total E, Electronic energy at  298.15 [K]                           -232.06714276 [Eh]

  Enthalpy, H_trans = E_trans + k_B * T
    Electronic H            0.000 [kcal/mol]        0.000 [kJ/mol]       0.00000000 [Eh]
    Translational H         1.481 [kcal/mol]        6.197 [kJ/mol]       0.00236046 [Eh]
    Rotational H            0.889 [kcal/mol]        3.718 [kJ/mol]       0.00141628 [Eh]
    Vibrational H          63.623 [kcal/mol]      266.198 [kJ/mol]       0.10138935 [Eh]
  Correction H             65.993 [kcal/mol]      276.114 [kJ/mol]       0.10516609 [Eh]
  Total H, Enthalpy at  298.15 [K]                                    -232.06619857 [Eh]

  Gibbs free energy, G = H - T * S
    Electronic G            0.000 [kcal/mol]        0.000 [kJ/mol]       0.00000000 [Eh]
    Translational G       -10.140 [kcal/mol]      -42.428 [kJ/mol]      -0.01615980 [Eh]
    Rotational G           -6.362 [kcal/mol]      -26.617 [kJ/mol]      -0.01013795 [Eh]
    Vibrational G          62.325 [kcal/mol]      260.767 [kJ/mol]       0.09932091 [Eh]
  Correction G             45.823 [kcal/mol]      191.722 [kJ/mol]       0.07302316 [Eh]
  Total G, Free enthalpy at  298.15 [K]                               -232.09834150 [Eh]

    Psi4 stopped on: Wednesday, 20 April 2022 04:10AM
    Psi4 wall time for execution: 0:42:34.08

*** Psi4 exiting successfully. Buy a developer a beer!
