
    -----------------------------------------------------------------------
          Psi4: An Open-Source Ab Initio Electronic Structure Package
                               Psi4 1.3.2 release

                         Git: Rev {HEAD} ecbda83 


    R. M. Parrish, L. A. Burns, D. G. A. Smith, A. C. Simmonett,
    A. E. DePrince III, E. G. Hohenstein, U. Bozkaya, A. Yu. Sokolov,
    R. Di Remigio, R. M. Richard, J. F. Gonthier, A. M. James,
    H. R. McAlexander, A. Kumar, M. Saitow, X. Wang, B. P. Pritchard,
    P. Verma, H. F. Schaefer III, K. Patkowski, R. A. King, E. F. Valeev,
    F. A. Evangelista, J. M. Turney, T. D. Crawford, and C. D. Sherrill,
    J. Chem. Theory Comput. 13(7) pp 3185--3197 (2017).
    (doi: 10.1021/acs.jctc.7b00174)


                         Additional Contributions by
    P. Kraus, H. Kruse, M. H. Lechner, M. C. Schieber, R. A. Shaw,
    A. Alenaizan, R. Galvelis, Z. L. Glick, S. Lehtola, and J. P. Misiewicz

    -----------------------------------------------------------------------


    Psi4 started on: Tuesday, 19 April 2022 12:35AM

    Process ID: 25602
    Host:       atlantis
    PSIDATADIR: /home/akrom/software/anaconda3/envs/ffpenv/share/psi4
    Memory:     500.0 MiB
    Threads:    1
    
  ==> Input File <==

--------------------------------------------------------------------------
set basis  aug-cc-pVTZ
molecule {
0 1
   O        0.00000        0.00000        0.49152
   C        0.00000        0.00000       -0.65516
}
energy('B3LYP')
frequencies('B3LYP')
--------------------------------------------------------------------------

*** tstart() called on atlantis
*** at Tue Apr 19 00:35:50 2022

   => Loading Basis Set <=

    Name: AUG-CC-PVTZ
    Role: ORBITAL
    Keyword: BASIS
    atoms 1 entry O          line   327 file /home/akrom/software/anaconda3/envs/ffpenv/share/psi4/basis/aug-cc-pvtz.gbs 
    atoms 2 entry C          line   235 file /home/akrom/software/anaconda3/envs/ffpenv/share/psi4/basis/aug-cc-pvtz.gbs 


         ---------------------------------------------------------
                                   SCF
               by Justin Turney, Rob Parrish, Andy Simmonett
                          and Daniel G. A. Smith
                              RKS Reference
                        1 Threads,    500 MiB Core
         ---------------------------------------------------------

  ==> Geometry <==

    Molecular point group: c2v
    Full point group: C_inf_v

    Geometry (in Angstrom), charge = 0, multiplicity = 1:

       Center              X                  Y                   Z               Mass       
    ------------   -----------------  -----------------  -----------------  -----------------
         O            0.000000000000     0.000000000000     0.491523556581    15.994914619570
         C            0.000000000000     0.000000000000    -0.655156443419    12.000000000000

  Running in c2v symmetry.

  Rotational constants: A = ************  B =      1.86994  C =      1.86994 [cm^-1]
  Rotational constants: A = ************  B =  56059.43274  C =  56059.43274 [MHz]
  Nuclear repulsion =   22.151346593783796

  Charge       = 0
  Multiplicity = 1
  Electrons    = 14
  Nalpha       = 7
  Nbeta        = 7

  ==> Algorithm <==

  SCF Algorithm Type is DF.
  DIIS enabled.
  MOM disabled.
  Fractional occupation disabled.
  Guess Type is SAD.
  Energy threshold   = 1.00e-06
  Density threshold  = 1.00e-06
  Integral threshold = 0.00e+00

  ==> Primary Basis <==

  Basis Set: AUG-CC-PVTZ
    Blend: AUG-CC-PVTZ
    Number of shells: 28
    Number of basis function: 92
    Number of Cartesian functions: 110
    Spherical Harmonics?: true
    Max angular momentum: 3

  ==> DFT Potential <==

   => Composite Functional: B3LYP <= 

    B3LYP Hyb-GGA Exchange-Correlation Functional

    P. J. Stephens, F. J. Devlin, C. F. Chabalowski, and M. J. Frisch, J. Phys. Chem. 98, 11623 (1994)

    Deriv               =              1
    GGA                 =           TRUE
    Meta                =          FALSE

    Exchange Hybrid     =           TRUE
    MP2 Hybrid          =          FALSE

   => Exchange Functionals <=

    0.0800   Slater exchange
    0.7200         Becke 88

   => Exact (HF) Exchange <=

    0.2000               HF 

   => Correlation Functionals <=

    0.1900   Vosko, Wilk & Nusair (VWN5_RPA)
    0.8100   Lee, Yang & Parr

   => Molecular Quadrature <=

    Radial Scheme          =       TREUTLER
    Pruning Scheme         =           FLAT
    Nuclear Scheme         =       TREUTLER

    BS radius alpha        =              1
    Pruning alpha          =              1
    Radial Points          =             75
    Spherical Points       =            302
    Total Points           =          45300
    Total Blocks           =            420
    Max Points             =            256
    Max Functions          =             92

   => Loading Basis Set <=

    Name: (AUG-CC-PVTZ AUX)
    Role: JKFIT
    Keyword: DF_BASIS_SCF
    atoms 1 entry O          line   286 file /home/akrom/software/anaconda3/envs/ffpenv/share/psi4/basis/aug-cc-pvtz-jkfit.gbs 
    atoms 2 entry C          line   162 file /home/akrom/software/anaconda3/envs/ffpenv/share/psi4/basis/aug-cc-pvtz-jkfit.gbs 

  ==> Pre-Iterations <==

   -------------------------------------------------------
    Irrep   Nso     Nmo     Nalpha   Nbeta   Ndocc  Nsocc
   -------------------------------------------------------
     A1        38      38       0       0       0       0
     A2        10      10       0       0       0       0
     B1        22      22       0       0       0       0
     B2        22      22       0       0       0       0
   -------------------------------------------------------
    Total      92      92       7       7       7       0
   -------------------------------------------------------

  ==> Integral Setup <==

  DFHelper Memory: AOs need 0.015 GiB; user supplied 0.253 GiB. Using in-core AOs.

  ==> MemDFJK: Density-Fitted J/K Matrices <==

    J tasked:                   Yes
    K tasked:                   Yes
    wK tasked:                   No
    OpenMP threads:               1
    Memory [MiB]:               258
    Algorithm:                 Core
    Schwarz Cutoff:           1E-12
    Mask sparsity (%):       0.0000
    Fitting Condition:        1E-10

   => Auxiliary Basis Set <=

  Basis Set: (AUG-CC-PVTZ AUX)
    Blend: AUG-CC-PVTZ-JKFIT
    Number of shells: 60
    Number of basis function: 208
    Number of Cartesian functions: 262
    Spherical Harmonics?: true
    Max angular momentum: 4

  Cached 100.0% of DFT collocation blocks in 0.114 [GiB].

  Minimum eigenvalue in the overlap matrix is 4.8582112806E-04.
  Using Symmetric Orthogonalization.

  SCF Guess: Superposition of Atomic Densities via on-the-fly atomic UHF.

  ==> Iterations <==

                           Total Energy        Delta E     RMS |[F,P]|

   @DF-RKS iter SAD:  -112.79789484115278   -1.12798e+02   0.00000e+00 
   @DF-RKS iter   1:  -113.28782354890791   -4.89929e-01   9.17751e-03 DIIS
   @DF-RKS iter   2:  -113.12780575193844    1.60018e-01   1.61248e-02 DIIS
   @DF-RKS iter   3:  -113.34175557479783   -2.13950e-01   3.86883e-03 DIIS
   @DF-RKS iter   4:  -113.35784420853275   -1.60886e-02   1.91956e-04 DIIS
   @DF-RKS iter   5:  -113.35788057769916   -3.63692e-05   5.47110e-05 DIIS
   @DF-RKS iter   6:  -113.35788355781527   -2.98012e-06   6.33106e-06 DIIS
   @DF-RKS iter   7:  -113.35788359433978   -3.65245e-08   1.85788e-07 DIIS
  Energy and wave function converged.


  ==> Post-Iterations <==

    Orbital Energies [Eh]
    ---------------------

    Doubly Occupied:                                                      

       1A1   -19.244153     2A1   -10.305197     3A1    -1.163713  
       4A1    -0.584902     1B2    -0.478880     1B1    -0.478880  
       5A1    -0.388660  

    Virtual:                                                              

       2B2    -0.047969     2B1    -0.047969     6A1     0.021190  
       7A1     0.045035     3B2     0.052815     3B1     0.052815  
       8A1     0.124482     4B2     0.137695     4B1     0.137695  
       9A1     0.189485    10A1     0.206999     1A2     0.206999  
      11A1     0.296183     5B2     0.313811     5B1     0.313811  
       6B2     0.381967     6B1     0.381967    12A1     0.397345  
      13A1     0.532622    14A1     0.566155    15A1     0.577537  
       2A2     0.577537     7B2     0.665220     7B1     0.665220  
      16A1     0.813427    17A1     0.862324     3A2     0.862324  
       8B2     0.891732     8B1     0.891732     9B1     0.917847  
       9B2     0.917847    10B2     1.047136    10B1     1.047136  
      18A1     1.075854    19A1     1.110518     4A2     1.110518  
      20A1     1.177745    21A1     1.272060    11B2     1.277144  
      11B1     1.277144     5A2     1.892825    22A1     1.892825  
      12B2     1.894606    12B1     1.894606    13B2     2.010794  
      13B1     2.010794    23A1     2.043862    24A1     2.159164  
      14B2     2.258707    14B1     2.258707     6A2     2.318571  
      25A1     2.318572    26A1     2.379464    15B2     2.672906  
      15B1     2.672906    27A1     3.062465     7A2     3.062466  
      28A1     3.128358    16B2     3.131863    16B1     3.131863  
      17B1     3.288215    17B2     3.288215    29A1     3.410967  
       8A2     3.410967    18B1     3.548218    18B2     3.548218  
      30A1     3.612969    31A1     3.961650    19B2     4.728144  
      19B1     4.728144    32A1     4.770952    20B2     6.006616  
      20B1     6.006616     9A2     6.273568    33A1     6.273570  
      34A1     6.491885    10A2     6.491898    21B2     6.591738  
      21B1     6.591738    35A1     6.668051    22B2     6.899310  
      22B1     6.899310    36A1     7.035358    37A1    11.729876  
      38A1    14.055089  

    Final Occupation by Irrep:
             A1    A2    B1    B2 
    DOCC [     5,    0,    1,    1 ]

  @DF-RKS Final Energy:  -113.35788359433978

   => Energetics <=

    Nuclear Repulsion Energy =             22.1513465937837957
    One-Electron Energy =                -197.6631767291814299
    Two-Electron Energy =                  73.3682193515560215
    DFT Exchange-Correlation Energy =     -11.2142728104981515
    Empirical Dispersion Energy =           0.0000000000000000
    VV10 Nonlocal Energy =                  0.0000000000000000
    Total Energy =                       -113.3578835943397678

Computation Completed


Properties will be evaluated at   0.000000,   0.000000,   0.000000 [a0]

Properties computed using the SCF density matrix

  Nuclear Dipole Moment: [e a0]
     X:     0.0000      Y:     0.0000      Z:     0.0024

  Electronic Dipole Moment: [e a0]
     X:     0.0000      Y:     0.0000      Z:     0.0051

  Dipole Moment: [e a0]
     X:     0.0000      Y:     0.0000      Z:     0.0075     Total:     0.0075

  Dipole Moment: [D]
     X:     0.0000      Y:     0.0000      Z:     0.0190     Total:     0.0190


*** tstop() called on atlantis at Tue Apr 19 00:35:52 2022
Module time:
	user time   =       1.35 seconds =       0.02 minutes
	system time =       0.03 seconds =       0.00 minutes
	total time  =          2 seconds =       0.03 minutes
Total time:
	user time   =       1.35 seconds =       0.02 minutes
	system time =       0.03 seconds =       0.00 minutes
	total time  =          2 seconds =       0.03 minutes
gradient() will perform analytic gradient computation.

*** tstart() called on atlantis
*** at Tue Apr 19 00:35:52 2022

   => Loading Basis Set <=

    Name: AUG-CC-PVTZ
    Role: ORBITAL
    Keyword: BASIS
    atoms 1 entry O          line   327 file /home/akrom/software/anaconda3/envs/ffpenv/share/psi4/basis/aug-cc-pvtz.gbs 
    atoms 2 entry C          line   235 file /home/akrom/software/anaconda3/envs/ffpenv/share/psi4/basis/aug-cc-pvtz.gbs 


         ---------------------------------------------------------
                                   SCF
               by Justin Turney, Rob Parrish, Andy Simmonett
                          and Daniel G. A. Smith
                              RKS Reference
                        1 Threads,    500 MiB Core
         ---------------------------------------------------------

  ==> Geometry <==

    Molecular point group: c2v
    Full point group: C_inf_v

    Geometry (in Angstrom), charge = 0, multiplicity = 1:

       Center              X                  Y                   Z               Mass       
    ------------   -----------------  -----------------  -----------------  -----------------
         O            0.000000000000     0.000000000000     0.491523556581    15.994914619570
         C            0.000000000000     0.000000000000    -0.655156443419    12.000000000000

  Running in c2v symmetry.

  Rotational constants: A = ************  B =      1.86994  C =      1.86994 [cm^-1]
  Rotational constants: A = ************  B =  56059.43274  C =  56059.43274 [MHz]
  Nuclear repulsion =   22.151346593783796

  Charge       = 0
  Multiplicity = 1
  Electrons    = 14
  Nalpha       = 7
  Nbeta        = 7

  ==> Algorithm <==

  SCF Algorithm Type is DF.
  DIIS enabled.
  MOM disabled.
  Fractional occupation disabled.
  Guess Type is SAD.
  Energy threshold   = 1.00e-08
  Density threshold  = 1.00e-08
  Integral threshold = 0.00e+00

  ==> Primary Basis <==

  Basis Set: AUG-CC-PVTZ
    Blend: AUG-CC-PVTZ
    Number of shells: 28
    Number of basis function: 92
    Number of Cartesian functions: 110
    Spherical Harmonics?: true
    Max angular momentum: 3

  ==> DFT Potential <==

   => Composite Functional: B3LYP <= 

    B3LYP Hyb-GGA Exchange-Correlation Functional

    P. J. Stephens, F. J. Devlin, C. F. Chabalowski, and M. J. Frisch, J. Phys. Chem. 98, 11623 (1994)

    Deriv               =              1
    GGA                 =           TRUE
    Meta                =          FALSE

    Exchange Hybrid     =           TRUE
    MP2 Hybrid          =          FALSE

   => Exchange Functionals <=

    0.0800   Slater exchange
    0.7200         Becke 88

   => Exact (HF) Exchange <=

    0.2000               HF 

   => Correlation Functionals <=

    0.1900   Vosko, Wilk & Nusair (VWN5_RPA)
    0.8100   Lee, Yang & Parr

   => Molecular Quadrature <=

    Radial Scheme          =       TREUTLER
    Pruning Scheme         =           FLAT
    Nuclear Scheme         =       TREUTLER

    BS radius alpha        =              1
    Pruning alpha          =              1
    Radial Points          =             75
    Spherical Points       =            302
    Total Points           =          45300
    Total Blocks           =            420
    Max Points             =            256
    Max Functions          =             92

   => Loading Basis Set <=

    Name: (AUG-CC-PVTZ AUX)
    Role: JKFIT
    Keyword: DF_BASIS_SCF
    atoms 1 entry O          line   286 file /home/akrom/software/anaconda3/envs/ffpenv/share/psi4/basis/aug-cc-pvtz-jkfit.gbs 
    atoms 2 entry C          line   162 file /home/akrom/software/anaconda3/envs/ffpenv/share/psi4/basis/aug-cc-pvtz-jkfit.gbs 

  ==> Pre-Iterations <==

   -------------------------------------------------------
    Irrep   Nso     Nmo     Nalpha   Nbeta   Ndocc  Nsocc
   -------------------------------------------------------
     A1        38      38       0       0       0       0
     A2        10      10       0       0       0       0
     B1        22      22       0       0       0       0
     B2        22      22       0       0       0       0
   -------------------------------------------------------
    Total      92      92       7       7       7       0
   -------------------------------------------------------

  ==> Integral Setup <==

  DFHelper Memory: AOs need 0.015 GiB; user supplied 0.253 GiB. Using in-core AOs.

  ==> MemDFJK: Density-Fitted J/K Matrices <==

    J tasked:                   Yes
    K tasked:                   Yes
    wK tasked:                   No
    OpenMP threads:               1
    Memory [MiB]:               258
    Algorithm:                 Core
    Schwarz Cutoff:           1E-12
    Mask sparsity (%):       0.0000
    Fitting Condition:        1E-10

   => Auxiliary Basis Set <=

  Basis Set: (AUG-CC-PVTZ AUX)
    Blend: AUG-CC-PVTZ-JKFIT
    Number of shells: 60
    Number of basis function: 208
    Number of Cartesian functions: 262
    Spherical Harmonics?: true
    Max angular momentum: 4

  Cached 100.0% of DFT collocation blocks in 0.114 [GiB].

  Minimum eigenvalue in the overlap matrix is 4.8582112806E-04.
  Using Symmetric Orthogonalization.

  SCF Guess: Superposition of Atomic Densities via on-the-fly atomic UHF.

  ==> Iterations <==

                           Total Energy        Delta E     RMS |[F,P]|

   @DF-RKS iter SAD:  -112.79789484115278   -1.12798e+02   0.00000e+00 
   @DF-RKS iter   1:  -113.28782354890791   -4.89929e-01   9.17751e-03 DIIS
   @DF-RKS iter   2:  -113.12780575193844    1.60018e-01   1.61248e-02 DIIS
   @DF-RKS iter   3:  -113.34175557479783   -2.13950e-01   3.86883e-03 DIIS
   @DF-RKS iter   4:  -113.35784420853275   -1.60886e-02   1.91956e-04 DIIS
   @DF-RKS iter   5:  -113.35788057769916   -3.63692e-05   5.47110e-05 DIIS
   @DF-RKS iter   6:  -113.35788355781527   -2.98012e-06   6.33106e-06 DIIS
   @DF-RKS iter   7:  -113.35788359433978   -3.65245e-08   1.85788e-07 DIIS
   @DF-RKS iter   8:  -113.35788359436697   -2.71854e-11   3.87297e-08 DIIS
   @DF-RKS iter   9:  -113.35788359436842   -1.44951e-12   2.50069e-09 DIIS
  Energy and wave function converged.


  ==> Post-Iterations <==

    Orbital Energies [Eh]
    ---------------------

    Doubly Occupied:                                                      

       1A1   -19.244153     2A1   -10.305197     3A1    -1.163713  
       4A1    -0.584902     1B2    -0.478880     1B1    -0.478880  
       5A1    -0.388660  

    Virtual:                                                              

       2B2    -0.047969     2B1    -0.047969     6A1     0.021190  
       7A1     0.045035     3B2     0.052815     3B1     0.052815  
       8A1     0.124482     4B2     0.137696     4B1     0.137696  
       9A1     0.189485    10A1     0.206999     1A2     0.206999  
      11A1     0.296183     5B2     0.313810     5B1     0.313810  
       6B2     0.381967     6B1     0.381967    12A1     0.397345  
      13A1     0.532622    14A1     0.566155    15A1     0.577537  
       2A2     0.577537     7B2     0.665220     7B1     0.665220  
      16A1     0.813427    17A1     0.862324     3A2     0.862324  
       8B2     0.891732     8B1     0.891732     9B1     0.917847  
       9B2     0.917847    10B2     1.047136    10B1     1.047136  
      18A1     1.075854    19A1     1.110518     4A2     1.110518  
      20A1     1.177745    21A1     1.272060    11B2     1.277144  
      11B1     1.277144     5A2     1.892825    22A1     1.892825  
      12B2     1.894607    12B1     1.894607    13B2     2.010794  
      13B1     2.010794    23A1     2.043862    24A1     2.159165  
      14B2     2.258707    14B1     2.258707     6A2     2.318572  
      25A1     2.318572    26A1     2.379464    15B2     2.672906  
      15B1     2.672906    27A1     3.062465     7A2     3.062466  
      28A1     3.128358    16B2     3.131863    16B1     3.131863  
      17B1     3.288215    17B2     3.288215    29A1     3.410967  
       8A2     3.410967    18B1     3.548219    18B2     3.548219  
      30A1     3.612969    31A1     3.961651    19B2     4.728144  
      19B1     4.728144    32A1     4.770952    20B2     6.006616  
      20B1     6.006616     9A2     6.273569    33A1     6.273570  
      34A1     6.491885    10A2     6.491898    21B2     6.591738  
      21B1     6.591738    35A1     6.668051    22B2     6.899310  
      22B1     6.899310    36A1     7.035358    37A1    11.729876  
      38A1    14.055089  

    Final Occupation by Irrep:
             A1    A2    B1    B2 
    DOCC [     5,    0,    1,    1 ]

  @DF-RKS Final Energy:  -113.35788359436842

   => Energetics <=

    Nuclear Repulsion Energy =             22.1513465937837957
    One-Electron Energy =                -197.6631547697422207
    Two-Electron Energy =                  73.3681949526161929
    DFT Exchange-Correlation Energy =     -11.2142703710261760
    Empirical Dispersion Energy =           0.0000000000000000
    VV10 Nonlocal Energy =                  0.0000000000000000
    Total Energy =                       -113.3578835943684169

Computation Completed


Properties will be evaluated at   0.000000,   0.000000,   0.000000 [a0]

Properties computed using the SCF density matrix

  Nuclear Dipole Moment: [e a0]
     X:     0.0000      Y:     0.0000      Z:     0.0024

  Electronic Dipole Moment: [e a0]
     X:     0.0000      Y:     0.0000      Z:     0.0051

  Dipole Moment: [e a0]
     X:     0.0000      Y:     0.0000      Z:     0.0075     Total:     0.0075

  Dipole Moment: [D]
     X:     0.0000      Y:     0.0000      Z:     0.0191     Total:     0.0191


*** tstop() called on atlantis at Tue Apr 19 00:35:53 2022
Module time:
	user time   =       1.58 seconds =       0.03 minutes
	system time =       0.02 seconds =       0.00 minutes
	total time  =          1 seconds =       0.02 minutes
Total time:
	user time   =       2.93 seconds =       0.05 minutes
	system time =       0.05 seconds =       0.00 minutes
	total time  =          3 seconds =       0.05 minutes

*** tstart() called on atlantis
*** at Tue Apr 19 00:35:53 2022


         ------------------------------------------------------------
                                   SCF GRAD                          
                          Rob Parrish, Justin Turney,                
                       Andy Simmonett, and Alex Sokolov              
         ------------------------------------------------------------

  ==> Geometry <==

    Molecular point group: c2v
    Full point group: C_inf_v

    Geometry (in Angstrom), charge = 0, multiplicity = 1:

       Center              X                  Y                   Z               Mass       
    ------------   -----------------  -----------------  -----------------  -----------------
         O            0.000000000000     0.000000000000     0.491523556581    15.994914619570
         C            0.000000000000     0.000000000000    -0.655156443419    12.000000000000

  Nuclear repulsion =   22.151346593783796

  ==> Basis Set <==

  Basis Set: AUG-CC-PVTZ
    Blend: AUG-CC-PVTZ
    Number of shells: 28
    Number of basis function: 92
    Number of Cartesian functions: 110
    Spherical Harmonics?: true
    Max angular momentum: 3

  ==> DFJKGrad: Density-Fitted SCF Gradients <==

    Gradient:                    1
    J tasked:                  Yes
    K tasked:                  Yes
    wK tasked:                  No
    OpenMP threads:              1
    Integrals threads:           1
    Memory [MiB]:              375
    Schwarz Cutoff:          0E+00
    Fitting Condition:       1E-10

   => Auxiliary Basis Set <=

  Basis Set: (AUG-CC-PVTZ AUX)
    Blend: AUG-CC-PVTZ-JKFIT
    Number of shells: 60
    Number of basis function: 208
    Number of Cartesian functions: 262
    Spherical Harmonics?: true
    Max angular momentum: 4

  ==> DFT Potential <==

   => Composite Functional: B3LYP <= 

    B3LYP Hyb-GGA Exchange-Correlation Functional

    P. J. Stephens, F. J. Devlin, C. F. Chabalowski, and M. J. Frisch, J. Phys. Chem. 98, 11623 (1994)

    Deriv               =              1
    GGA                 =           TRUE
    Meta                =          FALSE

    Exchange Hybrid     =           TRUE
    MP2 Hybrid          =          FALSE

   => Exchange Functionals <=

    0.0800   Slater exchange
    0.7200         Becke 88

   => Exact (HF) Exchange <=

    0.2000               HF 

   => Correlation Functionals <=

    0.1900   Vosko, Wilk & Nusair (VWN5_RPA)
    0.8100   Lee, Yang & Parr

   => Molecular Quadrature <=

    Radial Scheme          =       TREUTLER
    Pruning Scheme         =           FLAT
    Nuclear Scheme         =       TREUTLER

    BS radius alpha        =              1
    Pruning alpha          =              1
    Radial Points          =             75
    Spherical Points       =            302
    Total Points           =          45300
    Total Blocks           =            420
    Max Points             =            256
    Max Functions          =             92


  -Total Gradient:
     Atom            X                  Y                   Z
    ------   -----------------  -----------------  -----------------
       1        0.000000000000     0.000000000000     0.046278154480
       2        0.000000000000    -0.000000000000    -0.046281487743


*** tstop() called on atlantis at Tue Apr 19 00:35:54 2022
Module time:
	user time   =       0.55 seconds =       0.01 minutes
	system time =       0.00 seconds =       0.00 minutes
	total time  =          1 seconds =       0.02 minutes
Total time:
	user time   =       3.48 seconds =       0.06 minutes
	system time =       0.05 seconds =       0.00 minutes
	total time  =          4 seconds =       0.07 minutes

  Based on options and gradient (rms=2.67E-02), recommend projecting translations and not projecting rotations.
hessian() will perform frequency computation by finite difference of analytic gradients.

         ----------------------------------------------------------
                                   FINDIF
                     R. A. King and Jonathon Misiewicz
         ---------------------------------------------------------

  Using finite-differences of gradients to determine vibrational frequencies and 
  normal modes.  Resulting frequencies are only valid at stationary points.
    Generating geometries for use with 3-point formula.
    Displacement size will be 5.00e-03.
    Number of atoms is 2.
    Number of irreps is 4.
    Number of SALCs is 3.
    Translations projected? 1. Rotations projected? 0.
    Index of SALCs per irrep:
     1 :  0 
     2 : 
     3 :  1 
     4 :  2 
    Number of SALCs per irrep:
     Irrep 1: 1
     Irrep 2: 0
     Irrep 3: 1
     Irrep 4: 1
    Number of geometries (including reference) is 5.
    Number of displacements per irrep:
      Irrep 1: 2
      Irrep 2: 0
      Irrep 3: 1
      Irrep 4: 1

  //>>>>>>>>>>>>>>>>>>>>>>>>>>>>>>>>>>>//
  //    Loading displacement 1 of 5    //
  //<<<<<<<<<<<<<<<<<<<<<<<<<<<<<<<<<<<//
gradient() will perform analytic gradient computation.

*** tstart() called on atlantis
*** at Tue Apr 19 00:35:54 2022

   => Loading Basis Set <=

    Name: AUG-CC-PVTZ
    Role: ORBITAL
    Keyword: BASIS
    atoms 1 entry O          line   327 file /home/akrom/software/anaconda3/envs/ffpenv/share/psi4/basis/aug-cc-pvtz.gbs 
    atoms 2 entry C          line   235 file /home/akrom/software/anaconda3/envs/ffpenv/share/psi4/basis/aug-cc-pvtz.gbs 


         ---------------------------------------------------------
                                   SCF
               by Justin Turney, Rob Parrish, Andy Simmonett
                          and Daniel G. A. Smith
                              RKS Reference
                        1 Threads,    500 MiB Core
         ---------------------------------------------------------

  ==> Geometry <==

    Molecular point group: c2v
    Full point group: C_inf_v

    Geometry (in Angstrom), charge = 0, multiplicity = 1:

       Center              X                  Y                   Z               Mass       
    ------------   -----------------  -----------------  -----------------  -----------------
         O            0.000000000000     0.000000000000     0.491523556581    15.994914619570
         C            0.000000000000     0.000000000000    -0.655156443419    12.000000000000

  Running in c2v symmetry.

  Rotational constants: A = ************  B =      1.86994  C =      1.86994 [cm^-1]
  Rotational constants: A = ************  B =  56059.43274  C =  56059.43274 [MHz]
  Nuclear repulsion =   22.151346593783796

  Charge       = 0
  Multiplicity = 1
  Electrons    = 14
  Nalpha       = 7
  Nbeta        = 7

  ==> Algorithm <==

  SCF Algorithm Type is DF.
  DIIS enabled.
  MOM disabled.
  Fractional occupation disabled.
  Guess Type is SAD.
  Energy threshold   = 1.00e-08
  Density threshold  = 1.00e-08
  Integral threshold = 0.00e+00

  ==> Primary Basis <==

  Basis Set: AUG-CC-PVTZ
    Blend: AUG-CC-PVTZ
    Number of shells: 28
    Number of basis function: 92
    Number of Cartesian functions: 110
    Spherical Harmonics?: true
    Max angular momentum: 3

  ==> DFT Potential <==

   => Composite Functional: B3LYP <= 

    B3LYP Hyb-GGA Exchange-Correlation Functional

    P. J. Stephens, F. J. Devlin, C. F. Chabalowski, and M. J. Frisch, J. Phys. Chem. 98, 11623 (1994)

    Deriv               =              1
    GGA                 =           TRUE
    Meta                =          FALSE

    Exchange Hybrid     =           TRUE
    MP2 Hybrid          =          FALSE

   => Exchange Functionals <=

    0.0800   Slater exchange
    0.7200         Becke 88

   => Exact (HF) Exchange <=

    0.2000               HF 

   => Correlation Functionals <=

    0.1900   Vosko, Wilk & Nusair (VWN5_RPA)
    0.8100   Lee, Yang & Parr

   => Molecular Quadrature <=

    Radial Scheme          =       TREUTLER
    Pruning Scheme         =           FLAT
    Nuclear Scheme         =       TREUTLER

    BS radius alpha        =              1
    Pruning alpha          =              1
    Radial Points          =             75
    Spherical Points       =            302
    Total Points           =          45300
    Total Blocks           =            420
    Max Points             =            256
    Max Functions          =             92

   => Loading Basis Set <=

    Name: (AUG-CC-PVTZ AUX)
    Role: JKFIT
    Keyword: DF_BASIS_SCF
    atoms 1 entry O          line   286 file /home/akrom/software/anaconda3/envs/ffpenv/share/psi4/basis/aug-cc-pvtz-jkfit.gbs 
    atoms 2 entry C          line   162 file /home/akrom/software/anaconda3/envs/ffpenv/share/psi4/basis/aug-cc-pvtz-jkfit.gbs 

  ==> Pre-Iterations <==

   -------------------------------------------------------
    Irrep   Nso     Nmo     Nalpha   Nbeta   Ndocc  Nsocc
   -------------------------------------------------------
     A1        38      38       0       0       0       0
     A2        10      10       0       0       0       0
     B1        22      22       0       0       0       0
     B2        22      22       0       0       0       0
   -------------------------------------------------------
    Total      92      92       7       7       7       0
   -------------------------------------------------------

  ==> Integral Setup <==

  DFHelper Memory: AOs need 0.015 GiB; user supplied 0.253 GiB. Using in-core AOs.

  ==> MemDFJK: Density-Fitted J/K Matrices <==

    J tasked:                   Yes
    K tasked:                   Yes
    wK tasked:                   No
    OpenMP threads:               1
    Memory [MiB]:               258
    Algorithm:                 Core
    Schwarz Cutoff:           1E-12
    Mask sparsity (%):       0.0000
    Fitting Condition:        1E-10

   => Auxiliary Basis Set <=

  Basis Set: (AUG-CC-PVTZ AUX)
    Blend: AUG-CC-PVTZ-JKFIT
    Number of shells: 60
    Number of basis function: 208
    Number of Cartesian functions: 262
    Spherical Harmonics?: true
    Max angular momentum: 4

  Cached 100.0% of DFT collocation blocks in 0.114 [GiB].

  Minimum eigenvalue in the overlap matrix is 4.8582112806E-04.
  Using Symmetric Orthogonalization.

  SCF Guess: Superposition of Atomic Densities via on-the-fly atomic UHF.

  ==> Iterations <==

                           Total Energy        Delta E     RMS |[F,P]|

   @DF-RKS iter SAD:  -112.79789484115278   -1.12798e+02   0.00000e+00 
   @DF-RKS iter   1:  -113.28782354890791   -4.89929e-01   9.17751e-03 DIIS
   @DF-RKS iter   2:  -113.12780575193844    1.60018e-01   1.61248e-02 DIIS
   @DF-RKS iter   3:  -113.34175557479783   -2.13950e-01   3.86883e-03 DIIS
   @DF-RKS iter   4:  -113.35784420853275   -1.60886e-02   1.91956e-04 DIIS
   @DF-RKS iter   5:  -113.35788057769916   -3.63692e-05   5.47110e-05 DIIS
   @DF-RKS iter   6:  -113.35788355781527   -2.98012e-06   6.33106e-06 DIIS
   @DF-RKS iter   7:  -113.35788359433978   -3.65245e-08   1.85788e-07 DIIS
   @DF-RKS iter   8:  -113.35788359436697   -2.71854e-11   3.87297e-08 DIIS
   @DF-RKS iter   9:  -113.35788359436842   -1.44951e-12   2.50069e-09 DIIS
  Energy and wave function converged.


  ==> Post-Iterations <==

    Orbital Energies [Eh]
    ---------------------

    Doubly Occupied:                                                      

       1A1   -19.244153     2A1   -10.305197     3A1    -1.163713  
       4A1    -0.584902     1B2    -0.478880     1B1    -0.478880  
       5A1    -0.388660  

    Virtual:                                                              

       2B2    -0.047969     2B1    -0.047969     6A1     0.021190  
       7A1     0.045035     3B2     0.052815     3B1     0.052815  
       8A1     0.124482     4B2     0.137696     4B1     0.137696  
       9A1     0.189485    10A1     0.206999     1A2     0.206999  
      11A1     0.296183     5B2     0.313810     5B1     0.313810  
       6B2     0.381967     6B1     0.381967    12A1     0.397345  
      13A1     0.532622    14A1     0.566155    15A1     0.577537  
       2A2     0.577537     7B2     0.665220     7B1     0.665220  
      16A1     0.813427    17A1     0.862324     3A2     0.862324  
       8B2     0.891732     8B1     0.891732     9B1     0.917847  
       9B2     0.917847    10B2     1.047136    10B1     1.047136  
      18A1     1.075854    19A1     1.110518     4A2     1.110518  
      20A1     1.177745    21A1     1.272060    11B2     1.277144  
      11B1     1.277144     5A2     1.892825    22A1     1.892825  
      12B2     1.894607    12B1     1.894607    13B2     2.010794  
      13B1     2.010794    23A1     2.043862    24A1     2.159165  
      14B2     2.258707    14B1     2.258707     6A2     2.318572  
      25A1     2.318572    26A1     2.379464    15B2     2.672906  
      15B1     2.672906    27A1     3.062465     7A2     3.062466  
      28A1     3.128358    16B2     3.131863    16B1     3.131863  
      17B1     3.288215    17B2     3.288215    29A1     3.410967  
       8A2     3.410967    18B1     3.548219    18B2     3.548219  
      30A1     3.612969    31A1     3.961651    19B2     4.728144  
      19B1     4.728144    32A1     4.770952    20B2     6.006616  
      20B1     6.006616     9A2     6.273569    33A1     6.273570  
      34A1     6.491885    10A2     6.491898    21B2     6.591738  
      21B1     6.591738    35A1     6.668051    22B2     6.899310  
      22B1     6.899310    36A1     7.035358    37A1    11.729876  
      38A1    14.055089  

    Final Occupation by Irrep:
             A1    A2    B1    B2 
    DOCC [     5,    0,    1,    1 ]

  @DF-RKS Final Energy:  -113.35788359436842

   => Energetics <=

    Nuclear Repulsion Energy =             22.1513465937837957
    One-Electron Energy =                -197.6631547697422207
    Two-Electron Energy =                  73.3681949526161929
    DFT Exchange-Correlation Energy =     -11.2142703710261760
    Empirical Dispersion Energy =           0.0000000000000000
    VV10 Nonlocal Energy =                  0.0000000000000000
    Total Energy =                       -113.3578835943684169

Computation Completed


Properties will be evaluated at   0.000000,   0.000000,   0.000000 [a0]

Properties computed using the SCF density matrix

  Nuclear Dipole Moment: [e a0]
     X:     0.0000      Y:     0.0000      Z:     0.0024

  Electronic Dipole Moment: [e a0]
     X:     0.0000      Y:     0.0000      Z:     0.0051

  Dipole Moment: [e a0]
     X:     0.0000      Y:     0.0000      Z:     0.0075     Total:     0.0075

  Dipole Moment: [D]
     X:     0.0000      Y:     0.0000      Z:     0.0191     Total:     0.0191


*** tstop() called on atlantis at Tue Apr 19 00:35:56 2022
Module time:
	user time   =       1.55 seconds =       0.03 minutes
	system time =       0.01 seconds =       0.00 minutes
	total time  =          2 seconds =       0.03 minutes
Total time:
	user time   =       5.30 seconds =       0.09 minutes
	system time =       0.07 seconds =       0.00 minutes
	total time  =          6 seconds =       0.10 minutes

*** tstart() called on atlantis
*** at Tue Apr 19 00:35:56 2022


         ------------------------------------------------------------
                                   SCF GRAD                          
                          Rob Parrish, Justin Turney,                
                       Andy Simmonett, and Alex Sokolov              
         ------------------------------------------------------------

  ==> Geometry <==

    Molecular point group: c2v
    Full point group: C_inf_v

    Geometry (in Angstrom), charge = 0, multiplicity = 1:

       Center              X                  Y                   Z               Mass       
    ------------   -----------------  -----------------  -----------------  -----------------
         O            0.000000000000     0.000000000000     0.491523556581    15.994914619570
         C            0.000000000000     0.000000000000    -0.655156443419    12.000000000000

  Nuclear repulsion =   22.151346593783796

  ==> Basis Set <==

  Basis Set: AUG-CC-PVTZ
    Blend: AUG-CC-PVTZ
    Number of shells: 28
    Number of basis function: 92
    Number of Cartesian functions: 110
    Spherical Harmonics?: true
    Max angular momentum: 3

  ==> DFJKGrad: Density-Fitted SCF Gradients <==

    Gradient:                    1
    J tasked:                  Yes
    K tasked:                  Yes
    wK tasked:                  No
    OpenMP threads:              1
    Integrals threads:           1
    Memory [MiB]:              375
    Schwarz Cutoff:          0E+00
    Fitting Condition:       1E-10

   => Auxiliary Basis Set <=

  Basis Set: (AUG-CC-PVTZ AUX)
    Blend: AUG-CC-PVTZ-JKFIT
    Number of shells: 60
    Number of basis function: 208
    Number of Cartesian functions: 262
    Spherical Harmonics?: true
    Max angular momentum: 4

  ==> DFT Potential <==

   => Composite Functional: B3LYP <= 

    B3LYP Hyb-GGA Exchange-Correlation Functional

    P. J. Stephens, F. J. Devlin, C. F. Chabalowski, and M. J. Frisch, J. Phys. Chem. 98, 11623 (1994)

    Deriv               =              1
    GGA                 =           TRUE
    Meta                =          FALSE

    Exchange Hybrid     =           TRUE
    MP2 Hybrid          =          FALSE

   => Exchange Functionals <=

    0.0800   Slater exchange
    0.7200         Becke 88

   => Exact (HF) Exchange <=

    0.2000               HF 

   => Correlation Functionals <=

    0.1900   Vosko, Wilk & Nusair (VWN5_RPA)
    0.8100   Lee, Yang & Parr

   => Molecular Quadrature <=

    Radial Scheme          =       TREUTLER
    Pruning Scheme         =           FLAT
    Nuclear Scheme         =       TREUTLER

    BS radius alpha        =              1
    Pruning alpha          =              1
    Radial Points          =             75
    Spherical Points       =            302
    Total Points           =          45300
    Total Blocks           =            420
    Max Points             =            256
    Max Functions          =             92


  -Total Gradient:
     Atom            X                  Y                   Z
    ------   -----------------  -----------------  -----------------
       1        0.000000000000     0.000000000000     0.046278154480
       2        0.000000000000    -0.000000000000    -0.046281487743


*** tstop() called on atlantis at Tue Apr 19 00:35:56 2022
Module time:
	user time   =       0.54 seconds =       0.01 minutes
	system time =       0.01 seconds =       0.00 minutes
	total time  =          0 seconds =       0.00 minutes
Total time:
	user time   =       5.85 seconds =       0.10 minutes
	system time =       0.08 seconds =       0.00 minutes
	total time  =          6 seconds =       0.10 minutes

  //>>>>>>>>>>>>>>>>>>>>>>>>>>>>>>>>>>>//
  //    Loading displacement 2 of 5    //
  //<<<<<<<<<<<<<<<<<<<<<<<<<<<<<<<<<<<//
gradient() will perform analytic gradient computation.

*** tstart() called on atlantis
*** at Tue Apr 19 00:35:56 2022

   => Loading Basis Set <=

    Name: AUG-CC-PVTZ
    Role: ORBITAL
    Keyword: BASIS
    atoms 1 entry O          line   327 file /home/akrom/software/anaconda3/envs/ffpenv/share/psi4/basis/aug-cc-pvtz.gbs 
    atoms 2 entry C          line   235 file /home/akrom/software/anaconda3/envs/ffpenv/share/psi4/basis/aug-cc-pvtz.gbs 


         ---------------------------------------------------------
                                   SCF
               by Justin Turney, Rob Parrish, Andy Simmonett
                          and Daniel G. A. Smith
                              RKS Reference
                        1 Threads,    500 MiB Core
         ---------------------------------------------------------

  ==> Geometry <==

    Molecular point group: c2v
    Full point group: C_inf_v

    Geometry (in Angstrom), charge = 0, multiplicity = 1:

       Center              X                  Y                   Z               Mass       
    ------------   -----------------  -----------------  -----------------  -----------------
         O            0.000000000000     0.000000000000     0.491090413658    15.994914619570
         C            0.000000000000     0.000000000000    -0.654579103079    12.000000000000

  Running in c2v symmetry.

  Rotational constants: A = ************  B =      1.87324  C =      1.87324 [cm^-1]
  Rotational constants: A = ************  B =  56158.36546  C =  56158.36546 [MHz]
  Nuclear repulsion =   22.170884134640527

  Charge       = 0
  Multiplicity = 1
  Electrons    = 14
  Nalpha       = 7
  Nbeta        = 7

  ==> Algorithm <==

  SCF Algorithm Type is DF.
  DIIS enabled.
  MOM disabled.
  Fractional occupation disabled.
  Guess Type is SAD.
  Energy threshold   = 1.00e-08
  Density threshold  = 1.00e-08
  Integral threshold = 0.00e+00

  ==> Primary Basis <==

  Basis Set: AUG-CC-PVTZ
    Blend: AUG-CC-PVTZ
    Number of shells: 28
    Number of basis function: 92
    Number of Cartesian functions: 110
    Spherical Harmonics?: true
    Max angular momentum: 3

  ==> DFT Potential <==

   => Composite Functional: B3LYP <= 

    B3LYP Hyb-GGA Exchange-Correlation Functional

    P. J. Stephens, F. J. Devlin, C. F. Chabalowski, and M. J. Frisch, J. Phys. Chem. 98, 11623 (1994)

    Deriv               =              1
    GGA                 =           TRUE
    Meta                =          FALSE

    Exchange Hybrid     =           TRUE
    MP2 Hybrid          =          FALSE

   => Exchange Functionals <=

    0.0800   Slater exchange
    0.7200         Becke 88

   => Exact (HF) Exchange <=

    0.2000               HF 

   => Correlation Functionals <=

    0.1900   Vosko, Wilk & Nusair (VWN5_RPA)
    0.8100   Lee, Yang & Parr

   => Molecular Quadrature <=

    Radial Scheme          =       TREUTLER
    Pruning Scheme         =           FLAT
    Nuclear Scheme         =       TREUTLER

    BS radius alpha        =              1
    Pruning alpha          =              1
    Radial Points          =             75
    Spherical Points       =            302
    Total Points           =          45300
    Total Blocks           =            421
    Max Points             =            256
    Max Functions          =             92

   => Loading Basis Set <=

    Name: (AUG-CC-PVTZ AUX)
    Role: JKFIT
    Keyword: DF_BASIS_SCF
    atoms 1 entry O          line   286 file /home/akrom/software/anaconda3/envs/ffpenv/share/psi4/basis/aug-cc-pvtz-jkfit.gbs 
    atoms 2 entry C          line   162 file /home/akrom/software/anaconda3/envs/ffpenv/share/psi4/basis/aug-cc-pvtz-jkfit.gbs 

  ==> Pre-Iterations <==

   -------------------------------------------------------
    Irrep   Nso     Nmo     Nalpha   Nbeta   Ndocc  Nsocc
   -------------------------------------------------------
     A1        38      38       0       0       0       0
     A2        10      10       0       0       0       0
     B1        22      22       0       0       0       0
     B2        22      22       0       0       0       0
   -------------------------------------------------------
    Total      92      92       7       7       7       0
   -------------------------------------------------------

  ==> Integral Setup <==

  DFHelper Memory: AOs need 0.015 GiB; user supplied 0.253 GiB. Using in-core AOs.

  ==> MemDFJK: Density-Fitted J/K Matrices <==

    J tasked:                   Yes
    K tasked:                   Yes
    wK tasked:                   No
    OpenMP threads:               1
    Memory [MiB]:               258
    Algorithm:                 Core
    Schwarz Cutoff:           1E-12
    Mask sparsity (%):       0.0000
    Fitting Condition:        1E-10

   => Auxiliary Basis Set <=

  Basis Set: (AUG-CC-PVTZ AUX)
    Blend: AUG-CC-PVTZ-JKFIT
    Number of shells: 60
    Number of basis function: 208
    Number of Cartesian functions: 262
    Spherical Harmonics?: true
    Max angular momentum: 4

  Cached 100.0% of DFT collocation blocks in 0.114 [GiB].

  Minimum eigenvalue in the overlap matrix is 4.8515855779E-04.
  Using Symmetric Orthogonalization.

  SCF Guess: Superposition of Atomic Densities via on-the-fly atomic UHF.

  ==> Iterations <==

                           Total Energy        Delta E     RMS |[F,P]|

   @DF-RKS iter SAD:  -112.79933700620630   -1.12799e+02   0.00000e+00 
   @DF-RKS iter   1:  -113.28783860656590   -4.88502e-01   9.18257e-03 DIIS
   @DF-RKS iter   2:  -113.12937668764549    1.58462e-01   1.60779e-02 DIIS
   @DF-RKS iter   3:  -113.34183802777316   -2.12461e-01   3.87163e-03 DIIS
   @DF-RKS iter   4:  -113.35793073880586   -1.60927e-02   1.91568e-04 DIIS
   @DF-RKS iter   5:  -113.35796699568429   -3.62569e-05   5.44727e-05 DIIS
   @DF-RKS iter   6:  -113.35796994938980   -2.95371e-06   6.27884e-06 DIIS
   @DF-RKS iter   7:  -113.35796998527441   -3.58846e-08   1.84372e-07 DIIS
   @DF-RKS iter   8:  -113.35796998530122   -2.68159e-11   3.83183e-08 DIIS
   @DF-RKS iter   9:  -113.35796998530266   -1.43530e-12   2.45682e-09 DIIS
  Energy and wave function converged.


  ==> Post-Iterations <==

    Orbital Energies [Eh]
    ---------------------

    Doubly Occupied:                                                      

       1A1   -19.244107     2A1   -10.304839     3A1    -1.164270  
       4A1    -0.584906     1B1    -0.479217     1B2    -0.479217  
       5A1    -0.388569  

    Virtual:                                                              

       2B1    -0.047619     2B2    -0.047619     6A1     0.021191  
       7A1     0.045063     3B1     0.052837     3B2     0.052837  
       8A1     0.124499     4B1     0.137691     4B2     0.137691  
       9A1     0.189506    10A1     0.207006     1A2     0.207006  
      11A1     0.296268     5B1     0.313903     5B2     0.313903  
       6B1     0.381943     6B2     0.381943    12A1     0.397413  
      13A1     0.532688    14A1     0.567136    15A1     0.577548  
       2A2     0.577548     7B1     0.665273     7B2     0.665273  
      16A1     0.813593    17A1     0.862416     3A2     0.862416  
       8B1     0.891982     8B2     0.891982     9B1     0.917868  
       9B2     0.917868    10B1     1.047091    10B2     1.047091  
      18A1     1.076157    19A1     1.110685     4A2     1.110685  
      20A1     1.178002    21A1     1.272367    11B1     1.277405  
      11B2     1.277405     5A2     1.892844    22A1     1.892844  
      12B2     1.894774    12B1     1.894774    13B1     2.011086  
      13B2     2.011086    23A1     2.044391    24A1     2.159781  
      14B1     2.259723    14B2     2.259723     6A2     2.319043  
      25A1     2.319043    26A1     2.379389    15B1     2.672074  
      15B2     2.672074    27A1     3.062654     7A2     3.062655  
      28A1     3.129500    16B1     3.131948    16B2     3.131948  
      17B2     3.288682    17B1     3.288682    29A1     3.411907  
       8A2     3.411907    18B1     3.548999    18B2     3.548999  
      30A1     3.614213    31A1     3.962327    19B1     4.730798  
      19B2     4.730798    32A1     4.774048    20B1     6.006618  
      20B2     6.006618     9A2     6.274113    33A1     6.274114  
      34A1     6.491976    10A2     6.491988    21B1     6.593481  
      21B2     6.593481    35A1     6.670037    22B1     6.899134  
      22B2     6.899134    36A1     7.036636    37A1    11.737668  
      38A1    14.078554  

    Final Occupation by Irrep:
             A1    A2    B1    B2 
    DOCC [     5,    0,    1,    1 ]

  @DF-RKS Final Energy:  -113.35796998530266

   => Energetics <=

    Nuclear Repulsion Energy =             22.1708841346405272
    One-Electron Energy =                -197.7003592115418655
    Two-Electron Energy =                  73.3865973543214665
    DFT Exchange-Correlation Energy =     -11.2150922627227825
    Empirical Dispersion Energy =           0.0000000000000000
    VV10 Nonlocal Energy =                  0.0000000000000000
    Total Energy =                       -113.3579699853026597

Computation Completed


Properties will be evaluated at   0.000000,   0.000000,   0.000000 [a0]

Properties computed using the SCF density matrix

  Nuclear Dipole Moment: [e a0]
     X:     0.0000      Y:     0.0000      Z:     0.0024

  Electronic Dipole Moment: [e a0]
     X:     0.0000      Y:     0.0000      Z:     0.0066

  Dipole Moment: [e a0]
     X:     0.0000      Y:     0.0000      Z:     0.0089     Total:     0.0089

  Dipole Moment: [D]
     X:     0.0000      Y:     0.0000      Z:     0.0227     Total:     0.0227


*** tstop() called on atlantis at Tue Apr 19 00:35:58 2022
Module time:
	user time   =       1.55 seconds =       0.03 minutes
	system time =       0.00 seconds =       0.00 minutes
	total time  =          2 seconds =       0.03 minutes
Total time:
	user time   =       7.41 seconds =       0.12 minutes
	system time =       0.08 seconds =       0.00 minutes
	total time  =          8 seconds =       0.13 minutes

*** tstart() called on atlantis
*** at Tue Apr 19 00:35:58 2022


         ------------------------------------------------------------
                                   SCF GRAD                          
                          Rob Parrish, Justin Turney,                
                       Andy Simmonett, and Alex Sokolov              
         ------------------------------------------------------------

  ==> Geometry <==

    Molecular point group: c2v
    Full point group: C_inf_v

    Geometry (in Angstrom), charge = 0, multiplicity = 1:

       Center              X                  Y                   Z               Mass       
    ------------   -----------------  -----------------  -----------------  -----------------
         O            0.000000000000     0.000000000000     0.491090413658    15.994914619570
         C            0.000000000000     0.000000000000    -0.654579103079    12.000000000000

  Nuclear repulsion =   22.170884134640527

  ==> Basis Set <==

  Basis Set: AUG-CC-PVTZ
    Blend: AUG-CC-PVTZ
    Number of shells: 28
    Number of basis function: 92
    Number of Cartesian functions: 110
    Spherical Harmonics?: true
    Max angular momentum: 3

  ==> DFJKGrad: Density-Fitted SCF Gradients <==

    Gradient:                    1
    J tasked:                  Yes
    K tasked:                  Yes
    wK tasked:                  No
    OpenMP threads:              1
    Integrals threads:           1
    Memory [MiB]:              375
    Schwarz Cutoff:          0E+00
    Fitting Condition:       1E-10

   => Auxiliary Basis Set <=

  Basis Set: (AUG-CC-PVTZ AUX)
    Blend: AUG-CC-PVTZ-JKFIT
    Number of shells: 60
    Number of basis function: 208
    Number of Cartesian functions: 262
    Spherical Harmonics?: true
    Max angular momentum: 4

  ==> DFT Potential <==

   => Composite Functional: B3LYP <= 

    B3LYP Hyb-GGA Exchange-Correlation Functional

    P. J. Stephens, F. J. Devlin, C. F. Chabalowski, and M. J. Frisch, J. Phys. Chem. 98, 11623 (1994)

    Deriv               =              1
    GGA                 =           TRUE
    Meta                =          FALSE

    Exchange Hybrid     =           TRUE
    MP2 Hybrid          =          FALSE

   => Exchange Functionals <=

    0.0800   Slater exchange
    0.7200         Becke 88

   => Exact (HF) Exchange <=

    0.2000               HF 

   => Correlation Functionals <=

    0.1900   Vosko, Wilk & Nusair (VWN5_RPA)
    0.8100   Lee, Yang & Parr

   => Molecular Quadrature <=

    Radial Scheme          =       TREUTLER
    Pruning Scheme         =           FLAT
    Nuclear Scheme         =       TREUTLER

    BS radius alpha        =              1
    Pruning alpha          =              1
    Radial Points          =             75
    Spherical Points       =            302
    Total Points           =          45300
    Total Blocks           =            421
    Max Points             =            256
    Max Functions          =             92


  -Total Gradient:
     Atom            X                  Y                   Z
    ------   -----------------  -----------------  -----------------
       1        0.000000000000     0.000000000000     0.044188711081
       2        0.000000000000    -0.000000000000    -0.044192062836


*** tstop() called on atlantis at Tue Apr 19 00:35:58 2022
Module time:
	user time   =       0.55 seconds =       0.01 minutes
	system time =       0.00 seconds =       0.00 minutes
	total time  =          0 seconds =       0.00 minutes
Total time:
	user time   =       7.96 seconds =       0.13 minutes
	system time =       0.08 seconds =       0.00 minutes
	total time  =          8 seconds =       0.13 minutes

  //>>>>>>>>>>>>>>>>>>>>>>>>>>>>>>>>>>>//
  //    Loading displacement 3 of 5    //
  //<<<<<<<<<<<<<<<<<<<<<<<<<<<<<<<<<<<//
gradient() will perform analytic gradient computation.

*** tstart() called on atlantis
*** at Tue Apr 19 00:35:58 2022

   => Loading Basis Set <=

    Name: AUG-CC-PVTZ
    Role: ORBITAL
    Keyword: BASIS
    atoms 1 entry O          line   327 file /home/akrom/software/anaconda3/envs/ffpenv/share/psi4/basis/aug-cc-pvtz.gbs 
    atoms 2 entry C          line   235 file /home/akrom/software/anaconda3/envs/ffpenv/share/psi4/basis/aug-cc-pvtz.gbs 


         ---------------------------------------------------------
                                   SCF
               by Justin Turney, Rob Parrish, Andy Simmonett
                          and Daniel G. A. Smith
                              RKS Reference
                        1 Threads,    500 MiB Core
         ---------------------------------------------------------

  ==> Geometry <==

    Molecular point group: c2v
    Full point group: C_inf_v

    Geometry (in Angstrom), charge = 0, multiplicity = 1:

       Center              X                  Y                   Z               Mass       
    ------------   -----------------  -----------------  -----------------  -----------------
         O            0.000000000000     0.000000000000     0.491956699505    15.994914619570
         C            0.000000000000     0.000000000000    -0.655733783759    12.000000000000

  Running in c2v symmetry.

  Rotational constants: A = ************  B =      1.86665  C =      1.86665 [cm^-1]
  Rotational constants: A = ************  B =  55960.76123  C =  55960.76123 [MHz]
  Nuclear repulsion =   22.131843456554755

  Charge       = 0
  Multiplicity = 1
  Electrons    = 14
  Nalpha       = 7
  Nbeta        = 7

  ==> Algorithm <==

  SCF Algorithm Type is DF.
  DIIS enabled.
  MOM disabled.
  Fractional occupation disabled.
  Guess Type is SAD.
  Energy threshold   = 1.00e-08
  Density threshold  = 1.00e-08
  Integral threshold = 0.00e+00

  ==> Primary Basis <==

  Basis Set: AUG-CC-PVTZ
    Blend: AUG-CC-PVTZ
    Number of shells: 28
    Number of basis function: 92
    Number of Cartesian functions: 110
    Spherical Harmonics?: true
    Max angular momentum: 3

  ==> DFT Potential <==

   => Composite Functional: B3LYP <= 

    B3LYP Hyb-GGA Exchange-Correlation Functional

    P. J. Stephens, F. J. Devlin, C. F. Chabalowski, and M. J. Frisch, J. Phys. Chem. 98, 11623 (1994)

    Deriv               =              1
    GGA                 =           TRUE
    Meta                =          FALSE

    Exchange Hybrid     =           TRUE
    MP2 Hybrid          =          FALSE

   => Exchange Functionals <=

    0.0800   Slater exchange
    0.7200         Becke 88

   => Exact (HF) Exchange <=

    0.2000               HF 

   => Correlation Functionals <=

    0.1900   Vosko, Wilk & Nusair (VWN5_RPA)
    0.8100   Lee, Yang & Parr

   => Molecular Quadrature <=

    Radial Scheme          =       TREUTLER
    Pruning Scheme         =           FLAT
    Nuclear Scheme         =       TREUTLER

    BS radius alpha        =              1
    Pruning alpha          =              1
    Radial Points          =             75
    Spherical Points       =            302
    Total Points           =          45300
    Total Blocks           =            421
    Max Points             =            256
    Max Functions          =             92

   => Loading Basis Set <=

    Name: (AUG-CC-PVTZ AUX)
    Role: JKFIT
    Keyword: DF_BASIS_SCF
    atoms 1 entry O          line   286 file /home/akrom/software/anaconda3/envs/ffpenv/share/psi4/basis/aug-cc-pvtz-jkfit.gbs 
    atoms 2 entry C          line   162 file /home/akrom/software/anaconda3/envs/ffpenv/share/psi4/basis/aug-cc-pvtz-jkfit.gbs 

  ==> Pre-Iterations <==

   -------------------------------------------------------
    Irrep   Nso     Nmo     Nalpha   Nbeta   Ndocc  Nsocc
   -------------------------------------------------------
     A1        38      38       0       0       0       0
     A2        10      10       0       0       0       0
     B1        22      22       0       0       0       0
     B2        22      22       0       0       0       0
   -------------------------------------------------------
    Total      92      92       7       7       7       0
   -------------------------------------------------------

  ==> Integral Setup <==

  DFHelper Memory: AOs need 0.015 GiB; user supplied 0.253 GiB. Using in-core AOs.

  ==> MemDFJK: Density-Fitted J/K Matrices <==

    J tasked:                   Yes
    K tasked:                   Yes
    wK tasked:                   No
    OpenMP threads:               1
    Memory [MiB]:               258
    Algorithm:                 Core
    Schwarz Cutoff:           1E-12
    Mask sparsity (%):       0.0000
    Fitting Condition:        1E-10

   => Auxiliary Basis Set <=

  Basis Set: (AUG-CC-PVTZ AUX)
    Blend: AUG-CC-PVTZ-JKFIT
    Number of shells: 60
    Number of basis function: 208
    Number of Cartesian functions: 262
    Spherical Harmonics?: true
    Max angular momentum: 4

  Cached 100.0% of DFT collocation blocks in 0.114 [GiB].

  Minimum eigenvalue in the overlap matrix is 4.8648567103E-04.
  Using Symmetric Orthogonalization.

  SCF Guess: Superposition of Atomic Densities via on-the-fly atomic UHF.

  ==> Iterations <==

                           Total Energy        Delta E     RMS |[F,P]|

   @DF-RKS iter SAD:  -112.79645346950437   -1.12796e+02   0.00000e+00 
   @DF-RKS iter   1:  -113.28780274804808   -4.91349e-01   9.17257e-03 DIIS
   @DF-RKS iter   2:  -113.12621388540482    1.61589e-01   1.61722e-02 DIIS
   @DF-RKS iter   3:  -113.34166946920061   -2.15456e-01   3.86600e-03 DIIS
   @DF-RKS iter   4:  -113.35775369733632   -1.60842e-02   1.92357e-04 DIIS
   @DF-RKS iter   5:  -113.35779018427405   -3.64869e-05   5.49508e-05 DIIS
   @DF-RKS iter   6:  -113.35779319108678   -3.00681e-06   6.38352e-06 DIIS
   @DF-RKS iter   7:  -113.35779322825979   -3.71730e-08   1.87222e-07 DIIS
   @DF-RKS iter   8:  -113.35779322828760   -2.78106e-11   3.91436e-08 DIIS
   @DF-RKS iter   9:  -113.35779322828905   -1.44951e-12   2.54515e-09 DIIS
  Energy and wave function converged.


  ==> Post-Iterations <==

    Orbital Energies [Eh]
    ---------------------

    Doubly Occupied:                                                      

       1A1   -19.244199     2A1   -10.305555     3A1    -1.163157  
       4A1    -0.584898     1B1    -0.478543     1B2    -0.478543  
       5A1    -0.388749  

    Virtual:                                                              

       2B1    -0.048319     2B2    -0.048319     6A1     0.021189  
       7A1     0.045007     3B1     0.052794     3B2     0.052794  
       8A1     0.124464     4B1     0.137700     4B2     0.137700  
       9A1     0.189463    10A1     0.206992     1A2     0.206992  
      11A1     0.296097     5B2     0.313718     5B1     0.313718  
       6B2     0.381990     6B1     0.381990    12A1     0.397276  
      13A1     0.532554    14A1     0.565175    15A1     0.577526  
       2A2     0.577526     7B1     0.665168     7B2     0.665168  
      16A1     0.813263    17A1     0.862232     3A2     0.862232  
       8B2     0.891482     8B1     0.891482     9B2     0.917825  
       9B1     0.917825    10B1     1.047180    10B2     1.047180  
      18A1     1.075550    19A1     1.110351     4A2     1.110352  
      20A1     1.177482    21A1     1.271767    11B2     1.276885  
      11B1     1.276885     5A2     1.892806    22A1     1.892806  
      12B2     1.894440    12B1     1.894440    13B1     2.010501  
      13B2     2.010501    23A1     2.043332    24A1     2.158546  
      14B1     2.257694    14B2     2.257694     6A2     2.318100  
      25A1     2.318101    26A1     2.379546    15B1     2.673736  
      15B2     2.673736    27A1     3.062277     7A2     3.062278  
      28A1     3.127214    16B2     3.131778    16B1     3.131778  
      17B2     3.287750    17B1     3.287750    29A1     3.410030  
       8A2     3.410030    18B1     3.547442    18B2     3.547442  
      30A1     3.611728    31A1     3.960966    19B1     4.725489  
      19B2     4.725489    32A1     4.767875    20B1     6.006614  
      20B2     6.006614     9A2     6.273026    33A1     6.273028  
      34A1     6.491796    10A2     6.491809    21B2     6.590002  
      21B1     6.590002    35A1     6.666078    22B1     6.899481  
      22B2     6.899481    36A1     7.034083    37A1    11.722037  
      38A1    14.031722  

    Final Occupation by Irrep:
             A1    A2    B1    B2 
    DOCC [     5,    0,    1,    1 ]

  @DF-RKS Final Energy:  -113.35779322828905

   => Energetics <=

    Nuclear Repulsion Energy =             22.1318434565547548
    One-Electron Energy =                -197.6260088565179558
    Two-Electron Energy =                  73.3498226642504250
    DFT Exchange-Correlation Energy =     -11.2134504925762730
    Empirical Dispersion Energy =           0.0000000000000000
    VV10 Nonlocal Energy =                  0.0000000000000000
    Total Energy =                       -113.3577932282890544

Computation Completed


Properties will be evaluated at   0.000000,   0.000000,   0.000000 [a0]

Properties computed using the SCF density matrix

  Nuclear Dipole Moment: [e a0]
     X:     0.0000      Y:     0.0000      Z:     0.0024

  Electronic Dipole Moment: [e a0]
     X:     0.0000      Y:     0.0000      Z:     0.0037

  Dipole Moment: [e a0]
     X:     0.0000      Y:     0.0000      Z:     0.0061     Total:     0.0061

  Dipole Moment: [D]
     X:     0.0000      Y:     0.0000      Z:     0.0154     Total:     0.0154


*** tstop() called on atlantis at Tue Apr 19 00:36:00 2022
Module time:
	user time   =       1.54 seconds =       0.03 minutes
	system time =       0.02 seconds =       0.00 minutes
	total time  =          2 seconds =       0.03 minutes
Total time:
	user time   =       9.51 seconds =       0.16 minutes
	system time =       0.10 seconds =       0.00 minutes
	total time  =         10 seconds =       0.17 minutes

*** tstart() called on atlantis
*** at Tue Apr 19 00:36:00 2022


         ------------------------------------------------------------
                                   SCF GRAD                          
                          Rob Parrish, Justin Turney,                
                       Andy Simmonett, and Alex Sokolov              
         ------------------------------------------------------------

  ==> Geometry <==

    Molecular point group: c2v
    Full point group: C_inf_v

    Geometry (in Angstrom), charge = 0, multiplicity = 1:

       Center              X                  Y                   Z               Mass       
    ------------   -----------------  -----------------  -----------------  -----------------
         O            0.000000000000     0.000000000000     0.491956699505    15.994914619570
         C            0.000000000000     0.000000000000    -0.655733783759    12.000000000000

  Nuclear repulsion =   22.131843456554755

  ==> Basis Set <==

  Basis Set: AUG-CC-PVTZ
    Blend: AUG-CC-PVTZ
    Number of shells: 28
    Number of basis function: 92
    Number of Cartesian functions: 110
    Spherical Harmonics?: true
    Max angular momentum: 3

  ==> DFJKGrad: Density-Fitted SCF Gradients <==

    Gradient:                    1
    J tasked:                  Yes
    K tasked:                  Yes
    wK tasked:                  No
    OpenMP threads:              1
    Integrals threads:           1
    Memory [MiB]:              375
    Schwarz Cutoff:          0E+00
    Fitting Condition:       1E-10

   => Auxiliary Basis Set <=

  Basis Set: (AUG-CC-PVTZ AUX)
    Blend: AUG-CC-PVTZ-JKFIT
    Number of shells: 60
    Number of basis function: 208
    Number of Cartesian functions: 262
    Spherical Harmonics?: true
    Max angular momentum: 4

  ==> DFT Potential <==

   => Composite Functional: B3LYP <= 

    B3LYP Hyb-GGA Exchange-Correlation Functional

    P. J. Stephens, F. J. Devlin, C. F. Chabalowski, and M. J. Frisch, J. Phys. Chem. 98, 11623 (1994)

    Deriv               =              1
    GGA                 =           TRUE
    Meta                =          FALSE

    Exchange Hybrid     =           TRUE
    MP2 Hybrid          =          FALSE

   => Exchange Functionals <=

    0.0800   Slater exchange
    0.7200         Becke 88

   => Exact (HF) Exchange <=

    0.2000               HF 

   => Correlation Functionals <=

    0.1900   Vosko, Wilk & Nusair (VWN5_RPA)
    0.8100   Lee, Yang & Parr

   => Molecular Quadrature <=

    Radial Scheme          =       TREUTLER
    Pruning Scheme         =           FLAT
    Nuclear Scheme         =       TREUTLER

    BS radius alpha        =              1
    Pruning alpha          =              1
    Radial Points          =             75
    Spherical Points       =            302
    Total Points           =          45300
    Total Blocks           =            421
    Max Points             =            256
    Max Functions          =             92


  -Total Gradient:
     Atom            X                  Y                   Z
    ------   -----------------  -----------------  -----------------
       1        0.000000000000    -0.000000000000     0.048352432531
       2        0.000000000000    -0.000000000000    -0.048355745667


*** tstop() called on atlantis at Tue Apr 19 00:36:00 2022
Module time:
	user time   =       0.56 seconds =       0.01 minutes
	system time =       0.00 seconds =       0.00 minutes
	total time  =          0 seconds =       0.00 minutes
Total time:
	user time   =      10.07 seconds =       0.17 minutes
	system time =       0.10 seconds =       0.00 minutes
	total time  =         10 seconds =       0.17 minutes

  //>>>>>>>>>>>>>>>>>>>>>>>>>>>>>>>>>>>//
  //    Loading displacement 4 of 5    //
  //<<<<<<<<<<<<<<<<<<<<<<<<<<<<<<<<<<<//
gradient() will perform analytic gradient computation.

*** tstart() called on atlantis
*** at Tue Apr 19 00:36:00 2022

   => Loading Basis Set <=

    Name: AUG-CC-PVTZ
    Role: ORBITAL
    Keyword: BASIS
    atoms 1 entry O          line   327 file /home/akrom/software/anaconda3/envs/ffpenv/share/psi4/basis/aug-cc-pvtz.gbs 
    atoms 2 entry C          line   235 file /home/akrom/software/anaconda3/envs/ffpenv/share/psi4/basis/aug-cc-pvtz.gbs 


         ---------------------------------------------------------
                                   SCF
               by Justin Turney, Rob Parrish, Andy Simmonett
                          and Daniel G. A. Smith
                              RKS Reference
                        1 Threads,    500 MiB Core
         ---------------------------------------------------------

  ==> Geometry <==

    Molecular point group: cs
    Full point group: C_inf_v

    Geometry (in Angstrom), charge = 0, multiplicity = 1:

       Center              X                  Y                   Z               Mass       
    ------------   -----------------  -----------------  -----------------  -----------------
         O           -0.000433142923     0.000000000000     0.491523556581    15.994914619570
         C            0.000577340340     0.000000000000    -0.655156443419    12.000000000000

  Running in cs symmetry.

  Rotational constants: A = ************  B =      1.86994  C =      1.86994 [cm^-1]
  Rotational constants: A = ************  B =  56059.38921  C =  56059.38921 [MHz]
  Nuclear repulsion =   22.151337992888561

  Charge       = 0
  Multiplicity = 1
  Electrons    = 14
  Nalpha       = 7
  Nbeta        = 7

  ==> Algorithm <==

  SCF Algorithm Type is DF.
  DIIS enabled.
  MOM disabled.
  Fractional occupation disabled.
  Guess Type is SAD.
  Energy threshold   = 1.00e-08
  Density threshold  = 1.00e-08
  Integral threshold = 0.00e+00

  ==> Primary Basis <==

  Basis Set: AUG-CC-PVTZ
    Blend: AUG-CC-PVTZ
    Number of shells: 28
    Number of basis function: 92
    Number of Cartesian functions: 110
    Spherical Harmonics?: true
    Max angular momentum: 3

  ==> DFT Potential <==

   => Composite Functional: B3LYP <= 

    B3LYP Hyb-GGA Exchange-Correlation Functional

    P. J. Stephens, F. J. Devlin, C. F. Chabalowski, and M. J. Frisch, J. Phys. Chem. 98, 11623 (1994)

    Deriv               =              1
    GGA                 =           TRUE
    Meta                =          FALSE

    Exchange Hybrid     =           TRUE
    MP2 Hybrid          =          FALSE

   => Exchange Functionals <=

    0.0800   Slater exchange
    0.7200         Becke 88

   => Exact (HF) Exchange <=

    0.2000               HF 

   => Correlation Functionals <=

    0.1900   Vosko, Wilk & Nusair (VWN5_RPA)
    0.8100   Lee, Yang & Parr

   => Molecular Quadrature <=

    Radial Scheme          =       TREUTLER
    Pruning Scheme         =           FLAT
    Nuclear Scheme         =       TREUTLER

    BS radius alpha        =              1
    Pruning alpha          =              1
    Radial Points          =             75
    Spherical Points       =            302
    Total Points           =          45300
    Total Blocks           =            411
    Max Points             =            253
    Max Functions          =             92

   => Loading Basis Set <=

    Name: (AUG-CC-PVTZ AUX)
    Role: JKFIT
    Keyword: DF_BASIS_SCF
    atoms 1 entry O          line   286 file /home/akrom/software/anaconda3/envs/ffpenv/share/psi4/basis/aug-cc-pvtz-jkfit.gbs 
    atoms 2 entry C          line   162 file /home/akrom/software/anaconda3/envs/ffpenv/share/psi4/basis/aug-cc-pvtz-jkfit.gbs 

  ==> Pre-Iterations <==

   -------------------------------------------------------
    Irrep   Nso     Nmo     Nalpha   Nbeta   Ndocc  Nsocc
   -------------------------------------------------------
     A'        60      60       0       0       0       0
     A"        32      32       0       0       0       0
   -------------------------------------------------------
    Total      92      92       7       7       7       0
   -------------------------------------------------------

  ==> Integral Setup <==

  DFHelper Memory: AOs need 0.015 GiB; user supplied 0.253 GiB. Using in-core AOs.

  ==> MemDFJK: Density-Fitted J/K Matrices <==

    J tasked:                   Yes
    K tasked:                   Yes
    wK tasked:                   No
    OpenMP threads:               1
    Memory [MiB]:               258
    Algorithm:                 Core
    Schwarz Cutoff:           1E-12
    Mask sparsity (%):       0.0000
    Fitting Condition:        1E-10

   => Auxiliary Basis Set <=

  Basis Set: (AUG-CC-PVTZ AUX)
    Blend: AUG-CC-PVTZ-JKFIT
    Number of shells: 60
    Number of basis function: 208
    Number of Cartesian functions: 262
    Spherical Harmonics?: true
    Max angular momentum: 4

  Cached 100.0% of DFT collocation blocks in 0.114 [GiB].

  Minimum eigenvalue in the overlap matrix is 4.8582142044E-04.
  Using Symmetric Orthogonalization.

  SCF Guess: Superposition of Atomic Densities via on-the-fly atomic UHF.

  ==> Iterations <==

                           Total Energy        Delta E     RMS |[F,P]|

   @DF-RKS iter SAD:  -112.79789420590592   -1.12798e+02   0.00000e+00 
   @DF-RKS iter   1:  -113.28782354102100   -4.89929e-01   6.76434e-03 DIIS
   @DF-RKS iter   2:  -113.12780505517799    1.60018e-01   1.18849e-02 DIIS
   @DF-RKS iter   3:  -113.34175553767663   -2.13950e-01   2.85155e-03 DIIS
   @DF-RKS iter   4:  -113.35784416954235   -1.60886e-02   1.41482e-04 DIIS
   @DF-RKS iter   5:  -113.35788053875969   -3.63692e-05   4.03252e-05 DIIS
   @DF-RKS iter   6:  -113.35788351888721   -2.98013e-06   4.66637e-06 DIIS
   @DF-RKS iter   7:  -113.35788355541213   -3.65249e-08   1.36937e-07 DIIS
   @DF-RKS iter   8:  -113.35788355543914   -2.70148e-11   2.85461e-08 DIIS
   @DF-RKS iter   9:  -113.35788355544076   -1.62004e-12   1.84316e-09 DIIS
  Energy and wave function converged.


  ==> Post-Iterations <==

    Orbital Energies [Eh]
    ---------------------

    Doubly Occupied:                                                      

       1Ap   -19.244153     2Ap   -10.305197     3Ap    -1.163713  
       4Ap    -0.584902     5Ap    -0.478880     1App   -0.478880  
       6Ap    -0.388660  

    Virtual:                                                              

       7Ap    -0.047969     2App   -0.047969     8Ap     0.021190  
       9Ap     0.045035    10Ap     0.052815     3App    0.052815  
      11Ap     0.124482     4App    0.137696    12Ap     0.137696  
      13Ap     0.189485    14Ap     0.206999     5App    0.206999  
      15Ap     0.296183     6App    0.313810    16Ap     0.313810  
       7App    0.381967    17Ap     0.381967    18Ap     0.397345  
      19Ap     0.532622    20Ap     0.566154    21Ap     0.577537  
       8App    0.577537     9App    0.665220    22Ap     0.665220  
      23Ap     0.813427    24Ap     0.862324    10App    0.862324  
      11App    0.891732    25Ap     0.891732    12App    0.917847  
      26Ap     0.917847    13App    1.047136    27Ap     1.047136  
      28Ap     1.075853    29Ap     1.110518    14App    1.110518  
      30Ap     1.177745    31Ap     1.272060    15App    1.277144  
      32Ap     1.277144    16App    1.892825    33Ap     1.892825  
      17App    1.894606    34Ap     1.894606    18App    2.010794  
      35Ap     2.010794    36Ap     2.043862    37Ap     2.159164  
      38Ap     2.258707    19App    2.258707    20App    2.318571  
      39Ap     2.318572    40Ap     2.379464    21App    2.672906  
      41Ap     2.672906    42Ap     3.062465    22App    3.062466  
      43Ap     3.128357    44Ap     3.131863    23App    3.131863  
      45Ap     3.288215    24App    3.288215    46Ap     3.410967  
      25App    3.410967    26App    3.548218    47Ap     3.548218  
      48Ap     3.612969    49Ap     3.961650    50Ap     4.728143  
      27App    4.728143    51Ap     4.770950    52Ap     6.006616  
      28App    6.006616    29App    6.273569    53Ap     6.273570  
      54Ap     6.491885    30App    6.491898    31App    6.591737  
      55Ap     6.591737    56Ap     6.668050    57Ap     6.899310  
      32App    6.899310    58Ap     7.035358    59Ap    11.729872  
      60Ap    14.055079  

    Final Occupation by Irrep:
             Ap   App 
    DOCC [     6,    1 ]

  @DF-RKS Final Energy:  -113.35788355544076

   => Energetics <=

    Nuclear Repulsion Energy =             22.1513379928885605
    One-Electron Energy =                -197.6631383899073739
    Two-Electron Energy =                  73.3681868509121387
    DFT Exchange-Correlation Energy =     -11.2142700093340899
    Empirical Dispersion Energy =           0.0000000000000000
    VV10 Nonlocal Energy =                  0.0000000000000000
    Total Energy =                       -113.3578835554407647

Computation Completed


Properties will be evaluated at   0.000000,   0.000000,   0.000000 [a0]

Properties computed using the SCF density matrix

  Nuclear Dipole Moment: [e a0]
     X:    -0.0000      Y:     0.0000      Z:     0.0024

  Electronic Dipole Moment: [e a0]
     X:    -0.0000      Y:     0.0000      Z:     0.0051

  Dipole Moment: [e a0]
     X:    -0.0000      Y:     0.0000      Z:     0.0075     Total:     0.0075

  Dipole Moment: [D]
     X:    -0.0000      Y:     0.0000      Z:     0.0191     Total:     0.0191


*** tstop() called on atlantis at Tue Apr 19 00:36:02 2022
Module time:
	user time   =       1.54 seconds =       0.03 minutes
	system time =       0.00 seconds =       0.00 minutes
	total time  =          2 seconds =       0.03 minutes
Total time:
	user time   =      11.61 seconds =       0.19 minutes
	system time =       0.10 seconds =       0.00 minutes
	total time  =         12 seconds =       0.20 minutes

*** tstart() called on atlantis
*** at Tue Apr 19 00:36:02 2022


         ------------------------------------------------------------
                                   SCF GRAD                          
                          Rob Parrish, Justin Turney,                
                       Andy Simmonett, and Alex Sokolov              
         ------------------------------------------------------------

  ==> Geometry <==

    Molecular point group: cs
    Full point group: C_inf_v

    Geometry (in Angstrom), charge = 0, multiplicity = 1:

       Center              X                  Y                   Z               Mass       
    ------------   -----------------  -----------------  -----------------  -----------------
         O           -0.000433142923     0.000000000000     0.491523556581    15.994914619570
         C            0.000577340340     0.000000000000    -0.655156443419    12.000000000000

  Nuclear repulsion =   22.151337992888561

  ==> Basis Set <==

  Basis Set: AUG-CC-PVTZ
    Blend: AUG-CC-PVTZ
    Number of shells: 28
    Number of basis function: 92
    Number of Cartesian functions: 110
    Spherical Harmonics?: true
    Max angular momentum: 3

  ==> DFJKGrad: Density-Fitted SCF Gradients <==

    Gradient:                    1
    J tasked:                  Yes
    K tasked:                  Yes
    wK tasked:                  No
    OpenMP threads:              1
    Integrals threads:           1
    Memory [MiB]:              375
    Schwarz Cutoff:          0E+00
    Fitting Condition:       1E-10

   => Auxiliary Basis Set <=

  Basis Set: (AUG-CC-PVTZ AUX)
    Blend: AUG-CC-PVTZ-JKFIT
    Number of shells: 60
    Number of basis function: 208
    Number of Cartesian functions: 262
[...]
         C            0.000000000000     0.000577340340    -0.655156443419    12.000000000000

  Running in cs symmetry.

  Rotational constants: A = ************  B =      1.86994  C =      1.86994 [cm^-1]
  Rotational constants: A = ************  B =  56059.38921  C =  56059.38921 [MHz]
  Nuclear repulsion =   22.151337992888561

  Charge       = 0
  Multiplicity = 1
  Electrons    = 14
  Nalpha       = 7
  Nbeta        = 7

  ==> Algorithm <==

  SCF Algorithm Type is DF.
  DIIS enabled.
  MOM disabled.
  Fractional occupation disabled.
  Guess Type is SAD.
  Energy threshold   = 1.00e-08
  Density threshold  = 1.00e-08
  Integral threshold = 0.00e+00

  ==> Primary Basis <==

  Basis Set: AUG-CC-PVTZ
    Blend: AUG-CC-PVTZ
    Number of shells: 28
    Number of basis function: 92
    Number of Cartesian functions: 110
    Spherical Harmonics?: true
    Max angular momentum: 3

  ==> DFT Potential <==

   => Composite Functional: B3LYP <= 

    B3LYP Hyb-GGA Exchange-Correlation Functional

    P. J. Stephens, F. J. Devlin, C. F. Chabalowski, and M. J. Frisch, J. Phys. Chem. 98, 11623 (1994)

    Deriv               =              1
    GGA                 =           TRUE
    Meta                =          FALSE

    Exchange Hybrid     =           TRUE
    MP2 Hybrid          =          FALSE

   => Exchange Functionals <=

    0.0800   Slater exchange
    0.7200         Becke 88

   => Exact (HF) Exchange <=

    0.2000               HF 

   => Correlation Functionals <=

    0.1900   Vosko, Wilk & Nusair (VWN5_RPA)
    0.8100   Lee, Yang & Parr

   => Molecular Quadrature <=

    Radial Scheme          =       TREUTLER
    Pruning Scheme         =           FLAT
    Nuclear Scheme         =       TREUTLER

    BS radius alpha        =              1
    Pruning alpha          =              1
    Radial Points          =             75
    Spherical Points       =            302
    Total Points           =          45300
    Total Blocks           =            408
    Max Points             =            253
    Max Functions          =             92

   => Loading Basis Set <=

    Name: (AUG-CC-PVTZ AUX)
    Role: JKFIT
    Keyword: DF_BASIS_SCF
    atoms 1 entry O          line   286 file /home/akrom/software/anaconda3/envs/ffpenv/share/psi4/basis/aug-cc-pvtz-jkfit.gbs 
    atoms 2 entry C          line   162 file /home/akrom/software/anaconda3/envs/ffpenv/share/psi4/basis/aug-cc-pvtz-jkfit.gbs 

  ==> Pre-Iterations <==

   -------------------------------------------------------
    Irrep   Nso     Nmo     Nalpha   Nbeta   Ndocc  Nsocc
   -------------------------------------------------------
     A'        60      60       0       0       0       0
     A"        32      32       0       0       0       0
   -------------------------------------------------------
    Total      92      92       7       7       7       0
   -------------------------------------------------------

  ==> Integral Setup <==

  DFHelper Memory: AOs need 0.015 GiB; user supplied 0.253 GiB. Using in-core AOs.

  ==> MemDFJK: Density-Fitted J/K Matrices <==

    J tasked:                   Yes
    K tasked:                   Yes
    wK tasked:                   No
    OpenMP threads:               1
    Memory [MiB]:               258
    Algorithm:                 Core
    Schwarz Cutoff:           1E-12
    Mask sparsity (%):       0.0000
    Fitting Condition:        1E-10

   => Auxiliary Basis Set <=

  Basis Set: (AUG-CC-PVTZ AUX)
    Blend: AUG-CC-PVTZ-JKFIT
    Number of shells: 60
    Number of basis function: 208
    Number of Cartesian functions: 262
    Spherical Harmonics?: true
    Max angular momentum: 4

  Cached 100.0% of DFT collocation blocks in 0.114 [GiB].

  Minimum eigenvalue in the overlap matrix is 4.8582142044E-04.
  Using Symmetric Orthogonalization.

  SCF Guess: Superposition of Atomic Densities via on-the-fly atomic UHF.

  ==> Iterations <==

                           Total Energy        Delta E     RMS |[F,P]|

   @DF-RKS iter SAD:  -112.79789420589502   -1.12798e+02   0.00000e+00 
   @DF-RKS iter   1:  -113.28782354100996   -4.89929e-01   6.76434e-03 DIIS
   @DF-RKS iter   2:  -113.12780505516780    1.60018e-01   1.18849e-02 DIIS
   @DF-RKS iter   3:  -113.34175553766534   -2.13950e-01   2.85155e-03 DIIS
   @DF-RKS iter   4:  -113.35784416953105   -1.60886e-02   1.41482e-04 DIIS
   @DF-RKS iter   5:  -113.35788053874839   -3.63692e-05   4.03252e-05 DIIS
   @DF-RKS iter   6:  -113.35788351887606   -2.98013e-06   4.66637e-06 DIIS
   @DF-RKS iter   7:  -113.35788355540078   -3.65247e-08   1.36937e-07 DIIS
   @DF-RKS iter   8:  -113.35788355542812   -2.73417e-11   2.85461e-08 DIIS
   @DF-RKS iter   9:  -113.35788355542932   -1.20792e-12   1.84316e-09 DIIS
  Energy and wave function converged.


  ==> Post-Iterations <==

    Orbital Energies [Eh]
    ---------------------

    Doubly Occupied:                                                      

       1Ap   -19.244153     2Ap   -10.305197     3Ap    -1.163713  
       4Ap    -0.584902     1App   -0.478880     5Ap    -0.478880  
       6Ap    -0.388660  

    Virtual:                                                              

       7Ap    -0.047969     2App   -0.047969     8Ap     0.021190  
       9Ap     0.045035    10Ap     0.052815     3App    0.052815  
      11Ap     0.124482     4App    0.137696    12Ap     0.137696  
      13Ap     0.189485    14Ap     0.206999     5App    0.206999  
      15Ap     0.296183     6App    0.313810    16Ap     0.313810  
       7App    0.381967    17Ap     0.381967    18Ap     0.397345  
      19Ap     0.532622    20Ap     0.566154    21Ap     0.577537  
       8App    0.577537     9App    0.665220    22Ap     0.665220  
      23Ap     0.813427    24Ap     0.862324    10App    0.862324  
      11App    0.891732    25Ap     0.891732    12App    0.917847  
      26Ap     0.917847    27Ap     1.047136    13App    1.047136  
      28Ap     1.075853    29Ap     1.110518    14App    1.110518  
      30Ap     1.177745    31Ap     1.272060    32Ap     1.277144  
      15App    1.277144    16App    1.892825    33Ap     1.892825  
      17App    1.894606    34Ap     1.894606    18App    2.010794  
      35Ap     2.010794    36Ap     2.043862    37Ap     2.159164  
      19App    2.258707    38Ap     2.258707    20App    2.318571  
      39Ap     2.318572    40Ap     2.379464    41Ap     2.672906  
      21App    2.672906    42Ap     3.062465    22App    3.062466  
      43Ap     3.128357    23App    3.131863    44Ap     3.131863  
      45Ap     3.288215    24App    3.288215    46Ap     3.410967  
      25App    3.410967    26App    3.548218    47Ap     3.548218  
      48Ap     3.612969    49Ap     3.961650    50Ap     4.728143  
      27App    4.728143    51Ap     4.770950    52Ap     6.006616  
      28App    6.006616    29App    6.273569    53Ap     6.273570  
      54Ap     6.491885    30App    6.491898    31App    6.591737  
      55Ap     6.591737    56Ap     6.668050    57Ap     6.899310  
      32App    6.899310    58Ap     7.035358    59Ap    11.729872  
      60Ap    14.055079  

    Final Occupation by Irrep:
             Ap   App 
    DOCC [     6,    1 ]

  @DF-RKS Final Energy:  -113.35788355542932

   => Energetics <=

    Nuclear Repulsion Energy =             22.1513379928885605
    One-Electron Energy =                -197.6631383899044749
    Two-Electron Energy =                  73.3681868509199688
    DFT Exchange-Correlation Energy =     -11.2142700093333776
    Empirical Dispersion Energy =           0.0000000000000000
    VV10 Nonlocal Energy =                  0.0000000000000000
    Total Energy =                       -113.3578835554293249

Computation Completed


Properties will be evaluated at   0.000000,   0.000000,   0.000000 [a0]

Properties computed using the SCF density matrix

  Nuclear Dipole Moment: [e a0]
     X:     0.0000      Y:    -0.0000      Z:     0.0024

  Electronic Dipole Moment: [e a0]
     X:     0.0000      Y:    -0.0000      Z:     0.0051

  Dipole Moment: [e a0]
     X:     0.0000      Y:    -0.0000      Z:     0.0075     Total:     0.0075

  Dipole Moment: [D]
     X:     0.0000      Y:    -0.0000      Z:     0.0191     Total:     0.0191


*** tstop() called on atlantis at Tue Apr 19 00:36:04 2022
Module time:
	user time   =       1.52 seconds =       0.03 minutes
	system time =       0.01 seconds =       0.00 minutes
	total time  =          1 seconds =       0.02 minutes
Total time:
	user time   =      13.68 seconds =       0.23 minutes
	system time =       0.11 seconds =       0.00 minutes
	total time  =         14 seconds =       0.23 minutes

*** tstart() called on atlantis
*** at Tue Apr 19 00:36:04 2022


         ------------------------------------------------------------
                                   SCF GRAD                          
                          Rob Parrish, Justin Turney,                
                       Andy Simmonett, and Alex Sokolov              
         ------------------------------------------------------------

  ==> Geometry <==

    Molecular point group: cs
    Full point group: C_inf_v

    Geometry (in Angstrom), charge = 0, multiplicity = 1:

       Center              X                  Y                   Z               Mass       
    ------------   -----------------  -----------------  -----------------  -----------------
         O            0.000000000000    -0.000433142923     0.491523556581    15.994914619570
         C            0.000000000000     0.000577340340    -0.655156443419    12.000000000000

  Nuclear repulsion =   22.151337992888561

  ==> Basis Set <==

  Basis Set: AUG-CC-PVTZ
    Blend: AUG-CC-PVTZ
    Number of shells: 28
    Number of basis function: 92
    Number of Cartesian functions: 110
    Spherical Harmonics?: true
    Max angular momentum: 3

  ==> DFJKGrad: Density-Fitted SCF Gradients <==

    Gradient:                    1
    J tasked:                  Yes
    K tasked:                  Yes
    wK tasked:                  No
    OpenMP threads:              1
    Integrals threads:           1
    Memory [MiB]:              375
    Schwarz Cutoff:          0E+00
    Fitting Condition:       1E-10

   => Auxiliary Basis Set <=

  Basis Set: (AUG-CC-PVTZ AUX)
    Blend: AUG-CC-PVTZ-JKFIT
    Number of shells: 60
    Number of basis function: 208
    Number of Cartesian functions: 262
    Spherical Harmonics?: true
    Max angular momentum: 4

  ==> DFT Potential <==

   => Composite Functional: B3LYP <= 

    B3LYP Hyb-GGA Exchange-Correlation Functional

    P. J. Stephens, F. J. Devlin, C. F. Chabalowski, and M. J. Frisch, J. Phys. Chem. 98, 11623 (1994)

    Deriv               =              1
    GGA                 =           TRUE
    Meta                =          FALSE

    Exchange Hybrid     =           TRUE
    MP2 Hybrid          =          FALSE

   => Exchange Functionals <=

    0.0800   Slater exchange
    0.7200         Becke 88

   => Exact (HF) Exchange <=

    0.2000               HF 

   => Correlation Functionals <=

    0.1900   Vosko, Wilk & Nusair (VWN5_RPA)
    0.8100   Lee, Yang & Parr

   => Molecular Quadrature <=

    Radial Scheme          =       TREUTLER
    Pruning Scheme         =           FLAT
    Nuclear Scheme         =       TREUTLER

    BS radius alpha        =              1
    Pruning alpha          =              1
    Radial Points          =             75
    Spherical Points       =            302
    Total Points           =          45300
    Total Blocks           =            408
    Max Points             =            253
    Max Functions          =             92


  -Total Gradient:
     Atom            X                  Y                   Z
    ------   -----------------  -----------------  -----------------
       1        0.000000000000    -0.000040782266     0.046279053672
       2        0.000000000000     0.000040785204    -0.046282386925


*** tstop() called on atlantis at Tue Apr 19 00:36:05 2022
Module time:
	user time   =       0.55 seconds =       0.01 minutes
	system time =       0.00 seconds =       0.00 minutes
	total time  =          1 seconds =       0.02 minutes
Total time:
	user time   =      14.23 seconds =       0.24 minutes
	system time =       0.11 seconds =       0.00 minutes
	total time  =         15 seconds =       0.25 minutes

         ----------------------------------------------------------
                                   FINDIF
                     R. A. King and Jonathon Misiewicz
         ---------------------------------------------------------

  Computing second-derivative from gradients using projected, 
  symmetry-adapted, cartesian coordinates.

  5 gradients passed in, including the reference geometry.
  Generating complete list of displacements from unique ones.

    Operation 2 takes plus displacements of irrep B1 to minus ones.
    Operation 2 takes plus displacements of irrep B2 to minus ones.

-------------------------------------------------------------


  ==> Harmonic Vibrational Analysis <==

  non-mass-weighted Hessian:       Symmetric? True   Hermitian? True   Lin Dep Dim?  3 (0)
  projection of translations (True) and rotations (False) removed 3 degrees of freedom (5)
  total projector:                 Symmetric? True   Hermitian? True   Lin Dep Dim?  3 (3)
  mass-weighted Hessian:           Symmetric? True   Hermitian? True   Lin Dep Dim?  3 (0)
  pre-proj  low-frequency mode:    0.0000  [cm^-1]
  pre-proj  low-frequency mode:    0.0000  [cm^-1]
  pre-proj  low-frequency mode:    0.0000  [cm^-1]
  pre-proj  low-frequency mode:  286.9081  [cm^-1]
  pre-proj  low-frequency mode:  286.9081  [cm^-1]
  pre-proj  all modes:['0.0000' '0.0000' '0.0000' '286.9081' '286.9081' '2049.8541']
  projected mass-weighted Hessian: Symmetric? True   Hermitian? True   Lin Dep Dim?  3 (3)
  post-proj low-frequency mode:    0.0000  [cm^-1] (TR)
  post-proj low-frequency mode:    0.0000  [cm^-1] (TR)
  post-proj low-frequency mode:    0.0000  [cm^-1] (TR)
  post-proj low-frequency mode:  286.9081  [cm^-1] (V)
  post-proj low-frequency mode:  286.9081  [cm^-1] (V)
  post-proj  all modes:['0.0000' '0.0000' '0.0000' '286.9081' '286.9081' '2049.8541']

  Note that "Vibration"s include 2 un-projected rotation-like modes.
  Vibration                       4                   5                   6           
  Freq [cm^-1]                 286.9081            286.9081           2049.8541       
  Irrep                           B1                  B2                  A1          
  Reduced mass [u]             13.4388             13.4388             13.4388        
  Force const [mDyne/A]         0.6518              0.6518             33.2702        
  Turning point v=0 [a0]        0.1767              0.1767              0.0661        
  RMS dev v=0 [a0 u^1/2]        0.4581              0.4581              0.1714        
  Char temp [K]                412.7969            412.7969           2949.2837       
  ----------------------------------------------------------------------------------
      1   O               -0.60  0.00 -0.00    0.00 -0.60 -0.00    0.00  0.00 -0.60   
      2   C                0.80 -0.00 -0.00    0.00  0.80 -0.00    0.00  0.00  0.80   

  ==> Thermochemistry Components <==

  Entropy, S
    Electronic S            0.000 [cal/(mol K)]        0.000 [J/(mol K)]       0.00000000 [mEh/K] (multiplicity = 1)
    Translational S        35.923 [cal/(mol K)]      150.302 [J/(mol K)]       0.05724692 [mEh/K] (mol. weight = 27.9949 [u], P = 101325.00 [Pa])
    Rotational S           11.343 [cal/(mol K)]       47.458 [J/(mol K)]       0.01807582 [mEh/K] (symmetry no. = 1)
    Vibrational S           2.985 [cal/(mol K)]       12.491 [J/(mol K)]       0.00475747 [mEh/K]
  Total S                  50.251 [cal/(mol K)]      210.251 [J/(mol K)]       0.08008022 [mEh/K]
  Correction S              0.000 [cal/(mol K)]        0.000 [J/(mol K)]       0.00000000 [mEh/K]

  Constant volume heat capacity, Cv
    Electronic Cv           0.000 [cal/(mol K)]        0.000 [J/(mol K)]       0.00000000 [mEh/K]
    Translational Cv        2.981 [cal/(mol K)]       12.472 [J/(mol K)]       0.00475022 [mEh/K]
    Rotational Cv           1.987 [cal/(mol K)]        8.314 [J/(mol K)]       0.00316681 [mEh/K]
    Vibrational Cv          3.406 [cal/(mol K)]       14.250 [J/(mol K)]       0.00542761 [mEh/K]
  Total Cv                  8.374 [cal/(mol K)]       35.036 [J/(mol K)]       0.01334463 [mEh/K]
  Correction Cv             0.000 [cal/(mol K)]        0.000 [J/(mol K)]       0.00000000 [mEh/K]

  Constant pressure heat capacity, Cp
    Electronic Cp           0.000 [cal/(mol K)]        0.000 [J/(mol K)]       0.00000000 [mEh/K]
    Translational Cp        4.968 [cal/(mol K)]       20.786 [J/(mol K)]       0.00791703 [mEh/K]
    Rotational Cp           1.987 [cal/(mol K)]        8.314 [J/(mol K)]       0.00316681 [mEh/K]
    Vibrational Cp          3.406 [cal/(mol K)]       14.250 [J/(mol K)]       0.00542761 [mEh/K]
  Total Cp                 10.361 [cal/(mol K)]       43.351 [J/(mol K)]       0.01651144 [mEh/K]
  Correction Cp             0.000 [cal/(mol K)]        0.000 [J/(mol K)]       0.00000000 [mEh/K]

  ==> Thermochemistry Energy Analysis <==

  Raw electronic energy, E0
  Total E0, Electronic energy at well bottom at 0 [K]                 -113.35788359 [Eh]

  Zero-point energy, ZPE_vib = Sum_i nu_i / 2
    Electronic ZPE          0.000 [kcal/mol]        0.000 [kJ/mol]       0.00000000 [Eh]
    Translational ZPE       0.000 [kcal/mol]        0.000 [kJ/mol]       0.00000000 [Eh]
    Rotational ZPE          0.000 [kcal/mol]        0.000 [kJ/mol]       0.00000000 [Eh]
    Vibrational ZPE         3.751 [kcal/mol]       15.693 [kJ/mol]       0.00597716 [Eh]        1311.835 [cm^-1]
  Correction ZPE            3.751 [kcal/mol]       15.693 [kJ/mol]       0.00597716 [Eh]        1311.835 [cm^-1]
  Total ZPE, Electronic energy at 0 [K]                               -113.35190643 [Eh]

  Thermal Energy, E (includes ZPE)
    Electronic E            0.000 [kcal/mol]        0.000 [kJ/mol]       0.00000000 [Eh]
    Translational E         0.889 [kcal/mol]        3.718 [kJ/mol]       0.00141628 [Eh]
    Rotational E            0.592 [kcal/mol]        2.479 [kJ/mol]       0.00094418 [Eh]
    Vibrational E           4.299 [kcal/mol]       17.988 [kJ/mol]       0.00685119 [Eh]
  Correction E              5.780 [kcal/mol]       24.185 [kJ/mol]       0.00921165 [Eh]
  Total E, Electronic energy at  298.15 [K]                           -113.34867194 [Eh]

  Enthalpy, H_trans = E_trans + k_B * T
    Electronic H            0.000 [kcal/mol]        0.000 [kJ/mol]       0.00000000 [Eh]
    Translational H         1.481 [kcal/mol]        6.197 [kJ/mol]       0.00236046 [Eh]
    Rotational H            0.592 [kcal/mol]        2.479 [kJ/mol]       0.00094418 [Eh]
    Vibrational H           4.299 [kcal/mol]       17.988 [kJ/mol]       0.00685119 [Eh]
  Correction H              6.373 [kcal/mol]       26.664 [kJ/mol]       0.01015583 [Eh]
  Total H, Enthalpy at  298.15 [K]                                    -113.34772776 [Eh]

  Gibbs free energy, G = H - T * S
    Electronic G            0.000 [kcal/mol]        0.000 [kJ/mol]       0.00000000 [Eh]
    Translational G        -9.229 [kcal/mol]      -38.615 [kJ/mol]      -0.01470771 [Eh]
    Rotational G           -2.789 [kcal/mol]      -11.671 [kJ/mol]      -0.00444512 [Eh]
    Vibrational G           3.409 [kcal/mol]       14.264 [kJ/mol]       0.00543275 [Eh]
  Correction G             -8.609 [kcal/mol]      -36.022 [kJ/mol]      -0.01372008 [Eh]
  Total G, Free enthalpy at  298.15 [K]                               -113.37160368 [Eh]

    Psi4 stopped on: Tuesday, 19 April 2022 12:36AM
    Psi4 wall time for execution: 0:00:14.44

*** Psi4 exiting successfully. Buy a developer a beer!
