
    -----------------------------------------------------------------------
          Psi4: An Open-Source Ab Initio Electronic Structure Package
                               Psi4 1.3.2 release

                         Git: Rev {HEAD} ecbda83 


    R. M. Parrish, L. A. Burns, D. G. A. Smith, A. C. Simmonett,
    A. E. DePrince III, E. G. Hohenstein, U. Bozkaya, A. Yu. Sokolov,
    R. Di Remigio, R. M. Richard, J. F. Gonthier, A. M. James,
    H. R. McAlexander, A. Kumar, M. Saitow, X. Wang, B. P. Pritchard,
    P. Verma, H. F. Schaefer III, K. Patkowski, R. A. King, E. F. Valeev,
    F. A. Evangelista, J. M. Turney, T. D. Crawford, and C. D. Sherrill,
    J. Chem. Theory Comput. 13(7) pp 3185--3197 (2017).
    (doi: 10.1021/acs.jctc.7b00174)


                         Additional Contributions by
    P. Kraus, H. Kruse, M. H. Lechner, M. C. Schieber, R. A. Shaw,
    A. Alenaizan, R. Galvelis, Z. L. Glick, S. Lehtola, and J. P. Misiewicz

    -----------------------------------------------------------------------


    Psi4 started on: Tuesday, 19 April 2022 12:31AM

    Process ID: 25524
    Host:       atlantis
    PSIDATADIR: /home/akrom/software/anaconda3/envs/ffpenv/share/psi4
    Memory:     500.0 MiB
    Threads:    1
    
  ==> Input File <==

--------------------------------------------------------------------------
set basis  6-31G
molecule {
0 1
   O        0.00000        0.00000        0.49152
   C        0.00000        0.00000       -0.65516
}
energy('MP2')
frequencies('MP2')
--------------------------------------------------------------------------
    SCF Algorithm Type (re)set to DF.

*** tstart() called on atlantis
*** at Tue Apr 19 00:31:36 2022

   => Loading Basis Set <=

    Name: 6-31G
    Role: ORBITAL
    Keyword: BASIS
    atoms 1 entry O          line   117 file /home/akrom/software/anaconda3/envs/ffpenv/share/psi4/basis/6-31g.gbs 
    atoms 2 entry C          line    87 file /home/akrom/software/anaconda3/envs/ffpenv/share/psi4/basis/6-31g.gbs 


         ---------------------------------------------------------
                                   SCF
               by Justin Turney, Rob Parrish, Andy Simmonett
                          and Daniel G. A. Smith
                              RHF Reference
                        1 Threads,    500 MiB Core
         ---------------------------------------------------------

  ==> Geometry <==

    Molecular point group: c2v
    Full point group: C_inf_v

    Geometry (in Angstrom), charge = 0, multiplicity = 1:

       Center              X                  Y                   Z               Mass       
    ------------   -----------------  -----------------  -----------------  -----------------
         O            0.000000000000     0.000000000000     0.491523556581    15.994914619570
         C            0.000000000000     0.000000000000    -0.655156443419    12.000000000000

  Running in c2v symmetry.

  Rotational constants: A = ************  B =      1.86994  C =      1.86994 [cm^-1]
  Rotational constants: A = ************  B =  56059.43274  C =  56059.43274 [MHz]
  Nuclear repulsion =   22.151346593783796

  Charge       = 0
  Multiplicity = 1
  Electrons    = 14
  Nalpha       = 7
  Nbeta        = 7

  ==> Algorithm <==

  SCF Algorithm Type is DF.
  DIIS enabled.
  MOM disabled.
  Fractional occupation disabled.
  Guess Type is SAD.
  Energy threshold   = 1.00e-08
  Density threshold  = 1.00e-08
  Integral threshold = 0.00e+00

  ==> Primary Basis <==

  Basis Set: 6-31G
    Blend: 6-31G
    Number of shells: 10
    Number of basis function: 18
    Number of Cartesian functions: 18
    Spherical Harmonics?: false
    Max angular momentum: 1

   => Loading Basis Set <=

    Name: (6-31G AUX)
    Role: JKFIT
    Keyword: DF_BASIS_SCF
    atoms 1 entry O          line   221 file /home/akrom/software/anaconda3/envs/ffpenv/share/psi4/basis/cc-pvdz-jkfit.gbs 
    atoms 2 entry C          line   121 file /home/akrom/software/anaconda3/envs/ffpenv/share/psi4/basis/cc-pvdz-jkfit.gbs 

  ==> Pre-Iterations <==

   -------------------------------------------------------
    Irrep   Nso     Nmo     Nalpha   Nbeta   Ndocc  Nsocc
   -------------------------------------------------------
     A1        10      10       0       0       0       0
     A2         0       0       0       0       0       0
     B1         4       4       0       0       0       0
     B2         4       4       0       0       0       0
   -------------------------------------------------------
    Total      18      18       7       7       7       0
   -------------------------------------------------------

  ==> Integral Setup <==

  DFHelper Memory: AOs need 0.001 GiB; user supplied 0.366 GiB. Using in-core AOs.

  ==> MemDFJK: Density-Fitted J/K Matrices <==

    J tasked:                   Yes
    K tasked:                   Yes
    wK tasked:                   No
    OpenMP threads:               1
    Memory [MiB]:               375
    Algorithm:                 Core
    Schwarz Cutoff:           1E-12
    Mask sparsity (%):       0.0000
    Fitting Condition:        1E-10

   => Auxiliary Basis Set <=

  Basis Set: (6-31G AUX)
    Blend: CC-PVDZ-JKFIT
    Number of shells: 48
    Number of basis function: 162
    Number of Cartesian functions: 162
    Spherical Harmonics?: false
    Max angular momentum: 3

  Minimum eigenvalue in the overlap matrix is 2.2846177072E-02.
  Using Symmetric Orthogonalization.

  SCF Guess: Superposition of Atomic Densities via on-the-fly atomic UHF.

  ==> Iterations <==

                           Total Energy        Delta E     RMS |[F,P]|

   @DF-RHF iter SAD:  -111.84772688299753   -1.11848e+02   0.00000e+00 
   @DF-RHF iter   1:  -112.63553456925743   -7.87808e-01   2.34809e-02 DIIS
   @DF-RHF iter   2:  -112.64362122102685   -8.08665e-03   2.15830e-02 DIIS
   @DF-RHF iter   3:  -112.66633675330628   -2.27155e-02   1.47758e-03 DIIS
   @DF-RHF iter   4:  -112.66650959105561   -1.72838e-04   1.56628e-04 DIIS
   @DF-RHF iter   5:  -112.66651203909595   -2.44804e-06   4.18109e-05 DIIS
   @DF-RHF iter   6:  -112.66651217449267   -1.35397e-07   1.01310e-05 DIIS
   @DF-RHF iter   7:  -112.66651218548530   -1.09926e-08   1.93070e-06 DIIS
   @DF-RHF iter   8:  -112.66651218589551   -4.10211e-10   1.61876e-07 DIIS
   @DF-RHF iter   9:  -112.66651218589783   -2.31637e-12   1.27342e-08 DIIS
   @DF-RHF iter  10:  -112.66651218589797   -1.42109e-13   1.08334e-09 DIIS
  Energy and wave function converged.


  ==> Post-Iterations <==

    Orbital Energies [Eh]
    ---------------------

    Doubly Occupied:                                                      

       1A1   -20.686368     2A1   -11.402922     3A1    -1.547644  
       4A1    -0.795973     1B2    -0.634521     1B1    -0.634521  
       5A1    -0.552514  

    Virtual:                                                              

       2B2     0.135355     2B1     0.135355     6A1     0.402987  
       3B2     0.727926     3B1     0.727926     7A1     0.769585  
       8A1     0.995978     9A1     1.191328     4B1     1.205396  
       4B2     1.205396    10A1     1.837221  

    Final Occupation by Irrep:
             A1    A2    B1    B2 
    DOCC [     5,    0,    1,    1 ]

  @DF-RHF Final Energy:  -112.66651218589797

   => Energetics <=

    Nuclear Repulsion Energy =             22.1513465937837957
    One-Electron Energy =                -197.1267923651567742
    Two-Electron Energy =                  62.3089335854750175
    Total Energy =                       -112.6665121858979717

Computation Completed


Properties will be evaluated at   0.000000,   0.000000,   0.000000 [a0]

Properties computed using the SCF density matrix

  Nuclear Dipole Moment: [e a0]
     X:     0.0000      Y:     0.0000      Z:     0.0024

  Electronic Dipole Moment: [e a0]
     X:     0.0000      Y:     0.0000      Z:    -0.2586

  Dipole Moment: [e a0]
     X:     0.0000      Y:     0.0000      Z:    -0.2563     Total:     0.2563

  Dipole Moment: [D]
     X:     0.0000      Y:     0.0000      Z:    -0.6514     Total:     0.6514


*** tstop() called on atlantis at Tue Apr 19 00:31:36 2022
Module time:
	user time   =       0.25 seconds =       0.00 minutes
	system time =       0.00 seconds =       0.00 minutes
	total time  =          0 seconds =       0.00 minutes
Total time:
	user time   =       0.25 seconds =       0.00 minutes
	system time =       0.00 seconds =       0.00 minutes
	total time  =          0 seconds =       0.00 minutes

*** tstart() called on atlantis
*** at Tue Apr 19 00:31:36 2022


  //>>>>>>>>>>>>>>>>>>>>>>>>>>>>>>>>>>>//
  //               DFMP2               //
  //<<<<<<<<<<<<<<<<<<<<<<<<<<<<<<<<<<<//

   => Loading Basis Set <=

    Name: (6-31G AUX)
    Role: RIFIT
    Keyword: DF_BASIS_MP2
    atoms 1 entry O          line   235 file /home/akrom/software/anaconda3/envs/ffpenv/share/psi4/basis/cc-pvdz-ri.gbs 
    atoms 2 entry C          line   159 file /home/akrom/software/anaconda3/envs/ffpenv/share/psi4/basis/cc-pvdz-ri.gbs 

	 --------------------------------------------------------
	                          DF-MP2                         
	      2nd-Order Density-Fitted Moller-Plesset Theory     
	              RMP2 Wavefunction,   1 Threads             
	                                                         
	        Rob Parrish, Justin Turney, Andy Simmonett,      
	           Ed Hohenstein, and C. David Sherrill          
	 --------------------------------------------------------

   => Auxiliary Basis Set <=

  Basis Set: (6-31G AUX)
    Blend: CC-PVDZ-RI
    Number of shells: 36
    Number of basis function: 112
    Number of Cartesian functions: 132
    Spherical Harmonics?: true
    Max angular momentum: 3

	 --------------------------------------------------------
	                 NBF =    18, NAUX =   112
	 --------------------------------------------------------
	   CLASS    FOCC     OCC    AOCC    AVIR     VIR    FVIR
	   PAIRS       0       7       7      11      11       0
	 --------------------------------------------------------

	-----------------------------------------------------------
	 ==================> DF-MP2 Energies <==================== 
	-----------------------------------------------------------
	 Reference Energy          =    -112.6665121858979717 [Eh]
	 Singles Energy            =      -0.0000000000000000 [Eh]
	 Same-Spin Energy          =      -0.0587052496165270 [Eh]
	 Opposite-Spin Energy      =      -0.1569490644543529 [Eh]
	 Correlation Energy        =      -0.2156543140708799 [Eh]
	 Total Energy              =    -112.8821664999688466 [Eh]
	-----------------------------------------------------------
	 ================> DF-SCS-MP2 Energies <================== 
	-----------------------------------------------------------
	 SCS Same-Spin Scale       =       0.3333333333333333 [-]
	 SCS Opposite-Spin Scale   =       1.2000000000000000 [-]
	 SCS Same-Spin Energy      =      -0.0195684165388423 [Eh]
	 SCS Opposite-Spin Energy  =      -0.1883388773452235 [Eh]
	 SCS Correlation Energy    =      -0.2079072938840658 [Eh]
	 SCS Total Energy          =    -112.8744194797820342 [Eh]
	-----------------------------------------------------------


*** tstop() called on atlantis at Tue Apr 19 00:31:37 2022
Module time:
	user time   =       0.04 seconds =       0.00 minutes
	system time =       0.00 seconds =       0.00 minutes
	total time  =          1 seconds =       0.02 minutes
Total time:
	user time   =       0.29 seconds =       0.00 minutes
	system time =       0.00 seconds =       0.00 minutes
	total time  =          1 seconds =       0.02 minutes
gradient() will perform analytic gradient computation.
    SCF Algorithm Type (re)set to DF.

*** tstart() called on atlantis
*** at Tue Apr 19 00:31:37 2022

   => Loading Basis Set <=

    Name: 6-31G
    Role: ORBITAL
    Keyword: BASIS
    atoms 1 entry O          line   117 file /home/akrom/software/anaconda3/envs/ffpenv/share/psi4/basis/6-31g.gbs 
    atoms 2 entry C          line    87 file /home/akrom/software/anaconda3/envs/ffpenv/share/psi4/basis/6-31g.gbs 


         ---------------------------------------------------------
                                   SCF
               by Justin Turney, Rob Parrish, Andy Simmonett
                          and Daniel G. A. Smith
                              RHF Reference
                        1 Threads,    500 MiB Core
         ---------------------------------------------------------

  ==> Geometry <==

    Molecular point group: c2v
    Full point group: C_inf_v

    Geometry (in Angstrom), charge = 0, multiplicity = 1:

       Center              X                  Y                   Z               Mass       
    ------------   -----------------  -----------------  -----------------  -----------------
         O            0.000000000000     0.000000000000     0.491523556581    15.994914619570
         C            0.000000000000     0.000000000000    -0.655156443419    12.000000000000

  Running in c2v symmetry.

  Rotational constants: A = ************  B =      1.86994  C =      1.86994 [cm^-1]
  Rotational constants: A = ************  B =  56059.43274  C =  56059.43274 [MHz]
  Nuclear repulsion =   22.151346593783796

  Charge       = 0
  Multiplicity = 1
  Electrons    = 14
  Nalpha       = 7
  Nbeta        = 7

  ==> Algorithm <==

  SCF Algorithm Type is DF.
  DIIS enabled.
  MOM disabled.
  Fractional occupation disabled.
  Guess Type is SAD.
  Energy threshold   = 1.00e-10
  Density threshold  = 1.00e-10
  Integral threshold = 0.00e+00

  ==> Primary Basis <==

  Basis Set: 6-31G
    Blend: 6-31G
    Number of shells: 10
    Number of basis function: 18
    Number of Cartesian functions: 18
    Spherical Harmonics?: false
    Max angular momentum: 1

   => Loading Basis Set <=

    Name: (6-31G AUX)
    Role: JKFIT
    Keyword: DF_BASIS_SCF
    atoms 1 entry O          line   221 file /home/akrom/software/anaconda3/envs/ffpenv/share/psi4/basis/cc-pvdz-jkfit.gbs 
    atoms 2 entry C          line   121 file /home/akrom/software/anaconda3/envs/ffpenv/share/psi4/basis/cc-pvdz-jkfit.gbs 

  ==> Pre-Iterations <==

   -------------------------------------------------------
    Irrep   Nso     Nmo     Nalpha   Nbeta   Ndocc  Nsocc
   -------------------------------------------------------
     A1        10      10       0       0       0       0
     A2         0       0       0       0       0       0
     B1         4       4       0       0       0       0
     B2         4       4       0       0       0       0
   -------------------------------------------------------
    Total      18      18       7       7       7       0
   -------------------------------------------------------

  ==> Integral Setup <==

  DFHelper Memory: AOs need 0.001 GiB; user supplied 0.366 GiB. Using in-core AOs.

  ==> MemDFJK: Density-Fitted J/K Matrices <==

    J tasked:                   Yes
    K tasked:                   Yes
    wK tasked:                   No
    OpenMP threads:               1
    Memory [MiB]:               375
    Algorithm:                 Core
    Schwarz Cutoff:           1E-12
    Mask sparsity (%):       0.0000
    Fitting Condition:        1E-10

   => Auxiliary Basis Set <=

  Basis Set: (6-31G AUX)
    Blend: CC-PVDZ-JKFIT
    Number of shells: 48
    Number of basis function: 162
    Number of Cartesian functions: 162
    Spherical Harmonics?: false
    Max angular momentum: 3

  Minimum eigenvalue in the overlap matrix is 2.2846177072E-02.
  Using Symmetric Orthogonalization.

  SCF Guess: Superposition of Atomic Densities via on-the-fly atomic UHF.

  ==> Iterations <==

                           Total Energy        Delta E     RMS |[F,P]|

   @DF-RHF iter SAD:  -111.84772688299753   -1.11848e+02   0.00000e+00 
   @DF-RHF iter   1:  -112.63553456925743   -7.87808e-01   2.34809e-02 DIIS
   @DF-RHF iter   2:  -112.64362122102685   -8.08665e-03   2.15830e-02 DIIS
   @DF-RHF iter   3:  -112.66633675330628   -2.27155e-02   1.47758e-03 DIIS
   @DF-RHF iter   4:  -112.66650959105561   -1.72838e-04   1.56628e-04 DIIS
   @DF-RHF iter   5:  -112.66651203909595   -2.44804e-06   4.18109e-05 DIIS
   @DF-RHF iter   6:  -112.66651217449267   -1.35397e-07   1.01310e-05 DIIS
   @DF-RHF iter   7:  -112.66651218548530   -1.09926e-08   1.93070e-06 DIIS
   @DF-RHF iter   8:  -112.66651218589551   -4.10211e-10   1.61876e-07 DIIS
   @DF-RHF iter   9:  -112.66651218589783   -2.31637e-12   1.27342e-08 DIIS
   @DF-RHF iter  10:  -112.66651218589797   -1.42109e-13   1.08334e-09 DIIS
   @DF-RHF iter  11:  -112.66651218589790    7.10543e-14   8.00784e-11 DIIS
  Energy and wave function converged.


  ==> Post-Iterations <==

    Orbital Energies [Eh]
    ---------------------

    Doubly Occupied:                                                      

       1A1   -20.686368     2A1   -11.402922     3A1    -1.547644  
       4A1    -0.795973     1B2    -0.634521     1B1    -0.634521  
       5A1    -0.552514  

    Virtual:                                                              

       2B2     0.135355     2B1     0.135355     6A1     0.402987  
       3B2     0.727926     3B1     0.727926     7A1     0.769585  
       8A1     0.995978     9A1     1.191328     4B1     1.205396  
       4B2     1.205396    10A1     1.837221  

    Final Occupation by Irrep:
             A1    A2    B1    B2 
    DOCC [     5,    0,    1,    1 ]

  @DF-RHF Final Energy:  -112.66651218589790

   => Energetics <=

    Nuclear Repulsion Energy =             22.1513465937837957
    One-Electron Energy =                -197.1267923588788733
    Two-Electron Energy =                  62.3089335791971877
    Total Energy =                       -112.6665121858979006

Computation Completed


Properties will be evaluated at   0.000000,   0.000000,   0.000000 [a0]

Properties computed using the SCF density matrix

  Nuclear Dipole Moment: [e a0]
     X:     0.0000      Y:     0.0000      Z:     0.0024

  Electronic Dipole Moment: [e a0]
     X:     0.0000      Y:     0.0000      Z:    -0.2586

  Dipole Moment: [e a0]
     X:     0.0000      Y:     0.0000      Z:    -0.2563     Total:     0.2563

  Dipole Moment: [D]
     X:     0.0000      Y:     0.0000      Z:    -0.6514     Total:     0.6514


*** tstop() called on atlantis at Tue Apr 19 00:31:37 2022
Module time:
	user time   =       0.23 seconds =       0.00 minutes
	system time =       0.00 seconds =       0.00 minutes
	total time  =          0 seconds =       0.00 minutes
Total time:
	user time   =       0.53 seconds =       0.01 minutes
	system time =       0.00 seconds =       0.00 minutes
	total time  =          1 seconds =       0.02 minutes

*** tstart() called on atlantis
*** at Tue Apr 19 00:31:37 2022


  //>>>>>>>>>>>>>>>>>>>>>>>>>>>>>>>>>>>//
  //               DFMP2               //
  //<<<<<<<<<<<<<<<<<<<<<<<<<<<<<<<<<<<//

   => Loading Basis Set <=

    Name: (6-31G AUX)
    Role: RIFIT
    Keyword: DF_BASIS_MP2
    atoms 1 entry O          line   235 file /home/akrom/software/anaconda3/envs/ffpenv/share/psi4/basis/cc-pvdz-ri.gbs 
    atoms 2 entry C          line   159 file /home/akrom/software/anaconda3/envs/ffpenv/share/psi4/basis/cc-pvdz-ri.gbs 

	 --------------------------------------------------------
	                          DF-MP2                         
	      2nd-Order Density-Fitted Moller-Plesset Theory     
	              RMP2 Wavefunction,   1 Threads             
	                                                         
	        Rob Parrish, Justin Turney, Andy Simmonett,      
	           Ed Hohenstein, and C. David Sherrill          
	 --------------------------------------------------------

   => Auxiliary Basis Set <=

  Basis Set: (6-31G AUX)
    Blend: CC-PVDZ-RI
    Number of shells: 36
    Number of basis function: 112
    Number of Cartesian functions: 132
    Spherical Harmonics?: true
    Max angular momentum: 3

	 --------------------------------------------------------
	                 NBF =    18, NAUX =   112
	 --------------------------------------------------------
	   CLASS    FOCC     OCC    AOCC    AVIR     VIR    FVIR
	   PAIRS       0       7       7      11      11       0
	 --------------------------------------------------------

  DFHelper Memory: AOs need 0.001 GiB; user supplied 0.366 GiB. Using in-core AOs.


         ------------------------------------------------------------
                                     CPHF                           
                                  Rob Parrish                       
         ------------------------------------------------------------

  ==> Geometry <==

    Molecular point group: c2v
    Full point group: C_inf_v

    Geometry (in Angstrom), charge = 0, multiplicity = 1:

       Center              X                  Y                   Z               Mass       
    ------------   -----------------  -----------------  -----------------  -----------------
         O            0.000000000000     0.000000000000     0.491523556581    15.994914619570
         C            0.000000000000     0.000000000000    -0.655156443419    12.000000000000

  Nuclear repulsion =   22.151346593783796
  Reference energy  = -112.666512185897901

  ==> Basis Set <==

  Basis Set: 6-31G
    Blend: 6-31G
    Number of shells: 10
    Number of basis function: 18
    Number of Cartesian functions: 18
    Spherical Harmonics?: false
    Max angular momentum: 1

  ==> CGRSolver (by Rob Parrish) <==

   Number of roots    =         1
   Preconditioning    =    JACOBI
   Convergence cutoff =     1E-06
   Maximum iterations =       100

  ==> CPHFRHamiltonian (by Rob Parrish) <== 

  ==> MemDFJK: Density-Fitted J/K Matrices <==

    J tasked:                   Yes
    K tasked:                   Yes
    wK tasked:                   No
    OpenMP threads:               1
    Memory [MiB]:               375
    Algorithm:                 Core
    Schwarz Cutoff:           1E-12
    Mask sparsity (%):       0.0000
    Fitting Condition:        1E-10

   => Auxiliary Basis Set <=

  Basis Set: (6-31G AUX)
    Blend: CC-PVDZ-JKFIT
    Number of shells: 48
    Number of basis function: 162
    Number of Cartesian functions: 162
    Spherical Harmonics?: false
    Max angular momentum: 3

  ==> CPHF Iterations <==

  => Iterations <=

             Iter  Converged  Remaining    Residual
  CGR           1          0          1   1.780E-01
  CGR           2          0          1   4.248E-02
  CGR           3          0          1   1.124E-02
  CGR           4          0          1   1.112E-03
  CGR           5          0          1   6.944E-05
  CGR           6          0          1   8.759E-06
  CGR           7          1          0   4.474E-07

    CGRSolver converged.

  ==> DFCorrGrad: Density-Fitted Correlated Gradients <==

    OpenMP threads:              1
    Integrals threads:           1
    Memory [GiB]:            0.366
    Schwarz Cutoff:          0E+00
    Fitting Condition:       1E-10

   => Auxiliary Basis Set <=

  Basis Set: (6-31G AUX)
    Blend: CC-PVDZ-JKFIT
    Number of shells: 48
    Number of basis function: 162
    Number of Cartesian functions: 162
    Spherical Harmonics?: false
    Max angular momentum: 3

	-----------------------------------------------------------
	 ==================> DF-MP2 Energies <==================== 
	-----------------------------------------------------------
	 Reference Energy          =    -112.6665121858979006 [Eh]
	 Singles Energy            =      -0.0000000000000000 [Eh]
	 Same-Spin Energy          =      -0.0587052496557290 [Eh]
	 Opposite-Spin Energy      =      -0.1569490645446358 [Eh]
	 Correlation Energy        =      -0.2156543142003648 [Eh]
	 Total Energy              =    -112.8821665000982648 [Eh]
	-----------------------------------------------------------
	 ================> DF-SCS-MP2 Energies <================== 
	-----------------------------------------------------------
	 SCS Same-Spin Scale       =       0.3333333333333333 [-]
	 SCS Opposite-Spin Scale   =       1.2000000000000000 [-]
	 SCS Same-Spin Energy      =      -0.0195684165519096 [Eh]
	 SCS Opposite-Spin Energy  =      -0.1883388774535630 [Eh]
	 SCS Correlation Energy    =      -0.2079072940054726 [Eh]
	 SCS Total Energy          =    -112.8744194799033664 [Eh]
	-----------------------------------------------------------


  -Total Gradient:
     Atom            X                  Y                   Z
    ------   -----------------  -----------------  -----------------
       1       -0.000000000000     0.000000000000    -0.060666536950
       2        0.000000000000     0.000000000000     0.060666536950


*** tstop() called on atlantis at Tue Apr 19 00:31:37 2022
Module time:
	user time   =       0.21 seconds =       0.00 minutes
	system time =       0.01 seconds =       0.00 minutes
	total time  =          0 seconds =       0.00 minutes
Total time:
	user time   =       0.74 seconds =       0.01 minutes
	system time =       0.01 seconds =       0.00 minutes
	total time  =          1 seconds =       0.02 minutes

  Based on options and gradient (rms=3.50E-02), recommend projecting translations and not projecting rotations.
hessian() will perform frequency computation by finite difference of analytic gradients.

         ----------------------------------------------------------
                                   FINDIF
                     R. A. King and Jonathon Misiewicz
         ---------------------------------------------------------

  Using finite-differences of gradients to determine vibrational frequencies and 
  normal modes.  Resulting frequencies are only valid at stationary points.
    Generating geometries for use with 3-point formula.
    Displacement size will be 5.00e-03.
    Number of atoms is 2.
    Number of irreps is 4.
    Number of SALCs is 3.
    Translations projected? 1. Rotations projected? 0.
    Index of SALCs per irrep:
     1 :  0 
     2 : 
     3 :  1 
     4 :  2 
    Number of SALCs per irrep:
     Irrep 1: 1
     Irrep 2: 0
     Irrep 3: 1
     Irrep 4: 1
    Number of geometries (including reference) is 5.
    Number of displacements per irrep:
      Irrep 1: 2
      Irrep 2: 0
      Irrep 3: 1
      Irrep 4: 1

  //>>>>>>>>>>>>>>>>>>>>>>>>>>>>>>>>>>>//
  //    Loading displacement 1 of 5    //
  //<<<<<<<<<<<<<<<<<<<<<<<<<<<<<<<<<<<//
gradient() will perform analytic gradient computation.
    SCF Algorithm Type (re)set to DF.

*** tstart() called on atlantis
*** at Tue Apr 19 00:31:37 2022

   => Loading Basis Set <=

    Name: 6-31G
    Role: ORBITAL
    Keyword: BASIS
    atoms 1 entry O          line   117 file /home/akrom/software/anaconda3/envs/ffpenv/share/psi4/basis/6-31g.gbs 
    atoms 2 entry C          line    87 file /home/akrom/software/anaconda3/envs/ffpenv/share/psi4/basis/6-31g.gbs 


         ---------------------------------------------------------
                                   SCF
               by Justin Turney, Rob Parrish, Andy Simmonett
                          and Daniel G. A. Smith
                              RHF Reference
                        1 Threads,    500 MiB Core
         ---------------------------------------------------------

  ==> Geometry <==

    Molecular point group: c2v
    Full point group: C_inf_v

    Geometry (in Angstrom), charge = 0, multiplicity = 1:

       Center              X                  Y                   Z               Mass       
    ------------   -----------------  -----------------  -----------------  -----------------
         O            0.000000000000     0.000000000000     0.491523556581    15.994914619570
         C            0.000000000000     0.000000000000    -0.655156443419    12.000000000000

  Running in c2v symmetry.

  Rotational constants: A = ************  B =      1.86994  C =      1.86994 [cm^-1]
  Rotational constants: A = ************  B =  56059.43274  C =  56059.43274 [MHz]
  Nuclear repulsion =   22.151346593783796

  Charge       = 0
  Multiplicity = 1
  Electrons    = 14
  Nalpha       = 7
  Nbeta        = 7

  ==> Algorithm <==

  SCF Algorithm Type is DF.
  DIIS enabled.
  MOM disabled.
  Fractional occupation disabled.
  Guess Type is SAD.
  Energy threshold   = 1.00e-10
  Density threshold  = 1.00e-10
  Integral threshold = 0.00e+00

  ==> Primary Basis <==

  Basis Set: 6-31G
    Blend: 6-31G
    Number of shells: 10
    Number of basis function: 18
    Number of Cartesian functions: 18
    Spherical Harmonics?: false
    Max angular momentum: 1

   => Loading Basis Set <=

    Name: (6-31G AUX)
    Role: JKFIT
    Keyword: DF_BASIS_SCF
    atoms 1 entry O          line   221 file /home/akrom/software/anaconda3/envs/ffpenv/share/psi4/basis/cc-pvdz-jkfit.gbs 
    atoms 2 entry C          line   121 file /home/akrom/software/anaconda3/envs/ffpenv/share/psi4/basis/cc-pvdz-jkfit.gbs 

  ==> Pre-Iterations <==

   -------------------------------------------------------
    Irrep   Nso     Nmo     Nalpha   Nbeta   Ndocc  Nsocc
   -------------------------------------------------------
     A1        10      10       0       0       0       0
     A2         0       0       0       0       0       0
     B1         4       4       0       0       0       0
     B2         4       4       0       0       0       0
   -------------------------------------------------------
    Total      18      18       7       7       7       0
   -------------------------------------------------------

  ==> Integral Setup <==

  DFHelper Memory: AOs need 0.001 GiB; user supplied 0.366 GiB. Using in-core AOs.

  ==> MemDFJK: Density-Fitted J/K Matrices <==

    J tasked:                   Yes
    K tasked:                   Yes
    wK tasked:                   No
    OpenMP threads:               1
    Memory [MiB]:               375
    Algorithm:                 Core
    Schwarz Cutoff:           1E-12
    Mask sparsity (%):       0.0000
    Fitting Condition:        1E-10

   => Auxiliary Basis Set <=

  Basis Set: (6-31G AUX)
    Blend: CC-PVDZ-JKFIT
    Number of shells: 48
    Number of basis function: 162
    Number of Cartesian functions: 162
    Spherical Harmonics?: false
    Max angular momentum: 3

  Minimum eigenvalue in the overlap matrix is 2.2846177072E-02.
  Using Symmetric Orthogonalization.

  SCF Guess: Superposition of Atomic Densities via on-the-fly atomic UHF.

  ==> Iterations <==

                           Total Energy        Delta E     RMS |[F,P]|

   @DF-RHF iter SAD:  -111.84772688299753   -1.11848e+02   0.00000e+00 
   @DF-RHF iter   1:  -112.63553456925743   -7.87808e-01   2.34809e-02 DIIS
   @DF-RHF iter   2:  -112.64362122102685   -8.08665e-03   2.15830e-02 DIIS
   @DF-RHF iter   3:  -112.66633675330628   -2.27155e-02   1.47758e-03 DIIS
   @DF-RHF iter   4:  -112.66650959105561   -1.72838e-04   1.56628e-04 DIIS
   @DF-RHF iter   5:  -112.66651203909595   -2.44804e-06   4.18109e-05 DIIS
   @DF-RHF iter   6:  -112.66651217449267   -1.35397e-07   1.01310e-05 DIIS
   @DF-RHF iter   7:  -112.66651218548530   -1.09926e-08   1.93070e-06 DIIS
   @DF-RHF iter   8:  -112.66651218589551   -4.10211e-10   1.61876e-07 DIIS
   @DF-RHF iter   9:  -112.66651218589783   -2.31637e-12   1.27342e-08 DIIS
   @DF-RHF iter  10:  -112.66651218589797   -1.42109e-13   1.08334e-09 DIIS
   @DF-RHF iter  11:  -112.66651218589790    7.10543e-14   8.00784e-11 DIIS
  Energy and wave function converged.


  ==> Post-Iterations <==

    Orbital Energies [Eh]
    ---------------------

    Doubly Occupied:                                                      

       1A1   -20.686368     2A1   -11.402922     3A1    -1.547644  
       4A1    -0.795973     1B2    -0.634521     1B1    -0.634521  
       5A1    -0.552514  

    Virtual:                                                              

       2B2     0.135355     2B1     0.135355     6A1     0.402987  
       3B2     0.727926     3B1     0.727926     7A1     0.769585  
       8A1     0.995978     9A1     1.191328     4B1     1.205396  
       4B2     1.205396    10A1     1.837221  

    Final Occupation by Irrep:
             A1    A2    B1    B2 
    DOCC [     5,    0,    1,    1 ]

  @DF-RHF Final Energy:  -112.66651218589790

   => Energetics <=

    Nuclear Repulsion Energy =             22.1513465937837957
    One-Electron Energy =                -197.1267923588788733
    Two-Electron Energy =                  62.3089335791971877
    Total Energy =                       -112.6665121858979006

Computation Completed


Properties will be evaluated at   0.000000,   0.000000,   0.000000 [a0]

Properties computed using the SCF density matrix

  Nuclear Dipole Moment: [e a0]
     X:     0.0000      Y:     0.0000      Z:     0.0024

  Electronic Dipole Moment: [e a0]
     X:     0.0000      Y:     0.0000      Z:    -0.2586

  Dipole Moment: [e a0]
     X:     0.0000      Y:     0.0000      Z:    -0.2563     Total:     0.2563

  Dipole Moment: [D]
     X:     0.0000      Y:     0.0000      Z:    -0.6514     Total:     0.6514


*** tstop() called on atlantis at Tue Apr 19 00:31:38 2022
Module time:
	user time   =       0.22 seconds =       0.00 minutes
	system time =       0.01 seconds =       0.00 minutes
	total time  =          1 seconds =       0.02 minutes
Total time:
	user time   =       1.23 seconds =       0.02 minutes
	system time =       0.03 seconds =       0.00 minutes
	total time  =          2 seconds =       0.03 minutes

*** tstart() called on atlantis
*** at Tue Apr 19 00:31:38 2022


  //>>>>>>>>>>>>>>>>>>>>>>>>>>>>>>>>>>>//
  //               DFMP2               //
  //<<<<<<<<<<<<<<<<<<<<<<<<<<<<<<<<<<<//

   => Loading Basis Set <=

    Name: (6-31G AUX)
    Role: RIFIT
    Keyword: DF_BASIS_MP2
    atoms 1 entry O          line   235 file /home/akrom/software/anaconda3/envs/ffpenv/share/psi4/basis/cc-pvdz-ri.gbs 
    atoms 2 entry C          line   159 file /home/akrom/software/anaconda3/envs/ffpenv/share/psi4/basis/cc-pvdz-ri.gbs 

	 --------------------------------------------------------
	                          DF-MP2                         
	      2nd-Order Density-Fitted Moller-Plesset Theory     
	              RMP2 Wavefunction,   1 Threads             
	                                                         
	        Rob Parrish, Justin Turney, Andy Simmonett,      
	           Ed Hohenstein, and C. David Sherrill          
	 --------------------------------------------------------

   => Auxiliary Basis Set <=

  Basis Set: (6-31G AUX)
    Blend: CC-PVDZ-RI
    Number of shells: 36
    Number of basis function: 112
    Number of Cartesian functions: 132
    Spherical Harmonics?: true
    Max angular momentum: 3

	 --------------------------------------------------------
	                 NBF =    18, NAUX =   112
	 --------------------------------------------------------
	   CLASS    FOCC     OCC    AOCC    AVIR     VIR    FVIR
	   PAIRS       0       7       7      11      11       0
	 --------------------------------------------------------

  DFHelper Memory: AOs need 0.001 GiB; user supplied 0.366 GiB. Using in-core AOs.


         ------------------------------------------------------------
                                     CPHF                           
                                  Rob Parrish                       
         ------------------------------------------------------------

  ==> Geometry <==

    Molecular point group: c2v
    Full point group: C_inf_v

    Geometry (in Angstrom), charge = 0, multiplicity = 1:

       Center              X                  Y                   Z               Mass       
    ------------   -----------------  -----------------  -----------------  -----------------
         O            0.000000000000     0.000000000000     0.491523556581    15.994914619570
         C            0.000000000000     0.000000000000    -0.655156443419    12.000000000000

  Nuclear repulsion =   22.151346593783796
  Reference energy  = -112.666512185897901

  ==> Basis Set <==

  Basis Set: 6-31G
    Blend: 6-31G
    Number of shells: 10
    Number of basis function: 18
    Number of Cartesian functions: 18
    Spherical Harmonics?: false
    Max angular momentum: 1

  ==> CGRSolver (by Rob Parrish) <==

   Number of roots    =         1
   Preconditioning    =    JACOBI
   Convergence cutoff =     1E-06
   Maximum iterations =       100

  ==> CPHFRHamiltonian (by Rob Parrish) <== 

  ==> MemDFJK: Density-Fitted J/K Matrices <==

    J tasked:                   Yes
    K tasked:                   Yes
    wK tasked:                   No
    OpenMP threads:               1
    Memory [MiB]:               375
    Algorithm:                 Core
    Schwarz Cutoff:           1E-12
    Mask sparsity (%):       0.0000
    Fitting Condition:        1E-10

   => Auxiliary Basis Set <=

  Basis Set: (6-31G AUX)
    Blend: CC-PVDZ-JKFIT
    Number of shells: 48
    Number of basis function: 162
    Number of Cartesian functions: 162
    Spherical Harmonics?: false
    Max angular momentum: 3

  ==> CPHF Iterations <==

  => Iterations <=

             Iter  Converged  Remaining    Residual
  CGR           1          0          1   1.780E-01
  CGR           2          0          1   4.248E-02
  CGR           3          0          1   1.124E-02
  CGR           4          0          1   1.112E-03
  CGR           5          0          1   6.944E-05
  CGR           6          0          1   8.759E-06
  CGR           7          1          0   4.474E-07

    CGRSolver converged.

  ==> DFCorrGrad: Density-Fitted Correlated Gradients <==

    OpenMP threads:              1
    Integrals threads:           1
    Memory [GiB]:            0.366
    Schwarz Cutoff:          0E+00
    Fitting Condition:       1E-10

   => Auxiliary Basis Set <=

  Basis Set: (6-31G AUX)
    Blend: CC-PVDZ-JKFIT
    Number of shells: 48
    Number of basis function: 162
    Number of Cartesian functions: 162
    Spherical Harmonics?: false
    Max angular momentum: 3

	-----------------------------------------------------------
	 ==================> DF-MP2 Energies <==================== 
	-----------------------------------------------------------
	 Reference Energy          =    -112.6665121858979006 [Eh]
	 Singles Energy            =      -0.0000000000000000 [Eh]
	 Same-Spin Energy          =      -0.0587052496557290 [Eh]
	 Opposite-Spin Energy      =      -0.1569490645446358 [Eh]
	 Correlation Energy        =      -0.2156543142003648 [Eh]
	 Total Energy              =    -112.8821665000982648 [Eh]
	-----------------------------------------------------------
	 ================> DF-SCS-MP2 Energies <================== 
	-----------------------------------------------------------
	 SCS Same-Spin Scale       =       0.3333333333333333 [-]
	 SCS Opposite-Spin Scale   =       1.2000000000000000 [-]
	 SCS Same-Spin Energy      =      -0.0195684165519096 [Eh]
	 SCS Opposite-Spin Energy  =      -0.1883388774535630 [Eh]
	 SCS Correlation Energy    =      -0.2079072940054726 [Eh]
	 SCS Total Energy          =    -112.8744194799033664 [Eh]
	-----------------------------------------------------------


  -Total Gradient:
     Atom            X                  Y                   Z
    ------   -----------------  -----------------  -----------------
       1       -0.000000000000     0.000000000000    -0.060666536950
       2        0.000000000000     0.000000000000     0.060666536950


*** tstop() called on atlantis at Tue Apr 19 00:31:38 2022
Module time:
	user time   =       0.21 seconds =       0.00 minutes
	system time =       0.00 seconds =       0.00 minutes
	total time  =          0 seconds =       0.00 minutes
Total time:
	user time   =       1.44 seconds =       0.02 minutes
	system time =       0.03 seconds =       0.00 minutes
	total time  =          2 seconds =       0.03 minutes

  //>>>>>>>>>>>>>>>>>>>>>>>>>>>>>>>>>>>//
  //    Loading displacement 2 of 5    //
  //<<<<<<<<<<<<<<<<<<<<<<<<<<<<<<<<<<<//
gradient() will perform analytic gradient computation.
    SCF Algorithm Type (re)set to DF.

*** tstart() called on atlantis
*** at Tue Apr 19 00:31:38 2022

   => Loading Basis Set <=

    Name: 6-31G
    Role: ORBITAL
    Keyword: BASIS
    atoms 1 entry O          line   117 file /home/akrom/software/anaconda3/envs/ffpenv/share/psi4/basis/6-31g.gbs 
    atoms 2 entry C          line    87 file /home/akrom/software/anaconda3/envs/ffpenv/share/psi4/basis/6-31g.gbs 


         ---------------------------------------------------------
                                   SCF
               by Justin Turney, Rob Parrish, Andy Simmonett
                          and Daniel G. A. Smith
                              RHF Reference
                        1 Threads,    500 MiB Core
         ---------------------------------------------------------

  ==> Geometry <==

    Molecular point group: c2v
    Full point group: C_inf_v

    Geometry (in Angstrom), charge = 0, multiplicity = 1:

       Center              X                  Y                   Z               Mass       
    ------------   -----------------  -----------------  -----------------  -----------------
         O            0.000000000000     0.000000000000     0.491090413658    15.994914619570
         C            0.000000000000     0.000000000000    -0.654579103079    12.000000000000

  Running in c2v symmetry.

  Rotational constants: A = ************  B =      1.87324  C =      1.87324 [cm^-1]
  Rotational constants: A = ************  B =  56158.36546  C =  56158.36546 [MHz]
  Nuclear repulsion =   22.170884134640527

  Charge       = 0
  Multiplicity = 1
  Electrons    = 14
  Nalpha       = 7
  Nbeta        = 7

  ==> Algorithm <==

  SCF Algorithm Type is DF.
  DIIS enabled.
  MOM disabled.
  Fractional occupation disabled.
  Guess Type is SAD.
  Energy threshold   = 1.00e-10
  Density threshold  = 1.00e-10
  Integral threshold = 0.00e+00

  ==> Primary Basis <==

  Basis Set: 6-31G
    Blend: 6-31G
    Number of shells: 10
    Number of basis function: 18
    Number of Cartesian functions: 18
    Spherical Harmonics?: false
    Max angular momentum: 1

   => Loading Basis Set <=

    Name: (6-31G AUX)
    Role: JKFIT
    Keyword: DF_BASIS_SCF
    atoms 1 entry O          line   221 file /home/akrom/software/anaconda3/envs/ffpenv/share/psi4/basis/cc-pvdz-jkfit.gbs 
    atoms 2 entry C          line   121 file /home/akrom/software/anaconda3/envs/ffpenv/share/psi4/basis/cc-pvdz-jkfit.gbs 

  ==> Pre-Iterations <==

   -------------------------------------------------------
    Irrep   Nso     Nmo     Nalpha   Nbeta   Ndocc  Nsocc
   -------------------------------------------------------
     A1        10      10       0       0       0       0
     A2         0       0       0       0       0       0
     B1         4       4       0       0       0       0
     B2         4       4       0       0       0       0
   -------------------------------------------------------
    Total      18      18       7       7       7       0
   -------------------------------------------------------

  ==> Integral Setup <==

  DFHelper Memory: AOs need 0.001 GiB; user supplied 0.366 GiB. Using in-core AOs.

  ==> MemDFJK: Density-Fitted J/K Matrices <==

    J tasked:                   Yes
    K tasked:                   Yes
    wK tasked:                   No
    OpenMP threads:               1
    Memory [MiB]:               375
    Algorithm:                 Core
    Schwarz Cutoff:           1E-12
    Mask sparsity (%):       0.0000
    Fitting Condition:        1E-10

   => Auxiliary Basis Set <=

  Basis Set: (6-31G AUX)
    Blend: CC-PVDZ-JKFIT
    Number of shells: 48
    Number of basis function: 162
    Number of Cartesian functions: 162
    Spherical Harmonics?: false
    Max angular momentum: 3

  Minimum eigenvalue in the overlap matrix is 2.2792534738E-02.
  Using Symmetric Orthogonalization.

  SCF Guess: Superposition of Atomic Densities via on-the-fly atomic UHF.

  ==> Iterations <==

                           Total Energy        Delta E     RMS |[F,P]|

   @DF-RHF iter SAD:  -111.85006402520465   -1.11850e+02   0.00000e+00 
   @DF-RHF iter   1:  -112.63574021869367   -7.85676e-01   2.34367e-02 DIIS
   @DF-RHF iter   2:  -112.64387983092220   -8.13961e-03   2.14995e-02 DIIS
   @DF-RHF iter   3:  -112.66640881996464   -2.25290e-02   1.47702e-03 DIIS
   @DF-RHF iter   4:  -112.66658148246728   -1.72663e-04   1.56441e-04 DIIS
   @DF-RHF iter   5:  -112.66658392498717   -2.44252e-06   4.20668e-05 DIIS
   @DF-RHF iter   6:  -112.66658406201375   -1.37027e-07   1.02202e-05 DIIS
   @DF-RHF iter   7:  -112.66658407318914   -1.11754e-08   1.92888e-06 DIIS
   @DF-RHF iter   8:  -112.66658407359712   -4.07979e-10   1.60310e-07 DIIS
   @DF-RHF iter   9:  -112.66658407359941   -2.28795e-12   1.26461e-08 DIIS
   @DF-RHF iter  10:  -112.66658407359941    0.00000e+00   1.07638e-09 DIIS
   @DF-RHF iter  11:  -112.66658407359941    0.00000e+00   7.97886e-11 DIIS
  Energy and wave function converged.


  ==> Post-Iterations <==

    Orbital Energies [Eh]
    ---------------------

    Doubly Occupied:                                                      

       1A1   -20.686363     2A1   -11.402569     3A1    -1.548393  
       4A1    -0.796030     1B2    -0.634951     1B1    -0.634951  
       5A1    -0.552424  

    Virtual:                                                              

       2B2     0.135777     2B1     0.135777     6A1     0.403089  
       3B2     0.727936     3B1     0.727936     7A1     0.769713  
       8A1     0.996953     9A1     1.192262     4B1     1.205428  
       4B2     1.205428    10A1     1.837527  

    Final Occupation by Irrep:
             A1    A2    B1    B2 
    DOCC [     5,    0,    1,    1 ]

  @DF-RHF Final Energy:  -112.66658407359941

   => Energetics <=

    Nuclear Repulsion Energy =             22.1708841346405272
    One-Electron Energy =                -197.1635756705428548
    Two-Electron Energy =                  62.3261074623029216
    Total Energy =                       -112.6665840735994095

Computation Completed


Properties will be evaluated at   0.000000,   0.000000,   0.000000 [a0]

Properties computed using the SCF density matrix

  Nuclear Dipole Moment: [e a0]
     X:     0.0000      Y:     0.0000      Z:     0.0024

  Electronic Dipole Moment: [e a0]
     X:     0.0000      Y:     0.0000      Z:    -0.2567

  Dipole Moment: [e a0]
     X:     0.0000      Y:     0.0000      Z:    -0.2543     Total:     0.2543

  Dipole Moment: [D]
     X:     0.0000      Y:     0.0000      Z:    -0.6465     Total:     0.6465


*** tstop() called on atlantis at Tue Apr 19 00:31:38 2022
Module time:
	user time   =       0.23 seconds =       0.00 minutes
	system time =       0.00 seconds =       0.00 minutes
	total time  =          0 seconds =       0.00 minutes
Total time:
	user time   =       1.68 seconds =       0.03 minutes
	system time =       0.03 seconds =       0.00 minutes
	total time  =          2 seconds =       0.03 minutes

*** tstart() called on atlantis
*** at Tue Apr 19 00:31:38 2022


  //>>>>>>>>>>>>>>>>>>>>>>>>>>>>>>>>>>>//
  //               DFMP2               //
  //<<<<<<<<<<<<<<<<<<<<<<<<<<<<<<<<<<<//

   => Loading Basis Set <=

    Name: (6-31G AUX)
    Role: RIFIT
    Keyword: DF_BASIS_MP2
    atoms 1 entry O          line   235 file /home/akrom/software/anaconda3/envs/ffpenv/share/psi4/basis/cc-pvdz-ri.gbs 
    atoms 2 entry C          line   159 file /home/akrom/software/anaconda3/envs/ffpenv/share/psi4/basis/cc-pvdz-ri.gbs 

	 --------------------------------------------------------
	                          DF-MP2                         
	      2nd-Order Density-Fitted Moller-Plesset Theory     
	              RMP2 Wavefunction,   1 Threads             
	                                                         
	        Rob Parrish, Justin Turney, Andy Simmonett,      
	           Ed Hohenstein, and C. David Sherrill          
	 --------------------------------------------------------

   => Auxiliary Basis Set <=

  Basis Set: (6-31G AUX)
    Blend: CC-PVDZ-RI
    Number of shells: 36
    Number of basis function: 112
    Number of Cartesian functions: 132
    Spherical Harmonics?: true
    Max angular momentum: 3

	 --------------------------------------------------------
	                 NBF =    18, NAUX =   112
	 --------------------------------------------------------
	   CLASS    FOCC     OCC    AOCC    AVIR     VIR    FVIR
	   PAIRS       0       7       7      11      11       0
	 --------------------------------------------------------

  DFHelper Memory: AOs need 0.001 GiB; user supplied 0.366 GiB. Using in-core AOs.


         ------------------------------------------------------------
                                     CPHF                           
                                  Rob Parrish                       
         ------------------------------------------------------------

  ==> Geometry <==

    Molecular point group: c2v
    Full point group: C_inf_v

    Geometry (in Angstrom), charge = 0, multiplicity = 1:

       Center              X                  Y                   Z               Mass       
    ------------   -----------------  -----------------  -----------------  -----------------
         O            0.000000000000     0.000000000000     0.491090413658    15.994914619570
         C            0.000000000000     0.000000000000    -0.654579103079    12.000000000000

  Nuclear repulsion =   22.170884134640527
  Reference energy  = -112.666584073599410

  ==> Basis Set <==

  Basis Set: 6-31G
    Blend: 6-31G
    Number of shells: 10
    Number of basis function: 18
    Number of Cartesian functions: 18
    Spherical Harmonics?: false
    Max angular momentum: 1

  ==> CGRSolver (by Rob Parrish) <==

   Number of roots    =         1
   Preconditioning    =    JACOBI
   Convergence cutoff =     1E-06
   Maximum iterations =       100

  ==> CPHFRHamiltonian (by Rob Parrish) <== 

  ==> MemDFJK: Density-Fitted J/K Matrices <==

    J tasked:                   Yes
    K tasked:                   Yes
    wK tasked:                   No
    OpenMP threads:               1
    Memory [MiB]:               375
    Algorithm:                 Core
    Schwarz Cutoff:           1E-12
    Mask sparsity (%):       0.0000
    Fitting Condition:        1E-10

   => Auxiliary Basis Set <=

  Basis Set: (6-31G AUX)
    Blend: CC-PVDZ-JKFIT
    Number of shells: 48
    Number of basis function: 162
    Number of Cartesian functions: 162
    Spherical Harmonics?: false
    Max angular momentum: 3

  ==> CPHF Iterations <==

  => Iterations <=

             Iter  Converged  Remaining    Residual
  CGR           1          0          1   1.777E-01
  CGR           2          0          1   4.230E-02
  CGR           3          0          1   1.118E-02
  CGR           4          0          1   1.108E-03
  CGR           5          0          1   6.924E-05
  CGR           6          0          1   8.705E-06
  CGR           7          1          0   4.445E-07

    CGRSolver converged.

  ==> DFCorrGrad: Density-Fitted Correlated Gradients <==

    OpenMP threads:              1
    Integrals threads:           1
    Memory [GiB]:            0.366
    Schwarz Cutoff:          0E+00
    Fitting Condition:       1E-10

   => Auxiliary Basis Set <=

  Basis Set: (6-31G AUX)
    Blend: CC-PVDZ-JKFIT
    Number of shells: 48
    Number of basis function: 162
    Number of Cartesian functions: 162
    Spherical Harmonics?: false
    Max angular momentum: 3

	-----------------------------------------------------------
	 ==================> DF-MP2 Energies <==================== 
	-----------------------------------------------------------
	 Reference Energy          =    -112.6665840735994095 [Eh]
	 Singles Energy            =      -0.0000000000000000 [Eh]
	 Same-Spin Energy          =      -0.0586457923181563 [Eh]
	 Opposite-Spin Energy      =      -0.1568186176080074 [Eh]
	 Correlation Energy        =      -0.2154644099261638 [Eh]
	 Total Energy              =    -112.8820484835255797 [Eh]
	-----------------------------------------------------------
	 ================> DF-SCS-MP2 Energies <================== 
	-----------------------------------------------------------
	 SCS Same-Spin Scale       =       0.3333333333333333 [-]
	 SCS Opposite-Spin Scale   =       1.2000000000000000 [-]
	 SCS Same-Spin Energy      =      -0.0195485974393854 [Eh]
	 SCS Opposite-Spin Energy  =      -0.1881823411296089 [Eh]
	 SCS Correlation Energy    =      -0.2077309385689943 [Eh]
	 SCS Total Energy          =    -112.8743150121684096 [Eh]
	-----------------------------------------------------------


  -Total Gradient:
     Atom            X                  Y                   Z
    ------   -----------------  -----------------  -----------------
       1       -0.000000000000     0.000000000000    -0.062943748215
       2        0.000000000000     0.000000000000     0.062943748214


*** tstop() called on atlantis at Tue Apr 19 00:31:38 2022
Module time:
	user time   =       0.21 seconds =       0.00 minutes
	system time =       0.00 seconds =       0.00 minutes
	total time  =          0 seconds =       0.00 minutes
Total time:
	user time   =       1.89 seconds =       0.03 minutes
	system time =       0.03 seconds =       0.00 minutes
	total time  =          2 seconds =       0.03 minutes

  //>>>>>>>>>>>>>>>>>>>>>>>>>>>>>>>>>>>//
  //    Loading displacement 3 of 5    //
  //<<<<<<<<<<<<<<<<<<<<<<<<<<<<<<<<<<<//
gradient() will perform analytic gradient computation.
    SCF Algorithm Type (re)set to DF.

*** tstart() called on atlantis
*** at Tue Apr 19 00:31:38 2022

   => Loading Basis Set <=

    Name: 6-31G
    Role: ORBITAL
    Keyword: BASIS
    atoms 1 entry O          line   117 file /home/akrom/software/anaconda3/envs/ffpenv/share/psi4/basis/6-31g.gbs 
    atoms 2 entry C          line    87 file /home/akrom/software/anaconda3/envs/ffpenv/share/psi4/basis/6-31g.gbs 


         ---------------------------------------------------------
                                   SCF
               by Justin Turney, Rob Parrish, Andy Simmonett
                          and Daniel G. A. Smith
                              RHF Reference
                        1 Threads,    500 MiB Core
         ---------------------------------------------------------

  ==> Geometry <==

    Molecular point group: c2v
    Full point group: C_inf_v

    Geometry (in Angstrom), charge = 0, multiplicity = 1:

       Center              X                  Y                   Z               Mass       
    ------------   -----------------  -----------------  -----------------  -----------------
         O            0.000000000000     0.000000000000     0.491956699505    15.994914619570
         C            0.000000000000     0.000000000000    -0.655733783759    12.000000000000

  Running in c2v symmetry.

  Rotational constants: A = ************  B =      1.86665  C =      1.86665 [cm^-1]
  Rotational constants: A = ************  B =  55960.76123  C =  55960.76123 [MHz]
  Nuclear repulsion =   22.131843456554755

  Charge       = 0
  Multiplicity = 1
  Electrons    = 14
  Nalpha       = 7
  Nbeta        = 7

  ==> Algorithm <==

  SCF Algorithm Type is DF.
  DIIS enabled.
  MOM disabled.
  Fractional occupation disabled.
  Guess Type is SAD.
  Energy threshold   = 1.00e-10
  Density threshold  = 1.00e-10
  Integral threshold = 0.00e+00

  ==> Primary Basis <==

  Basis Set: 6-31G
    Blend: 6-31G
    Number of shells: 10
    Number of basis function: 18
    Number of Cartesian functions: 18
    Spherical Harmonics?: false
    Max angular momentum: 1

   => Loading Basis Set <=

    Name: (6-31G AUX)
    Role: JKFIT
    Keyword: DF_BASIS_SCF
    atoms 1 entry O          line   221 file /home/akrom/software/anaconda3/envs/ffpenv/share/psi4/basis/cc-pvdz-jkfit.gbs 
    atoms 2 entry C          line   121 file /home/akrom/software/anaconda3/envs/ffpenv/share/psi4/basis/cc-pvdz-jkfit.gbs 

  ==> Pre-Iterations <==

   -------------------------------------------------------
    Irrep   Nso     Nmo     Nalpha   Nbeta   Ndocc  Nsocc
   -------------------------------------------------------
     A1        10      10       0       0       0       0
     A2         0       0       0       0       0       0
     B1         4       4       0       0       0       0
     B2         4       4       0       0       0       0
   -------------------------------------------------------
    Total      18      18       7       7       7       0
   -------------------------------------------------------

  ==> Integral Setup <==

  DFHelper Memory: AOs need 0.001 GiB; user supplied 0.366 GiB. Using in-core AOs.

  ==> MemDFJK: Density-Fitted J/K Matrices <==

    J tasked:                   Yes
    K tasked:                   Yes
    wK tasked:                   No
    OpenMP threads:               1
    Memory [MiB]:               375
    Algorithm:                 Core
    Schwarz Cutoff:           1E-12
    Mask sparsity (%):       0.0000
    Fitting Condition:        1E-10

   => Auxiliary Basis Set <=

  Basis Set: (6-31G AUX)
    Blend: CC-PVDZ-JKFIT
    Number of shells: 48
    Number of basis function: 162
    Number of Cartesian functions: 162
    Spherical Harmonics?: false
    Max angular momentum: 3

  Minimum eigenvalue in the overlap matrix is 2.2899956826E-02.
  Using Symmetric Orthogonalization.

  SCF Guess: Superposition of Atomic Densities via on-the-fly atomic UHF.

  ==> Iterations <==

                           Total Energy        Delta E     RMS |[F,P]|

   @DF-RHF iter SAD:  -111.84539179821023   -1.11845e+02   0.00000e+00 
   @DF-RHF iter   1:  -112.63532370733127   -7.89932e-01   2.35253e-02 DIIS
   @DF-RHF iter   2:  -112.64335645323411   -8.03275e-03   2.16670e-02 DIIS
   @DF-RHF iter   3:  -112.66626025759592   -2.29038e-02   1.47812e-03 DIIS
   @DF-RHF iter   4:  -112.66643326889108   -1.73011e-04   1.56819e-04 DIIS
   @DF-RHF iter   5:  -112.66643572252372   -2.45363e-06   4.15512e-05 DIIS
   @DF-RHF iter   6:  -112.66643585627706   -1.33753e-07   1.00392e-05 DIIS
   @DF-RHF iter   7:  -112.66643586708267   -1.08056e-08   1.93192e-06 DIIS
   @DF-RHF iter   8:  -112.66643586749471   -4.12044e-10   1.63474e-07 DIIS
   @DF-RHF iter   9:  -112.66643586749716   -2.44427e-12   1.28239e-08 DIIS
   @DF-RHF iter  10:  -112.66643586749713    2.84217e-14   1.09042e-09 DIIS
   @DF-RHF iter  11:  -112.66643586749716   -2.84217e-14   8.03705e-11 DIIS
  Energy and wave function converged.


  ==> Post-Iterations <==

    Orbital Energies [Eh]
    ---------------------

    Doubly Occupied:                                                      

       1A1   -20.686372     2A1   -11.403276     3A1    -1.546896  
       4A1    -0.795916     1B1    -0.634092     1B2    -0.634092  
       5A1    -0.552603  

    Virtual:                                                              

       2B2     0.134933     2B1     0.134933     6A1     0.402884  
       3B2     0.727915     3B1     0.727915     7A1     0.769456  
       8A1     0.994989     9A1     1.190419     4B1     1.205366  
       4B2     1.205366    10A1     1.836916  

    Final Occupation by Irrep:
             A1    A2    B1    B2 
    DOCC [     5,    0,    1,    1 ]

  @DF-RHF Final Energy:  -112.66643586749716

   => Energetics <=

    Nuclear Repulsion Energy =             22.1318434565547548
    One-Electron Energy =                -197.0900678280020486
    Two-Electron Energy =                  62.2917885039501442
    Total Energy =                       -112.6664358674971567

Computation Completed


Properties will be evaluated at   0.000000,   0.000000,   0.000000 [a0]

Properties computed using the SCF density matrix

  Nuclear Dipole Moment: [e a0]
     X:     0.0000      Y:     0.0000      Z:     0.0024

  Electronic Dipole Moment: [e a0]
     X:     0.0000      Y:     0.0000      Z:    -0.2606

  Dipole Moment: [e a0]
     X:     0.0000      Y:     0.0000      Z:    -0.2582     Total:     0.2582

  Dipole Moment: [D]
     X:     0.0000      Y:     0.0000      Z:    -0.6563     Total:     0.6563


*** tstop() called on atlantis at Tue Apr 19 00:31:38 2022
Module time:
	user time   =       0.23 seconds =       0.00 minutes
	system time =       0.00 seconds =       0.00 minutes
	total time  =          0 seconds =       0.00 minutes
Total time:
	user time   =       2.12 seconds =       0.04 minutes
	system time =       0.03 seconds =       0.00 minutes
	total time  =          2 seconds =       0.03 minutes

*** tstart() called on atlantis
*** at Tue Apr 19 00:31:38 2022


  //>>>>>>>>>>>>>>>>>>>>>>>>>>>>>>>>>>>//
  //               DFMP2               //
  //<<<<<<<<<<<<<<<<<<<<<<<<<<<<<<<<<<<//

   => Loading Basis Set <=

    Name: (6-31G AUX)
    Role: RIFIT
    Keyword: DF_BASIS_MP2
    atoms 1 entry O          line   235 file /home/akrom/software/anaconda3/envs/ffpenv/share/psi4/basis/cc-pvdz-ri.gbs 
    atoms 2 entry C          line   159 file /home/akrom/software/anaconda3/envs/ffpenv/share/psi4/basis/cc-pvdz-ri.gbs 

	 --------------------------------------------------------
	                          DF-MP2                         
	      2nd-Order Density-Fitted Moller-Plesset Theory     
	              RMP2 Wavefunction,   1 Threads             
	                                                         
	        Rob Parrish, Justin Turney, Andy Simmonett,      
	           Ed Hohenstein, and C. David Sherrill          
	 --------------------------------------------------------

   => Auxiliary Basis Set <=

  Basis Set: (6-31G AUX)
    Blend: CC-PVDZ-RI
    Number of shells: 36
    Number of basis function: 112
    Number of Cartesian functions: 132
    Spherical Harmonics?: true
    Max angular momentum: 3

	 --------------------------------------------------------
	                 NBF =    18, NAUX =   112
	 --------------------------------------------------------
	   CLASS    FOCC     OCC    AOCC    AVIR     VIR    FVIR
	   PAIRS       0       7       7      11      11       0
	 --------------------------------------------------------

  DFHelper Memory: AOs need 0.001 GiB; user supplied 0.366 GiB. Using in-core AOs.


         ------------------------------------------------------------
                                     CPHF                           
                                  Rob Parrish                       
         ------------------------------------------------------------

  ==> Geometry <==

    Molecular point group: c2v
    Full point group: C_inf_v

    Geometry (in Angstrom), charge = 0, multiplicity = 1:

       Center              X                  Y                   Z               Mass       
    ------------   -----------------  -----------------  -----------------  -----------------
         O            0.000000000000     0.000000000000     0.491956699505    15.994914619570
         C            0.000000000000     0.000000000000    -0.655733783759    12.000000000000

  Nuclear repulsion =   22.131843456554755
  Reference energy  = -112.666435867497157

  ==> Basis Set <==

  Basis Set: 6-31G
    Blend: 6-31G
    Number of shells: 10
    Number of basis function: 18
    Number of Cartesian functions: 18
    Spherical Harmonics?: false
    Max angular momentum: 1

  ==> CGRSolver (by Rob Parrish) <==

   Number of roots    =         1
   Preconditioning    =    JACOBI
   Convergence cutoff =     1E-06
   Maximum iterations =       100

  ==> CPHFRHamiltonian (by Rob Parrish) <== 

  ==> MemDFJK: Density-Fitted J/K Matrices <==

    J tasked:                   Yes
    K tasked:                   Yes
    wK tasked:                   No
    OpenMP threads:               1
    Memory [MiB]:               375
    Algorithm:                 Core
    Schwarz Cutoff:           1E-12
    Mask sparsity (%):       0.0000
    Fitting Condition:        1E-10

   => Auxiliary Basis Set <=

  Basis Set: (6-31G AUX)
    Blend: CC-PVDZ-JKFIT
    Number of shells: 48
    Number of basis function: 162
    Number of Cartesian functions: 162
    Spherical Harmonics?: false
    Max angular momentum: 3

  ==> CPHF Iterations <==

  => Iterations <=

             Iter  Converged  Remaining    Residual
  CGR           1          0          1   1.783E-01
  CGR           2          0          1   4.266E-02
  CGR           3          0          1   1.130E-02
  CGR           4          0          1   1.117E-03
  CGR           5          0          1   6.965E-05
  CGR           6          0          1   8.813E-06
  CGR           7          1          0   4.503E-07

    CGRSolver converged.

  ==> DFCorrGrad: Density-Fitted Correlated Gradients <==

    OpenMP threads:              1
    Integrals threads:           1
    Memory [GiB]:            0.366
    Schwarz Cutoff:          0E+00
    Fitting Condition:       1E-10

   => Auxiliary Basis Set <=

  Basis Set: (6-31G AUX)
    Blend: CC-PVDZ-JKFIT
    Number of shells: 48
    Number of basis function: 162
    Number of Cartesian functions: 162
    Spherical Harmonics?: false
    Max angular momentum: 3

	-----------------------------------------------------------
	 ==================> DF-MP2 Energies <==================== 
	-----------------------------------------------------------
	 Reference Energy          =    -112.6664358674971567 [Eh]
	 Singles Energy            =      -0.0000000000000000 [Eh]
	 Same-Spin Energy          =      -0.0587647499974886 [Eh]
	 Opposite-Spin Energy      =      -0.1570795661836904 [Eh]
	 Correlation Energy        =      -0.2158443161811790 [Eh]
	 Total Energy              =    -112.8822801836783327 [Eh]
	-----------------------------------------------------------
	 ================> DF-SCS-MP2 Energies <================== 
	-----------------------------------------------------------
	 SCS Same-Spin Scale       =       0.3333333333333333 [-]
	 SCS Opposite-Spin Scale   =       1.2000000000000000 [-]
	 SCS Same-Spin Energy      =      -0.0195882499991629 [Eh]
	 SCS Opposite-Spin Energy  =      -0.1884954794204284 [Eh]
	 SCS Correlation Energy    =      -0.2080837294195913 [Eh]
	 SCS Total Energy          =    -112.8745195969167412 [Eh]
	-----------------------------------------------------------


  -Total Gradient:
     Atom            X                  Y                   Z
    ------   -----------------  -----------------  -----------------
       1        0.000000000000     0.000000000000    -0.058405474312
       2       -0.000000000000     0.000000000000     0.058405474311


*** tstop() called on atlantis at Tue Apr 19 00:31:39 2022
Module time:
	user time   =       0.20 seconds =       0.00 minutes
	system time =       0.01 seconds =       0.00 minutes
	total time  =          1 seconds =       0.02 minutes
Total time:
	user time   =       2.32 seconds =       0.04 minutes
	system time =       0.04 seconds =       0.00 minutes
	total time  =          3 seconds =       0.05 minutes

  //>>>>>>>>>>>>>>>>>>>>>>>>>>>>>>>>>>>//
  //    Loading displacement 4 of 5    //
  //<<<<<<<<<<<<<<<<<<<<<<<<<<<<<<<<<<<//
gradient() will perform analytic gradient computation.
    SCF Algorithm Type (re)set to DF.

*** tstart() called on atlantis
*** at Tue Apr 19 00:31:39 2022

   => Loading Basis Set <=

    Name: 6-31G
    Role: ORBITAL
    Keyword: BASIS
    atoms 1 entry O          line   117 file /home/akrom/software/anaconda3/envs/ffpenv/share/psi4/basis/6-31g.gbs 
    atoms 2 entry C          line    87 file /home/akrom/software/anaconda3/envs/ffpenv/share/psi4/basis/6-31g.gbs 


         ---------------------------------------------------------
                                   SCF
               by Justin Turney, Rob Parrish, Andy Simmonett
                          and Daniel G. A. Smith
                              RHF Reference
                        1 Threads,    500 MiB Core
         ---------------------------------------------------------

  ==> Geometry <==

    Molecular point group: cs
    Full point group: C_inf_v

    Geometry (in Angstrom), charge = 0, multiplicity = 1:

       Center              X                  Y                   Z               Mass       
    ------------   -----------------  -----------------  -----------------  -----------------
         O           -0.000433142923     0.000000000000     0.491523556581    15.994914619570
         C            0.000577340340     0.000000000000    -0.655156443419    12.000000000000

  Running in cs symmetry.

  Rotational constants: A = ************  B =      1.86994  C =      1.86994 [cm^-1]
  Rotational constants: A = ************  B =  56059.38921  C =  56059.38921 [MHz]
  Nuclear repulsion =   22.151337992888561

  Charge       = 0
  Multiplicity = 1
  Electrons    = 14
  Nalpha       = 7
  Nbeta        = 7

  ==> Algorithm <==

  SCF Algorithm Type is DF.
  DIIS enabled.
  MOM disabled.
  Fractional occupation disabled.
  Guess Type is SAD.
  Energy threshold   = 1.00e-10
  Density threshold  = 1.00e-10
  Integral threshold = 0.00e+00

  ==> Primary Basis <==

  Basis Set: 6-31G
    Blend: 6-31G
    Number of shells: 10
    Number of basis function: 18
    Number of Cartesian functions: 18
    Spherical Harmonics?: false
    Max angular momentum: 1

   => Loading Basis Set <=

    Name: (6-31G AUX)
    Role: JKFIT
    Keyword: DF_BASIS_SCF
    atoms 1 entry O          line   221 file /home/akrom/software/anaconda3/envs/ffpenv/share/psi4/basis/cc-pvdz-jkfit.gbs 
    atoms 2 entry C          line   121 file /home/akrom/software/anaconda3/envs/ffpenv/share/psi4/basis/cc-pvdz-jkfit.gbs 

  ==> Pre-Iterations <==

   -------------------------------------------------------
    Irrep   Nso     Nmo     Nalpha   Nbeta   Ndocc  Nsocc
   -------------------------------------------------------
     A'        14      14       0       0       0       0
     A"         4       4       0       0       0       0
   -------------------------------------------------------
    Total      18      18       7       7       7       0
   -------------------------------------------------------

  ==> Integral Setup <==

  DFHelper Memory: AOs need 0.001 GiB; user supplied 0.366 GiB. Using in-core AOs.

  ==> MemDFJK: Density-Fitted J/K Matrices <==

    J tasked:                   Yes
    K tasked:                   Yes
    wK tasked:                   No
    OpenMP threads:               1
    Memory [MiB]:               375
    Algorithm:                 Core
    Schwarz Cutoff:           1E-12
    Mask sparsity (%):       0.0000
    Fitting Condition:        1E-10

   => Auxiliary Basis Set <=

  Basis Set: (6-31G AUX)
    Blend: CC-PVDZ-JKFIT
    Number of shells: 48
    Number of basis function: 162
    Number of Cartesian functions: 162
    Spherical Harmonics?: false
    Max angular momentum: 3

  Minimum eigenvalue in the overlap matrix is 2.2846200738E-02.
  Using Symmetric Orthogonalization.

  SCF Guess: Superposition of Atomic Densities via on-the-fly atomic UHF.

  ==> Iterations <==

                           Total Energy        Delta E     RMS |[F,P]|

   @DF-RHF iter SAD:  -111.84772585371168   -1.11848e+02   0.00000e+00 
   @DF-RHF iter   1:  -112.63553447753202   -7.87809e-01   1.85283e-02 DIIS
   @DF-RHF iter   2:  -112.64362110575875   -8.08663e-03   1.70307e-02 DIIS
   @DF-RHF iter   3:  -112.66633672061212   -2.27156e-02   1.16592e-03 DIIS
   @DF-RHF iter   4:  -112.66650955843832   -1.72838e-04   1.23591e-04 DIIS
   @DF-RHF iter   5:  -112.66651200648097   -2.44804e-06   3.29919e-05 DIIS
   @DF-RHF iter   6:  -112.66651214187711   -1.35396e-07   7.99412e-06 DIIS
   @DF-RHF iter   7:  -112.66651215286981   -1.09927e-08   1.52347e-06 DIIS
   @DF-RHF iter   8:  -112.66651215327991   -4.10097e-10   1.27733e-07 DIIS
   @DF-RHF iter   9:  -112.66651215328230   -2.38742e-12   1.00483e-08 DIIS
   @DF-RHF iter  10:  -112.66651215328227    2.84217e-14   8.54837e-10 DIIS
   @DF-RHF iter  11:  -112.66651215328227    0.00000e+00   6.31882e-11 DIIS
  Energy and wave function converged.


  ==> Post-Iterations <==

    Orbital Energies [Eh]
    ---------------------

    Doubly Occupied:                                                      

       1Ap   -20.686368     2Ap   -11.402923     3Ap    -1.547644  
       4Ap    -0.795973     1App   -0.634521     5Ap    -0.634521  
       6Ap    -0.552514  

    Virtual:                                                              

       2App    0.135355     7Ap     0.135355     8Ap     0.402987  
       9Ap     0.727926     3App    0.727926    10Ap     0.769585  
      11Ap     0.995978    12Ap     1.191328     4App    1.205396  
      13Ap     1.205396    14Ap     1.837221  

    Final Occupation by Irrep:
             Ap   App 
    DOCC [     6,    1 ]

  @DF-RHF Final Energy:  -112.66651215328227

   => Energetics <=

    Nuclear Repulsion Energy =             22.1513379928885605
    One-Electron Energy =                -197.1267761646836050
    Two-Electron Energy =                  62.3089260185127785
    Total Energy =                       -112.6665121532822695

Computation Completed


Properties will be evaluated at   0.000000,   0.000000,   0.000000 [a0]

Properties computed using the SCF density matrix

  Nuclear Dipole Moment: [e a0]
     X:    -0.0000      Y:     0.0000      Z:     0.0024

  Electronic Dipole Moment: [e a0]
     X:     0.0002      Y:     0.0000      Z:    -0.2586

  Dipole Moment: [e a0]
     X:     0.0002      Y:     0.0000      Z:    -0.2563     Total:     0.2563

  Dipole Moment: [D]
     X:     0.0006      Y:     0.0000      Z:    -0.6514     Total:     0.6514


*** tstop() called on atlantis at Tue Apr 19 00:31:39 2022
Module time:
	user time   =       0.21 seconds =       0.00 minutes
	system time =       0.00 seconds =       0.00 minutes
	total time  =          0 seconds =       0.00 minutes
Total time:
	user time   =       2.54 seconds =       0.04 minutes
	system time =       0.04 seconds =       0.00 minutes
	total time  =          3 seconds =       0.05 minutes

*** tstart() called on atlantis
*** at Tue Apr 19 00:31:39 2022


  //>>>>>>>>>>>>>>>>>>>>>>>>>>>>>>>>>>>//
  //               DFMP2               //
  //<<<<<<<<<<<<<<<<<<<<<<<<<<<<<<<<<<<//

   => Loading Basis Set <=

    Name: (6-31G AUX)
    Role: RIFIT
    Keyword: DF_BASIS_MP2
    atoms 1 entry O          line   235 file /home/akrom/software/anaconda3/envs/ffpenv/share/psi4/basis/cc-pvdz-ri.gbs 
    atoms 2 entry C          line   159 file /home/akrom/software/anaconda3/envs/ffpenv/share/psi4/basis/cc-pvdz-ri.gbs 

	 --------------------------------------------------------
	                          DF-MP2                         
	      2nd-Order Density-Fitted Moller-Plesset Theory     
	              RMP2 Wavefunction,   1 Threads             
	                                                         
	        Rob Parrish, Justin Turney, Andy Simmonett,      
	           Ed Hohenstein, and C. David Sherrill          
	 --------------------------------------------------------

   => Auxiliary Basis Set <=

  Basis Set: (6-31G AUX)
    Blend: CC-PVDZ-RI
    Number of shells: 36
    Number of basis function: 112
    Number of Cartesian functions: 132
    Spherical Harmonics?: true
    Max angular momentum: 3

	 --------------------------------------------------------
	                 NBF =    18, NAUX =   112
	 --------------------------------------------------------
	   CLASS    FOCC     OCC    AOCC    AVIR     VIR    FVIR
	   PAIRS       0       7       7      11      11       0
	 --------------------------------------------------------

  DFHelper Memory: AOs need 0.001 GiB; user supplied 0.366 GiB. Using in-core AOs.


         ------------------------------------------------------------
                                     CPHF                           
                                  Rob Parrish                       
         ------------------------------------------------------------

  ==> Geometry <==

    Molecular point group: cs
    Full point group: C_inf_v

    Geometry (in Angstrom), charge = 0, multiplicity = 1:

       Center              X                  Y                   Z               Mass       
    ------------   -----------------  -----------------  -----------------  -----------------
         O           -0.000433142923     0.000000000000     0.491523556581    15.994914619570
         C            0.000577340340     0.000000000000    -0.655156443419    12.000000000000

  Nuclear repulsion =   22.151337992888561
  Reference energy  = -112.666512153282270

  ==> Basis Set <==

  Basis Set: 6-31G
    Blend: 6-31G
    Number of shells: 10
    Number of basis function: 18
    Number of Cartesian functions: 18
    Spherical Harmonics?: false
    Max angular momentum: 1

  ==> CGRSolver (by Rob Parrish) <==

   Number of roots    =         1
   Preconditioning    =    JACOBI
   Convergence cutoff =     1E-06
   Maximum iterations =       100

  ==> CPHFRHamiltonian (by Rob Parrish) <== 

  ==> MemDFJK: Density-Fitted J/K Matrices <==

    J tasked:                   Yes
    K tasked:                   Yes
    wK tasked:                   No
    OpenMP threads:               1
    Memory [MiB]:               375
    Algorithm:                 Core
    Schwarz Cutoff:           1E-12
    Mask sparsity (%):       0.0000
    Fitting Condition:        1E-10

   => Auxiliary Basis Set <=

  Basis Set: (6-31G AUX)
    Blend: CC-PVDZ-JKFIT
    Number of shells: 48
    Number of basis function: 162
    Number of Cartesian functions: 162
    Spherical Harmonics?: false
    Max angular momentum: 3

  ==> CPHF Iterations <==

  => Iterations <=

             Iter  Converged  Remaining    Residual
  CGR           1          0          1   1.780E-01
  CGR           2          0          1   4.248E-02
  CGR           3          0          1   1.124E-02
  CGR           4          0          1   1.112E-03
  CGR           5          0          1   6.944E-05
  CGR           6          0          1   8.759E-06
  CGR           7          1          0   4.474E-07

    CGRSolver converged.

  ==> DFCorrGrad: Density-Fitted Correlated Gradients <==

    OpenMP threads:              1
    Integrals threads:           1
    Memory [GiB]:            0.366
    Schwarz Cutoff:          0E+00
    Fitting Condition:       1E-10

   => Auxiliary Basis Set <=

  Basis Set: (6-31G AUX)
    Blend: CC-PVDZ-JKFIT
    Number of shells: 48
    Number of basis function: 162
    Number of Cartesian functions: 162
    Spherical Harmonics?: false
    Max angular momentum: 3

	-----------------------------------------------------------
	 ==================> DF-MP2 Energies <==================== 
	-----------------------------------------------------------
	 Reference Energy          =    -112.6665121532822695 [Eh]
	 Singles Energy            =      -0.0000000000000000 [Eh]
	 Same-Spin Energy          =      -0.0587052758629275 [Eh]
	 Opposite-Spin Energy      =      -0.1569491220334513 [Eh]
	 Correlation Energy        =      -0.2156543978963788 [Eh]
	 Total Energy              =    -112.8821665511786421 [Eh]
	-----------------------------------------------------------
	 ================> DF-SCS-MP2 Energies <================== 
	-----------------------------------------------------------
	 SCS Same-Spin Scale       =       0.3333333333333333 [-]
	 SCS Opposite-Spin Scale   =       1.2000000000000000 [-]
	 SCS Same-Spin Energy      =      -0.0195684252876425 [Eh]
	 SCS Opposite-Spin Energy  =      -0.1883389464401416 [Eh]
	 SCS Correlation Energy    =      -0.2079073717277841 [Eh]
	 SCS Total Energy          =    -112.8744195250100546 [Eh]
	-----------------------------------------------------------


  -Total Gradient:
     Atom            X                  Y                   Z
[...]

    Molecular point group: cs
    Full point group: C_inf_v

    Geometry (in Angstrom), charge = 0, multiplicity = 1:

       Center              X                  Y                   Z               Mass       
    ------------   -----------------  -----------------  -----------------  -----------------
         O            0.000000000000    -0.000433142923     0.491523556581    15.994914619570
         C            0.000000000000     0.000577340340    -0.655156443419    12.000000000000

  Running in cs symmetry.

  Rotational constants: A = ************  B =      1.86994  C =      1.86994 [cm^-1]
  Rotational constants: A = ************  B =  56059.38921  C =  56059.38921 [MHz]
  Nuclear repulsion =   22.151337992888561

  Charge       = 0
  Multiplicity = 1
  Electrons    = 14
  Nalpha       = 7
  Nbeta        = 7

  ==> Algorithm <==

  SCF Algorithm Type is DF.
  DIIS enabled.
  MOM disabled.
  Fractional occupation disabled.
  Guess Type is SAD.
  Energy threshold   = 1.00e-10
  Density threshold  = 1.00e-10
  Integral threshold = 0.00e+00

  ==> Primary Basis <==

  Basis Set: 6-31G
    Blend: 6-31G
    Number of shells: 10
    Number of basis function: 18
    Number of Cartesian functions: 18
    Spherical Harmonics?: false
    Max angular momentum: 1

   => Loading Basis Set <=

    Name: (6-31G AUX)
    Role: JKFIT
    Keyword: DF_BASIS_SCF
    atoms 1 entry O          line   221 file /home/akrom/software/anaconda3/envs/ffpenv/share/psi4/basis/cc-pvdz-jkfit.gbs 
    atoms 2 entry C          line   121 file /home/akrom/software/anaconda3/envs/ffpenv/share/psi4/basis/cc-pvdz-jkfit.gbs 

  ==> Pre-Iterations <==

   -------------------------------------------------------
    Irrep   Nso     Nmo     Nalpha   Nbeta   Ndocc  Nsocc
   -------------------------------------------------------
     A'        14      14       0       0       0       0
     A"         4       4       0       0       0       0
   -------------------------------------------------------
    Total      18      18       7       7       7       0
   -------------------------------------------------------

  ==> Integral Setup <==

  DFHelper Memory: AOs need 0.001 GiB; user supplied 0.366 GiB. Using in-core AOs.

  ==> MemDFJK: Density-Fitted J/K Matrices <==

    J tasked:                   Yes
    K tasked:                   Yes
    wK tasked:                   No
    OpenMP threads:               1
    Memory [MiB]:               375
    Algorithm:                 Core
    Schwarz Cutoff:           1E-12
    Mask sparsity (%):       0.0000
    Fitting Condition:        1E-10

   => Auxiliary Basis Set <=

  Basis Set: (6-31G AUX)
    Blend: CC-PVDZ-JKFIT
    Number of shells: 48
    Number of basis function: 162
    Number of Cartesian functions: 162
    Spherical Harmonics?: false
    Max angular momentum: 3

  Minimum eigenvalue in the overlap matrix is 2.2846200738E-02.
  Using Symmetric Orthogonalization.

  SCF Guess: Superposition of Atomic Densities via on-the-fly atomic UHF.

  ==> Iterations <==

                           Total Energy        Delta E     RMS |[F,P]|

   @DF-RHF iter SAD:  -111.84772585371830   -1.11848e+02   0.00000e+00 
   @DF-RHF iter   1:  -112.63553447753772   -7.87809e-01   1.85283e-02 DIIS
   @DF-RHF iter   2:  -112.64362110576448   -8.08663e-03   1.70307e-02 DIIS
   @DF-RHF iter   3:  -112.66633672061879   -2.27156e-02   1.16592e-03 DIIS
   @DF-RHF iter   4:  -112.66650955844506   -1.72838e-04   1.23591e-04 DIIS
   @DF-RHF iter   5:  -112.66651200648779   -2.44804e-06   3.29919e-05 DIIS
   @DF-RHF iter   6:  -112.66651214188383   -1.35396e-07   7.99412e-06 DIIS
   @DF-RHF iter   7:  -112.66651215287642   -1.09926e-08   1.52347e-06 DIIS
   @DF-RHF iter   8:  -112.66651215328656   -4.10139e-10   1.27733e-07 DIIS
   @DF-RHF iter   9:  -112.66651215328902   -2.45848e-12   1.00483e-08 DIIS
   @DF-RHF iter  10:  -112.66651215328906   -4.26326e-14   8.54837e-10 DIIS
   @DF-RHF iter  11:  -112.66651215328898    8.52651e-14   6.31884e-11 DIIS
  Energy and wave function converged.


  ==> Post-Iterations <==

    Orbital Energies [Eh]
    ---------------------

    Doubly Occupied:                                                      

       1Ap   -20.686368     2Ap   -11.402923     3Ap    -1.547644  
       4Ap    -0.795973     1App   -0.634521     5Ap    -0.634521  
       6Ap    -0.552514  

    Virtual:                                                              

       2App    0.135355     7Ap     0.135355     8Ap     0.402987  
       9Ap     0.727926     3App    0.727926    10Ap     0.769585  
      11Ap     0.995978    12Ap     1.191328    13Ap     1.205396  
       4App    1.205396    14Ap     1.837221  

    Final Occupation by Irrep:
             Ap   App 
    DOCC [     6,    1 ]

  @DF-RHF Final Energy:  -112.66651215328898

   => Energetics <=

    Nuclear Repulsion Energy =             22.1513379928885605
    One-Electron Energy =                -197.1267761646848271
    Two-Electron Energy =                  62.3089260185073002
    Total Energy =                       -112.6665121532889771

Computation Completed


Properties will be evaluated at   0.000000,   0.000000,   0.000000 [a0]

Properties computed using the SCF density matrix

  Nuclear Dipole Moment: [e a0]
     X:     0.0000      Y:    -0.0000      Z:     0.0024

  Electronic Dipole Moment: [e a0]
     X:     0.0000      Y:     0.0002      Z:    -0.2586

  Dipole Moment: [e a0]
     X:     0.0000      Y:     0.0002      Z:    -0.2563     Total:     0.2563

  Dipole Moment: [D]
     X:     0.0000      Y:     0.0006      Z:    -0.6514     Total:     0.6514


*** tstop() called on atlantis at Tue Apr 19 00:31:39 2022
Module time:
	user time   =       0.21 seconds =       0.00 minutes
	system time =       0.00 seconds =       0.00 minutes
	total time  =          0 seconds =       0.00 minutes
Total time:
	user time   =       2.96 seconds =       0.05 minutes
	system time =       0.04 seconds =       0.00 minutes
	total time  =          3 seconds =       0.05 minutes

*** tstart() called on atlantis
*** at Tue Apr 19 00:31:39 2022


  //>>>>>>>>>>>>>>>>>>>>>>>>>>>>>>>>>>>//
  //               DFMP2               //
  //<<<<<<<<<<<<<<<<<<<<<<<<<<<<<<<<<<<//

   => Loading Basis Set <=

    Name: (6-31G AUX)
    Role: RIFIT
    Keyword: DF_BASIS_MP2
    atoms 1 entry O          line   235 file /home/akrom/software/anaconda3/envs/ffpenv/share/psi4/basis/cc-pvdz-ri.gbs 
    atoms 2 entry C          line   159 file /home/akrom/software/anaconda3/envs/ffpenv/share/psi4/basis/cc-pvdz-ri.gbs 

	 --------------------------------------------------------
	                          DF-MP2                         
	      2nd-Order Density-Fitted Moller-Plesset Theory     
	              RMP2 Wavefunction,   1 Threads             
	                                                         
	        Rob Parrish, Justin Turney, Andy Simmonett,      
	           Ed Hohenstein, and C. David Sherrill          
	 --------------------------------------------------------

   => Auxiliary Basis Set <=

  Basis Set: (6-31G AUX)
    Blend: CC-PVDZ-RI
    Number of shells: 36
    Number of basis function: 112
    Number of Cartesian functions: 132
    Spherical Harmonics?: true
    Max angular momentum: 3

	 --------------------------------------------------------
	                 NBF =    18, NAUX =   112
	 --------------------------------------------------------
	   CLASS    FOCC     OCC    AOCC    AVIR     VIR    FVIR
	   PAIRS       0       7       7      11      11       0
	 --------------------------------------------------------

  DFHelper Memory: AOs need 0.001 GiB; user supplied 0.366 GiB. Using in-core AOs.


         ------------------------------------------------------------
                                     CPHF                           
                                  Rob Parrish                       
         ------------------------------------------------------------

  ==> Geometry <==

    Molecular point group: cs
    Full point group: C_inf_v

    Geometry (in Angstrom), charge = 0, multiplicity = 1:

       Center              X                  Y                   Z               Mass       
    ------------   -----------------  -----------------  -----------------  -----------------
         O            0.000000000000    -0.000433142923     0.491523556581    15.994914619570
         C            0.000000000000     0.000577340340    -0.655156443419    12.000000000000

  Nuclear repulsion =   22.151337992888561
  Reference energy  = -112.666512153288977

  ==> Basis Set <==

  Basis Set: 6-31G
    Blend: 6-31G
    Number of shells: 10
    Number of basis function: 18
    Number of Cartesian functions: 18
    Spherical Harmonics?: false
    Max angular momentum: 1

  ==> CGRSolver (by Rob Parrish) <==

   Number of roots    =         1
   Preconditioning    =    JACOBI
   Convergence cutoff =     1E-06
   Maximum iterations =       100

  ==> CPHFRHamiltonian (by Rob Parrish) <== 

  ==> MemDFJK: Density-Fitted J/K Matrices <==

    J tasked:                   Yes
    K tasked:                   Yes
    wK tasked:                   No
    OpenMP threads:               1
    Memory [MiB]:               375
    Algorithm:                 Core
    Schwarz Cutoff:           1E-12
    Mask sparsity (%):       0.0000
    Fitting Condition:        1E-10

   => Auxiliary Basis Set <=

  Basis Set: (6-31G AUX)
    Blend: CC-PVDZ-JKFIT
    Number of shells: 48
    Number of basis function: 162
    Number of Cartesian functions: 162
    Spherical Harmonics?: false
    Max angular momentum: 3

  ==> CPHF Iterations <==

  => Iterations <=

             Iter  Converged  Remaining    Residual
  CGR           1          0          1   1.780E-01
  CGR           2          0          1   4.248E-02
  CGR           3          0          1   1.124E-02
  CGR           4          0          1   1.112E-03
  CGR           5          0          1   6.944E-05
  CGR           6          0          1   8.759E-06
  CGR           7          1          0   4.474E-07

    CGRSolver converged.

  ==> DFCorrGrad: Density-Fitted Correlated Gradients <==

    OpenMP threads:              1
    Integrals threads:           1
    Memory [GiB]:            0.366
    Schwarz Cutoff:          0E+00
    Fitting Condition:       1E-10

   => Auxiliary Basis Set <=

  Basis Set: (6-31G AUX)
    Blend: CC-PVDZ-JKFIT
    Number of shells: 48
    Number of basis function: 162
    Number of Cartesian functions: 162
    Spherical Harmonics?: false
    Max angular momentum: 3

	-----------------------------------------------------------
	 ==================> DF-MP2 Energies <==================== 
	-----------------------------------------------------------
	 Reference Energy          =    -112.6665121532889771 [Eh]
	 Singles Energy            =      -0.0000000000000000 [Eh]
	 Same-Spin Energy          =      -0.0587052758628746 [Eh]
	 Opposite-Spin Energy      =      -0.1569491220333234 [Eh]
	 Correlation Energy        =      -0.2156543978961981 [Eh]
	 Total Energy              =    -112.8821665511851791 [Eh]
	-----------------------------------------------------------
	 ================> DF-SCS-MP2 Energies <================== 
	-----------------------------------------------------------
	 SCS Same-Spin Scale       =       0.3333333333333333 [-]
	 SCS Opposite-Spin Scale   =       1.2000000000000000 [-]
	 SCS Same-Spin Energy      =      -0.0195684252876249 [Eh]
	 SCS Opposite-Spin Energy  =      -0.1883389464399881 [Eh]
	 SCS Correlation Energy    =      -0.2079073717276130 [Eh]
	 SCS Total Energy          =    -112.8744195250165916 [Eh]
	-----------------------------------------------------------


  -Total Gradient:
     Atom            X                  Y                   Z
    ------   -----------------  -----------------  -----------------
       1        0.000000000000     0.000053459976    -0.060665513273
       2        0.000000000000    -0.000053459976     0.060665513273


*** tstop() called on atlantis at Tue Apr 19 00:31:39 2022
Module time:
	user time   =       0.21 seconds =       0.00 minutes
	system time =       0.00 seconds =       0.00 minutes
	total time  =          0 seconds =       0.00 minutes
Total time:
	user time   =       3.17 seconds =       0.05 minutes
	system time =       0.04 seconds =       0.00 minutes
	total time  =          3 seconds =       0.05 minutes

         ----------------------------------------------------------
                                   FINDIF
                     R. A. King and Jonathon Misiewicz
         ---------------------------------------------------------

  Computing second-derivative from gradients using projected, 
  symmetry-adapted, cartesian coordinates.

  5 gradients passed in, including the reference geometry.
  Generating complete list of displacements from unique ones.

    Operation 2 takes plus displacements of irrep B1 to minus ones.
    Operation 2 takes plus displacements of irrep B2 to minus ones.

-------------------------------------------------------------


  ==> Harmonic Vibrational Analysis <==

  non-mass-weighted Hessian:       Symmetric? True   Hermitian? True   Lin Dep Dim?  3 (0)
  projection of translations (True) and rotations (False) removed 3 degrees of freedom (5)
  total projector:                 Symmetric? True   Hermitian? True   Lin Dep Dim?  3 (3)
  mass-weighted Hessian:           Symmetric? True   Hermitian? True   Lin Dep Dim?  3 (0)
  pre-proj  low-frequency mode:    0.0000i [cm^-1]
  pre-proj  low-frequency mode:    0.0000i [cm^-1]
  pre-proj  low-frequency mode:    0.0000i [cm^-1]
  pre-proj  low-frequency mode:    0.0000  [cm^-1]
  pre-proj  low-frequency mode:    0.0000  [cm^-1]
  pre-proj  all modes:['328.4828i' '328.4828i' '0.0000i' '0.0000' '0.0000' '2140.0732']
  projected mass-weighted Hessian: Symmetric? True   Hermitian? True   Lin Dep Dim?  3 (3)
  post-proj low-frequency mode:  328.4828i [cm^-1] (V)
  post-proj low-frequency mode:  328.4828i [cm^-1] (V)
  post-proj low-frequency mode:    0.0000i [cm^-1] (TR)
  post-proj low-frequency mode:    0.0000i [cm^-1] (TR)
  post-proj low-frequency mode:    0.0000  [cm^-1] (TR)
  post-proj  all modes:['328.4828i' '328.4828i' '0.0000i' '0.0000i' '0.0000' '2140.0732']

  Note that "Vibration"s include 2 un-projected rotation-like modes.
  Vibration                       1                   2                   6           
  Freq [cm^-1]                328.4828i           328.4828i           2140.0732       
  Irrep                           B2                  B1                  A1          
  Reduced mass [u]             13.4388             13.4388             13.4388        
  Force const [mDyne/A]        -0.8543             -0.8543             36.2632        
  Turning point v=0 [a0]        0.0000              0.0000              0.0647        
  RMS dev v=0 [a0 u^1/2]        0.0000              0.0000              0.1677        
  Char temp [K]                 0.0000              0.0000            3079.0888       
  ----------------------------------------------------------------------------------
      1   O                0.00 -0.60  0.00   -0.60  0.00  0.00    0.00  0.00 -0.60   
      2   C                0.00  0.80  0.00    0.80  0.00  0.00    0.00  0.00  0.80   

  ==> Thermochemistry Components <==

  Entropy, S
    Electronic S            0.000 [cal/(mol K)]        0.000 [J/(mol K)]       0.00000000 [mEh/K] (multiplicity = 1)
    Translational S        35.923 [cal/(mol K)]      150.302 [J/(mol K)]       0.05724692 [mEh/K] (mol. weight = 27.9949 [u], P = 101325.00 [Pa])
    Rotational S           11.343 [cal/(mol K)]       47.458 [J/(mol K)]       0.01807582 [mEh/K] (symmetry no. = 1)
    Vibrational S           0.001 [cal/(mol K)]        0.003 [J/(mol K)]       0.00000117 [mEh/K]
  Total S                  47.266 [cal/(mol K)]      197.763 [J/(mol K)]       0.07532392 [mEh/K]
  Correction S              0.000 [cal/(mol K)]        0.000 [J/(mol K)]       0.00000000 [mEh/K]

  Constant volume heat capacity, Cv
    Electronic Cv           0.000 [cal/(mol K)]        0.000 [J/(mol K)]       0.00000000 [mEh/K]
    Translational Cv        2.981 [cal/(mol K)]       12.472 [J/(mol K)]       0.00475022 [mEh/K]
    Rotational Cv           1.987 [cal/(mol K)]        8.314 [J/(mol K)]       0.00316681 [mEh/K]
    Vibrational Cv          0.007 [cal/(mol K)]        0.029 [J/(mol K)]       0.00001105 [mEh/K]
  Total Cv                  4.975 [cal/(mol K)]       20.815 [J/(mol K)]       0.00792808 [mEh/K]
  Correction Cv             0.000 [cal/(mol K)]        0.000 [J/(mol K)]       0.00000000 [mEh/K]

  Constant pressure heat capacity, Cp
    Electronic Cp           0.000 [cal/(mol K)]        0.000 [J/(mol K)]       0.00000000 [mEh/K]
    Translational Cp        4.968 [cal/(mol K)]       20.786 [J/(mol K)]       0.00791703 [mEh/K]
    Rotational Cp           1.987 [cal/(mol K)]        8.314 [J/(mol K)]       0.00316681 [mEh/K]
    Vibrational Cp          0.007 [cal/(mol K)]        0.029 [J/(mol K)]       0.00001105 [mEh/K]
  Total Cp                  6.962 [cal/(mol K)]       29.130 [J/(mol K)]       0.01109489 [mEh/K]
  Correction Cp             0.000 [cal/(mol K)]        0.000 [J/(mol K)]       0.00000000 [mEh/K]

  ==> Thermochemistry Energy Analysis <==

  Raw electronic energy, E0
  Total E0, Electronic energy at well bottom at 0 [K]                 -112.88216650 [Eh]

  Zero-point energy, ZPE_vib = Sum_i nu_i / 2
    Electronic ZPE          0.000 [kcal/mol]        0.000 [kJ/mol]       0.00000000 [Eh]
    Translational ZPE       0.000 [kcal/mol]        0.000 [kJ/mol]       0.00000000 [Eh]
    Rotational ZPE          0.000 [kcal/mol]        0.000 [kJ/mol]       0.00000000 [Eh]
    Vibrational ZPE         3.059 [kcal/mol]       12.800 [kJ/mol]       0.00487545 [Eh]        1070.037 [cm^-1]
  Correction ZPE            3.059 [kcal/mol]       12.800 [kJ/mol]       0.00487545 [Eh]        1070.037 [cm^-1]
  Total ZPE, Electronic energy at 0 [K]                               -112.87729105 [Eh]

  Thermal Energy, E (includes ZPE)
    Electronic E            0.000 [kcal/mol]        0.000 [kJ/mol]       0.00000000 [Eh]
    Translational E         0.889 [kcal/mol]        3.718 [kJ/mol]       0.00141628 [Eh]
    Rotational E            0.592 [kcal/mol]        2.479 [kJ/mol]       0.00094418 [Eh]
    Vibrational E           3.060 [kcal/mol]       12.801 [kJ/mol]       0.00487576 [Eh]
  Correction E              4.541 [kcal/mol]       18.999 [kJ/mol]       0.00723623 [Eh]
  Total E, Electronic energy at  298.15 [K]                           -112.87493027 [Eh]

  Enthalpy, H_trans = E_trans + k_B * T
    Electronic H            0.000 [kcal/mol]        0.000 [kJ/mol]       0.00000000 [Eh]
    Translational H         1.481 [kcal/mol]        6.197 [kJ/mol]       0.00236046 [Eh]
    Rotational H            0.592 [kcal/mol]        2.479 [kJ/mol]       0.00094418 [Eh]
    Vibrational H           3.060 [kcal/mol]       12.801 [kJ/mol]       0.00487576 [Eh]
  Correction H              5.133 [kcal/mol]       21.478 [kJ/mol]       0.00818041 [Eh]
  Total H, Enthalpy at  298.15 [K]                                    -112.87398609 [Eh]

  Gibbs free energy, G = H - T * S
    Electronic G            0.000 [kcal/mol]        0.000 [kJ/mol]       0.00000000 [Eh]
    Translational G        -9.229 [kcal/mol]      -38.615 [kJ/mol]      -0.01470771 [Eh]
    Rotational G           -2.789 [kcal/mol]      -11.671 [kJ/mol]      -0.00444512 [Eh]
    Vibrational G           3.059 [kcal/mol]       12.800 [kJ/mol]       0.00487541 [Eh]
  Correction G             -8.959 [kcal/mol]      -37.485 [kJ/mol]      -0.01427742 [Eh]
  Total G, Free enthalpy at  298.15 [K]                               -112.89644392 [Eh]

    Psi4 stopped on: Tuesday, 19 April 2022 12:31AM
    Psi4 wall time for execution: 0:00:03.29

*** Psi4 exiting successfully. Buy a developer a beer!
