
    -----------------------------------------------------------------------
          Psi4: An Open-Source Ab Initio Electronic Structure Package
                               Psi4 1.3.2 release

                         Git: Rev {HEAD} ecbda83 


    R. M. Parrish, L. A. Burns, D. G. A. Smith, A. C. Simmonett,
    A. E. DePrince III, E. G. Hohenstein, U. Bozkaya, A. Yu. Sokolov,
    R. Di Remigio, R. M. Richard, J. F. Gonthier, A. M. James,
    H. R. McAlexander, A. Kumar, M. Saitow, X. Wang, B. P. Pritchard,
    P. Verma, H. F. Schaefer III, K. Patkowski, R. A. King, E. F. Valeev,
    F. A. Evangelista, J. M. Turney, T. D. Crawford, and C. D. Sherrill,
    J. Chem. Theory Comput. 13(7) pp 3185--3197 (2017).
    (doi: 10.1021/acs.jctc.7b00174)


                         Additional Contributions by
    P. Kraus, H. Kruse, M. H. Lechner, M. C. Schieber, R. A. Shaw,
    A. Alenaizan, R. Galvelis, Z. L. Glick, S. Lehtola, and J. P. Misiewicz

    -----------------------------------------------------------------------


    Psi4 started on: Tuesday, 19 April 2022 01:45AM

    Process ID: 25816
    Host:       atlantis
    PSIDATADIR: /home/akrom/software/anaconda3/envs/ffpenv/share/psi4
    Memory:     500.0 MiB
    Threads:    1
    
  ==> Input File <==

--------------------------------------------------------------------------
set basis  cc-pVTZ
molecule {
0 1
   C       -0.61446        0.00000        0.00000
   C        0.61446        0.00000        0.00000
   H       -1.68923        0.00000        0.00000
   H        1.68923        0.00000        0.00000
}
energy('MP2')
frequencies('MP2')
--------------------------------------------------------------------------
    SCF Algorithm Type (re)set to DF.

*** tstart() called on atlantis
*** at Tue Apr 19 01:45:26 2022

   => Loading Basis Set <=

    Name: CC-PVTZ
    Role: ORBITAL
    Keyword: BASIS
    atoms 1-2 entry C          line   186 file /home/akrom/software/anaconda3/envs/ffpenv/share/psi4/basis/cc-pvtz.gbs 
    atoms 3-4 entry H          line    23 file /home/akrom/software/anaconda3/envs/ffpenv/share/psi4/basis/cc-pvtz.gbs 


         ---------------------------------------------------------
                                   SCF
               by Justin Turney, Rob Parrish, Andy Simmonett
                          and Daniel G. A. Smith
                              RHF Reference
                        1 Threads,    500 MiB Core
         ---------------------------------------------------------

  ==> Geometry <==

    Molecular point group: d2h
    Full point group: D_inf_h

    Geometry (in Angstrom), charge = 0, multiplicity = 1:

       Center              X                  Y                   Z               Mass       
    ------------   -----------------  -----------------  -----------------  -----------------
         C           -0.614460000000    -0.000000000000     0.000000000000    12.000000000000
         C            0.614460000000     0.000000000000     0.000000000000    12.000000000000
         H           -1.689230000000    -0.000000000000     0.000000000000     1.007825032230
         H            1.689230000000     0.000000000000     0.000000000000     1.007825032230

  Running in d2h symmetry.

  Rotational constants: A = ************  B =      1.13802  C =      1.13802 [cm^-1]
  Rotational constants: A = ************  B =  34116.98697  C =  34116.98697 [MHz]
  Nuclear repulsion =   24.323218171379235

  Charge       = 0
  Multiplicity = 1
  Electrons    = 14
  Nalpha       = 7
  Nbeta        = 7

  ==> Algorithm <==

  SCF Algorithm Type is DF.
  DIIS enabled.
  MOM disabled.
  Fractional occupation disabled.
  Guess Type is SAD.
  Energy threshold   = 1.00e-08
  Density threshold  = 1.00e-08
  Integral threshold = 0.00e+00

  ==> Primary Basis <==

  Basis Set: CC-PVTZ
    Blend: CC-PVTZ
    Number of shells: 32
    Number of basis function: 88
    Number of Cartesian functions: 100
    Spherical Harmonics?: true
    Max angular momentum: 3

   => Loading Basis Set <=

    Name: (CC-PVTZ AUX)
    Role: JKFIT
    Keyword: DF_BASIS_SCF
    atoms 1-2 entry C          line   125 file /home/akrom/software/anaconda3/envs/ffpenv/share/psi4/basis/cc-pvtz-jkfit.gbs 
    atoms 3-4 entry H          line    51 file /home/akrom/software/anaconda3/envs/ffpenv/share/psi4/basis/cc-pvtz-jkfit.gbs 

  ==> Pre-Iterations <==

   -------------------------------------------------------
    Irrep   Nso     Nmo     Nalpha   Nbeta   Ndocc  Nsocc
   -------------------------------------------------------
     Ag        20      20       0       0       0       0
     B1g       10      10       0       0       0       0
     B2g       10      10       0       0       0       0
     B3g        4       4       0       0       0       0
     Au         4       4       0       0       0       0
     B1u       10      10       0       0       0       0
     B2u       10      10       0       0       0       0
     B3u       20      20       0       0       0       0
   -------------------------------------------------------
    Total      88      88       7       7       7       0
   -------------------------------------------------------

  ==> Integral Setup <==

  DFHelper Memory: AOs need 0.015 GiB; user supplied 0.366 GiB. Using in-core AOs.

  ==> MemDFJK: Density-Fitted J/K Matrices <==

    J tasked:                   Yes
    K tasked:                   Yes
    wK tasked:                   No
    OpenMP threads:               1
    Memory [MiB]:               375
    Algorithm:                 Core
    Schwarz Cutoff:           1E-12
    Mask sparsity (%):       0.1033
    Fitting Condition:        1E-10

   => Auxiliary Basis Set <=

  Basis Set: (CC-PVTZ AUX)
    Blend: CC-PVTZ-JKFIT
    Number of shells: 70
    Number of basis function: 218
    Number of Cartesian functions: 262
    Spherical Harmonics?: true
    Max angular momentum: 4

  Minimum eigenvalue in the overlap matrix is 1.4146724323E-04.
  Using Symmetric Orthogonalization.

  SCF Guess: Superposition of Atomic Densities via on-the-fly atomic UHF.

  ==> Iterations <==

                           Total Energy        Delta E     RMS |[F,P]|

   @DF-RHF iter SAD:   -75.89507625649381   -7.58951e+01   0.00000e+00 
   @DF-RHF iter   1:   -76.80615378356157   -9.11078e-01   7.81144e-03 DIIS
   @DF-RHF iter   2:   -76.84056278746620   -3.44090e-02   2.66569e-03 DIIS
   @DF-RHF iter   3:   -76.84480391923567   -4.24113e-03   3.33375e-04 DIIS
   @DF-RHF iter   4:   -76.84494831257481   -1.44393e-04   4.09784e-05 DIIS
   @DF-RHF iter   5:   -76.84495058282556   -2.27025e-06   7.00583e-06 DIIS
   @DF-RHF iter   6:   -76.84495064691613   -6.40906e-08   1.23598e-06 DIIS
   @DF-RHF iter   7:   -76.84495064913321   -2.21708e-09   1.72282e-07 DIIS
   @DF-RHF iter   8:   -76.84495064917873   -4.55174e-11   1.56319e-08 DIIS
   @DF-RHF iter   9:   -76.84495064917915   -4.26326e-13   1.61023e-09 DIIS
  Energy and wave function converged.


  ==> Post-Iterations <==

    Orbital Energies [Eh]
    ---------------------

    Doubly Occupied:                                                      

       1Ag   -11.251007     1B3u  -11.247755     2Ag    -1.020469  
       2B3u   -0.765345     3Ag    -0.674971     1B1u   -0.403734  
       1B2u   -0.403734  

    Virtual:                                                              

       3B3u    0.149005     4Ag     0.170472     1B2g    0.170701  
       1B1g    0.170701     5Ag     0.311570     4B3u    0.397229  
       2B1u    0.437079     2B2u    0.437079     5B3u    0.512902  
       2B1g    0.570539     2B2g    0.570539     6Ag     0.601564  
       7Ag     0.772297     8Ag     0.772893     1B3g    0.772893  
       3B2u    0.796736     3B1u    0.796736     6B3u    0.934340  
       7B3u    1.060070     3B2g    1.061314     3B1g    1.061314  
       8B3u    1.090932     1Au     1.090932     9Ag     1.201202  
       4B1u    1.442812     4B2u    1.442812     9B3u    1.597774  
      10Ag     1.670194     4B2g    1.672259     4B1g    1.672259  
      10B3u    1.998278     5B1u    2.325776     5B2u    2.325776  
      11Ag     2.499130    11B3u    2.656104    12Ag     2.706288  
       2B3g    2.706288     5B2g    2.751593     5B1g    2.751593  
       6B1u    2.827388     6B2u    2.827388     7B1u    3.016415  
       7B2u    3.016415    13Ag     3.141280     6B2g    3.224954  
       6B1g    3.224954     7B1g    3.226368     7B2g    3.226368  
      14Ag     3.228309    15Ag     3.232112     3B3g    3.232112  
      12B3u    3.258313    13B3u    3.295547     2Au     3.295547  
       8B1u    3.437148     8B2u    3.437148    14B3u    3.459242  
       3Au     3.459242    15B3u    3.867406    16Ag     3.885130  
       4B3g    3.885130     8B2g    4.137438     8B1g    4.137438  
       9B1u    4.263891     9B2u    4.263891    17Ag     4.452973  
      16B3u    4.469139     4Au     4.469139    17B3u    4.779997  
       9B2g    4.846676     9B1g    4.846676    18Ag     5.157680  
      10B2u    5.731851    10B1u    5.731851    18B3u    6.094500  
      10B2g    6.301147    10B1g    6.301147    19B3u    6.335886  
      19Ag     6.700060    20Ag     9.380500    20B3u   16.156323  

    Final Occupation by Irrep:
             Ag   B1g   B2g   B3g    Au   B1u   B2u   B3u 
    DOCC [     3,    0,    0,    0,    0,    1,    1,    2 ]

  @DF-RHF Final Energy:   -76.84495064917915

   => Energetics <=

    Nuclear Repulsion Energy =             24.3232181713792350
    One-Electron Energy =                -150.8023079359117844
    Two-Electron Energy =                  49.6341391153533849
    Total Energy =                        -76.8449506491791681

Computation Completed


Properties will be evaluated at   0.000000,   0.000000,   0.000000 [a0]

Properties computed using the SCF density matrix

  Nuclear Dipole Moment: [e a0]
     X:     0.0000      Y:     0.0000      Z:     0.0000

  Electronic Dipole Moment: [e a0]
     X:     0.0000      Y:     0.0000      Z:     0.0000

  Dipole Moment: [e a0]
     X:     0.0000      Y:     0.0000      Z:     0.0000     Total:     0.0000

  Dipole Moment: [D]
     X:     0.0000      Y:     0.0000      Z:     0.0000     Total:     0.0000


*** tstop() called on atlantis at Tue Apr 19 01:45:27 2022
Module time:
	user time   =       0.50 seconds =       0.01 minutes
	system time =       0.01 seconds =       0.00 minutes
	total time  =          1 seconds =       0.02 minutes
Total time:
	user time   =       0.50 seconds =       0.01 minutes
	system time =       0.01 seconds =       0.00 minutes
	total time  =          1 seconds =       0.02 minutes

*** tstart() called on atlantis
*** at Tue Apr 19 01:45:27 2022


  //>>>>>>>>>>>>>>>>>>>>>>>>>>>>>>>>>>>//
  //               DFMP2               //
  //<<<<<<<<<<<<<<<<<<<<<<<<<<<<<<<<<<<//

   => Loading Basis Set <=

    Name: (CC-PVTZ AUX)
    Role: RIFIT
    Keyword: DF_BASIS_MP2
    atoms 1-2 entry C          line   209 file /home/akrom/software/anaconda3/envs/ffpenv/share/psi4/basis/cc-pvtz-ri.gbs 
    atoms 3-4 entry H          line    19 file /home/akrom/software/anaconda3/envs/ffpenv/share/psi4/basis/cc-pvtz-ri.gbs 

	 --------------------------------------------------------
	                          DF-MP2                         
	      2nd-Order Density-Fitted Moller-Plesset Theory     
	              RMP2 Wavefunction,   1 Threads             
	                                                         
	        Rob Parrish, Justin Turney, Andy Simmonett,      
	           Ed Hohenstein, and C. David Sherrill          
	 --------------------------------------------------------

   => Auxiliary Basis Set <=

  Basis Set: (CC-PVTZ AUX)
    Blend: CC-PVTZ-RI
    Number of shells: 66
    Number of basis function: 222
    Number of Cartesian functions: 272
    Spherical Harmonics?: true
    Max angular momentum: 4

	 --------------------------------------------------------
	                 NBF =    88, NAUX =   222
	 --------------------------------------------------------
	   CLASS    FOCC     OCC    AOCC    AVIR     VIR    FVIR
	   PAIRS       0       7       7      81      81       0
	 --------------------------------------------------------

	-----------------------------------------------------------
	 ==================> DF-MP2 Energies <==================== 
	-----------------------------------------------------------
	 Reference Energy          =     -76.8449506491791539 [Eh]
	 Singles Energy            =      -0.0000000000000000 [Eh]
	 Same-Spin Energy          =      -0.0770456525357508 [Eh]
	 Opposite-Spin Energy      =      -0.2653148488573050 [Eh]
	 Correlation Energy        =      -0.3423605013930558 [Eh]
	 Total Energy              =     -77.1873111505722136 [Eh]
	-----------------------------------------------------------
	 ================> DF-SCS-MP2 Energies <================== 
	-----------------------------------------------------------
	 SCS Same-Spin Scale       =       0.3333333333333333 [-]
	 SCS Opposite-Spin Scale   =       1.2000000000000000 [-]
	 SCS Same-Spin Energy      =      -0.0256818841785836 [Eh]
	 SCS Opposite-Spin Energy  =      -0.3183778186287660 [Eh]
	 SCS Correlation Energy    =      -0.3440597028073495 [Eh]
	 SCS Total Energy          =     -77.1890103519864965 [Eh]
	-----------------------------------------------------------


*** tstop() called on atlantis at Tue Apr 19 01:45:27 2022
Module time:
	user time   =       0.13 seconds =       0.00 minutes
	system time =       0.00 seconds =       0.00 minutes
	total time  =          0 seconds =       0.00 minutes
Total time:
	user time   =       0.63 seconds =       0.01 minutes
	system time =       0.01 seconds =       0.00 minutes
	total time  =          1 seconds =       0.02 minutes
gradient() will perform analytic gradient computation.
    SCF Algorithm Type (re)set to DF.

*** tstart() called on atlantis
*** at Tue Apr 19 01:45:27 2022

   => Loading Basis Set <=

    Name: CC-PVTZ
    Role: ORBITAL
    Keyword: BASIS
    atoms 1-2 entry C          line   186 file /home/akrom/software/anaconda3/envs/ffpenv/share/psi4/basis/cc-pvtz.gbs 
    atoms 3-4 entry H          line    23 file /home/akrom/software/anaconda3/envs/ffpenv/share/psi4/basis/cc-pvtz.gbs 


         ---------------------------------------------------------
                                   SCF
               by Justin Turney, Rob Parrish, Andy Simmonett
                          and Daniel G. A. Smith
                              RHF Reference
                        1 Threads,    500 MiB Core
         ---------------------------------------------------------

  ==> Geometry <==

    Molecular point group: d2h
    Full point group: D_inf_h

    Geometry (in Angstrom), charge = 0, multiplicity = 1:

       Center              X                  Y                   Z               Mass       
    ------------   -----------------  -----------------  -----------------  -----------------
         C           -0.614460000000    -0.000000000000     0.000000000000    12.000000000000
         C            0.614460000000     0.000000000000     0.000000000000    12.000000000000
         H           -1.689230000000    -0.000000000000     0.000000000000     1.007825032230
         H            1.689230000000     0.000000000000     0.000000000000     1.007825032230

  Running in d2h symmetry.

  Rotational constants: A = ************  B =      1.13802  C =      1.13802 [cm^-1]
  Rotational constants: A = ************  B =  34116.98697  C =  34116.98697 [MHz]
  Nuclear repulsion =   24.323218171379235

  Charge       = 0
  Multiplicity = 1
  Electrons    = 14
  Nalpha       = 7
  Nbeta        = 7

  ==> Algorithm <==

  SCF Algorithm Type is DF.
  DIIS enabled.
  MOM disabled.
  Fractional occupation disabled.
  Guess Type is SAD.
  Energy threshold   = 1.00e-10
  Density threshold  = 1.00e-10
  Integral threshold = 0.00e+00

  ==> Primary Basis <==

  Basis Set: CC-PVTZ
    Blend: CC-PVTZ
    Number of shells: 32
    Number of basis function: 88
    Number of Cartesian functions: 100
    Spherical Harmonics?: true
    Max angular momentum: 3

   => Loading Basis Set <=

    Name: (CC-PVTZ AUX)
    Role: JKFIT
    Keyword: DF_BASIS_SCF
    atoms 1-2 entry C          line   125 file /home/akrom/software/anaconda3/envs/ffpenv/share/psi4/basis/cc-pvtz-jkfit.gbs 
    atoms 3-4 entry H          line    51 file /home/akrom/software/anaconda3/envs/ffpenv/share/psi4/basis/cc-pvtz-jkfit.gbs 

  ==> Pre-Iterations <==

   -------------------------------------------------------
    Irrep   Nso     Nmo     Nalpha   Nbeta   Ndocc  Nsocc
   -------------------------------------------------------
     Ag        20      20       0       0       0       0
     B1g       10      10       0       0       0       0
     B2g       10      10       0       0       0       0
     B3g        4       4       0       0       0       0
     Au         4       4       0       0       0       0
     B1u       10      10       0       0       0       0
     B2u       10      10       0       0       0       0
     B3u       20      20       0       0       0       0
   -------------------------------------------------------
    Total      88      88       7       7       7       0
   -------------------------------------------------------

  ==> Integral Setup <==

  DFHelper Memory: AOs need 0.015 GiB; user supplied 0.366 GiB. Using in-core AOs.

  ==> MemDFJK: Density-Fitted J/K Matrices <==

    J tasked:                   Yes
    K tasked:                   Yes
    wK tasked:                   No
    OpenMP threads:               1
    Memory [MiB]:               375
    Algorithm:                 Core
    Schwarz Cutoff:           1E-12
    Mask sparsity (%):       0.1033
    Fitting Condition:        1E-10

   => Auxiliary Basis Set <=

  Basis Set: (CC-PVTZ AUX)
    Blend: CC-PVTZ-JKFIT
    Number of shells: 70
    Number of basis function: 218
    Number of Cartesian functions: 262
    Spherical Harmonics?: true
    Max angular momentum: 4

  Minimum eigenvalue in the overlap matrix is 1.4146724323E-04.
  Using Symmetric Orthogonalization.

  SCF Guess: Superposition of Atomic Densities via on-the-fly atomic UHF.

  ==> Iterations <==

                           Total Energy        Delta E     RMS |[F,P]|

   @DF-RHF iter SAD:   -75.89507625649381   -7.58951e+01   0.00000e+00 
   @DF-RHF iter   1:   -76.80615378356157   -9.11078e-01   7.81144e-03 DIIS
   @DF-RHF iter   2:   -76.84056278746620   -3.44090e-02   2.66569e-03 DIIS
   @DF-RHF iter   3:   -76.84480391923567   -4.24113e-03   3.33375e-04 DIIS
   @DF-RHF iter   4:   -76.84494831257481   -1.44393e-04   4.09784e-05 DIIS
   @DF-RHF iter   5:   -76.84495058282556   -2.27025e-06   7.00583e-06 DIIS
   @DF-RHF iter   6:   -76.84495064691613   -6.40906e-08   1.23598e-06 DIIS
   @DF-RHF iter   7:   -76.84495064913321   -2.21708e-09   1.72282e-07 DIIS
   @DF-RHF iter   8:   -76.84495064917873   -4.55174e-11   1.56319e-08 DIIS
   @DF-RHF iter   9:   -76.84495064917915   -4.26326e-13   1.61023e-09 DIIS
   @DF-RHF iter  10:   -76.84495064917915    0.00000e+00   1.58031e-10 DIIS
   @DF-RHF iter  11:   -76.84495064917911    4.26326e-14   1.75448e-11 DIIS
  Energy and wave function converged.


  ==> Post-Iterations <==

    Orbital Energies [Eh]
    ---------------------

    Doubly Occupied:                                                      

       1Ag   -11.251007     1B3u  -11.247755     2Ag    -1.020469  
       2B3u   -0.765345     3Ag    -0.674971     1B1u   -0.403734  
       1B2u   -0.403734  

    Virtual:                                                              

       3B3u    0.149005     4Ag     0.170472     1B2g    0.170701  
       1B1g    0.170701     5Ag     0.311570     4B3u    0.397229  
       2B1u    0.437079     2B2u    0.437079     5B3u    0.512902  
       2B1g    0.570539     2B2g    0.570539     6Ag     0.601564  
       7Ag     0.772297     8Ag     0.772893     1B3g    0.772893  
       3B2u    0.796736     3B1u    0.796736     6B3u    0.934340  
       7B3u    1.060070     3B2g    1.061314     3B1g    1.061314  
       8B3u    1.090932     1Au     1.090932     9Ag     1.201202  
       4B1u    1.442812     4B2u    1.442812     9B3u    1.597774  
      10Ag     1.670194     4B2g    1.672259     4B1g    1.672259  
      10B3u    1.998278     5B1u    2.325776     5B2u    2.325776  
      11Ag     2.499130    11B3u    2.656104    12Ag     2.706288  
       2B3g    2.706288     5B2g    2.751593     5B1g    2.751593  
       6B1u    2.827388     6B2u    2.827388     7B1u    3.016415  
       7B2u    3.016415    13Ag     3.141280     6B2g    3.224954  
       6B1g    3.224954     7B1g    3.226368     7B2g    3.226368  
      14Ag     3.228309    15Ag     3.232112     3B3g    3.232112  
      12B3u    3.258313    13B3u    3.295547     2Au     3.295547  
       8B1u    3.437148     8B2u    3.437148    14B3u    3.459242  
       3Au     3.459242    15B3u    3.867406    16Ag     3.885130  
       4B3g    3.885130     8B2g    4.137438     8B1g    4.137438  
       9B1u    4.263891     9B2u    4.263891    17Ag     4.452973  
      16B3u    4.469139     4Au     4.469139    17B3u    4.779997  
       9B2g    4.846676     9B1g    4.846676    18Ag     5.157680  
      10B2u    5.731851    10B1u    5.731851    18B3u    6.094500  
      10B2g    6.301147    10B1g    6.301147    19B3u    6.335886  
      19Ag     6.700060    20Ag     9.380500    20B3u   16.156323  

    Final Occupation by Irrep:
             Ag   B1g   B2g   B3g    Au   B1u   B2u   B3u 
    DOCC [     3,    0,    0,    0,    0,    1,    1,    2 ]

  @DF-RHF Final Energy:   -76.84495064917911

   => Energetics <=

    Nuclear Repulsion Energy =             24.3232181713792350
    One-Electron Energy =                -150.8023080548359758
    Two-Electron Energy =                  49.6341392342776260
    Total Energy =                        -76.8449506491791112

Computation Completed


Properties will be evaluated at   0.000000,   0.000000,   0.000000 [a0]

Properties computed using the SCF density matrix

  Nuclear Dipole Moment: [e a0]
     X:     0.0000      Y:     0.0000      Z:     0.0000

  Electronic Dipole Moment: [e a0]
     X:     0.0000      Y:     0.0000      Z:     0.0000

  Dipole Moment: [e a0]
     X:     0.0000      Y:     0.0000      Z:     0.0000     Total:     0.0000

  Dipole Moment: [D]
     X:     0.0000      Y:     0.0000      Z:     0.0000     Total:     0.0000


*** tstop() called on atlantis at Tue Apr 19 01:45:28 2022
Module time:
	user time   =       0.49 seconds =       0.01 minutes
	system time =       0.01 seconds =       0.00 minutes
	total time  =          1 seconds =       0.02 minutes
Total time:
	user time   =       1.12 seconds =       0.02 minutes
	system time =       0.02 seconds =       0.00 minutes
	total time  =          2 seconds =       0.03 minutes

*** tstart() called on atlantis
*** at Tue Apr 19 01:45:28 2022


  //>>>>>>>>>>>>>>>>>>>>>>>>>>>>>>>>>>>//
  //               DFMP2               //
  //<<<<<<<<<<<<<<<<<<<<<<<<<<<<<<<<<<<//

   => Loading Basis Set <=

    Name: (CC-PVTZ AUX)
    Role: RIFIT
    Keyword: DF_BASIS_MP2
    atoms 1-2 entry C          line   209 file /home/akrom/software/anaconda3/envs/ffpenv/share/psi4/basis/cc-pvtz-ri.gbs 
    atoms 3-4 entry H          line    19 file /home/akrom/software/anaconda3/envs/ffpenv/share/psi4/basis/cc-pvtz-ri.gbs 

	 --------------------------------------------------------
	                          DF-MP2                         
	      2nd-Order Density-Fitted Moller-Plesset Theory     
	              RMP2 Wavefunction,   1 Threads             
	                                                         
	        Rob Parrish, Justin Turney, Andy Simmonett,      
	           Ed Hohenstein, and C. David Sherrill          
	 --------------------------------------------------------

   => Auxiliary Basis Set <=

  Basis Set: (CC-PVTZ AUX)
    Blend: CC-PVTZ-RI
    Number of shells: 66
    Number of basis function: 222
    Number of Cartesian functions: 272
    Spherical Harmonics?: true
    Max angular momentum: 4

	 --------------------------------------------------------
	                 NBF =    88, NAUX =   222
	 --------------------------------------------------------
	   CLASS    FOCC     OCC    AOCC    AVIR     VIR    FVIR
	   PAIRS       0       7       7      81      81       0
	 --------------------------------------------------------

  DFHelper Memory: AOs need 0.015 GiB; user supplied 0.366 GiB. Using in-core AOs.


         ------------------------------------------------------------
                                     CPHF                           
                                  Rob Parrish                       
         ------------------------------------------------------------

  ==> Geometry <==

    Molecular point group: d2h
    Full point group: D_inf_h

    Geometry (in Angstrom), charge = 0, multiplicity = 1:

       Center              X                  Y                   Z               Mass       
    ------------   -----------------  -----------------  -----------------  -----------------
         C           -0.614460000000    -0.000000000000     0.000000000000    12.000000000000
         C            0.614460000000     0.000000000000     0.000000000000    12.000000000000
         H           -1.689230000000    -0.000000000000     0.000000000000     1.007825032230
         H            1.689230000000     0.000000000000     0.000000000000     1.007825032230

  Nuclear repulsion =   24.323218171379235
  Reference energy  =  -76.844950649179111

  ==> Basis Set <==

  Basis Set: CC-PVTZ
    Blend: CC-PVTZ
    Number of shells: 32
    Number of basis function: 88
    Number of Cartesian functions: 100
    Spherical Harmonics?: true
    Max angular momentum: 3

  ==> CGRSolver (by Rob Parrish) <==

   Number of roots    =         1
   Preconditioning    =    JACOBI
   Convergence cutoff =     1E-06
   Maximum iterations =       100

  ==> CPHFRHamiltonian (by Rob Parrish) <== 

  ==> MemDFJK: Density-Fitted J/K Matrices <==

    J tasked:                   Yes
    K tasked:                   Yes
    wK tasked:                   No
    OpenMP threads:               1
    Memory [MiB]:               375
    Algorithm:                 Core
    Schwarz Cutoff:           1E-12
    Mask sparsity (%):       0.1033
    Fitting Condition:        1E-10

   => Auxiliary Basis Set <=

  Basis Set: (CC-PVTZ AUX)
    Blend: CC-PVTZ-JKFIT
    Number of shells: 70
    Number of basis function: 218
    Number of Cartesian functions: 262
    Spherical Harmonics?: true
    Max angular momentum: 4

  ==> CPHF Iterations <==

  => Iterations <=

             Iter  Converged  Remaining    Residual
  CGR           1          0          1   6.256E-02
  CGR           2          0          1   1.226E-02
  CGR           3          0          1   2.178E-03
  CGR           4          0          1   2.251E-04
  CGR           5          0          1   3.164E-05
  CGR           6          0          1   2.206E-06
  CGR           7          1          0   2.061E-07

    CGRSolver converged.

Problem determining natural orbital and density matrix symmetries.
Future calls to oeprop using this density will not work. Try disabling symmetry.

  ==> DFCorrGrad: Density-Fitted Correlated Gradients <==

    OpenMP threads:              1
    Integrals threads:           1
    Memory [GiB]:            0.366
    Schwarz Cutoff:          0E+00
    Fitting Condition:       1E-10

   => Auxiliary Basis Set <=

  Basis Set: (CC-PVTZ AUX)
    Blend: CC-PVTZ-JKFIT
    Number of shells: 70
    Number of basis function: 218
    Number of Cartesian functions: 262
    Spherical Harmonics?: true
    Max angular momentum: 4

	-----------------------------------------------------------
	 ==================> DF-MP2 Energies <==================== 
	-----------------------------------------------------------
	 Reference Energy          =     -76.8449506491791112 [Eh]
	 Singles Energy            =      -0.0000000000000000 [Eh]
	 Same-Spin Energy          =      -0.0770456524779204 [Eh]
	 Opposite-Spin Energy      =      -0.2653148487869714 [Eh]
	 Correlation Energy        =      -0.3423605012648918 [Eh]
	 Total Energy              =     -77.1873111504440033 [Eh]
	-----------------------------------------------------------
	 ================> DF-SCS-MP2 Energies <================== 
	-----------------------------------------------------------
	 SCS Same-Spin Scale       =       0.3333333333333333 [-]
	 SCS Opposite-Spin Scale   =       1.2000000000000000 [-]
	 SCS Same-Spin Energy      =      -0.0256818841593068 [Eh]
	 SCS Opposite-Spin Energy  =      -0.3183778185443657 [Eh]
	 SCS Correlation Energy    =      -0.3440597027036725 [Eh]
	 SCS Total Energy          =     -77.1890103518827857 [Eh]
	-----------------------------------------------------------


  -Total Gradient:
     Atom            X                  Y                   Z
    ------   -----------------  -----------------  -----------------
       1       -0.025225908357    -0.000000000000     0.000000000000
       2        0.025225908357     0.000000000000     0.000000000000
       3       -0.013139395457    -0.000000000000     0.000000000000
       4        0.013139395457     0.000000000000     0.000000000000


*** tstop() called on atlantis at Tue Apr 19 01:45:29 2022
Module time:
	user time   =       1.05 seconds =       0.02 minutes
	system time =       0.01 seconds =       0.00 minutes
	total time  =          1 seconds =       0.02 minutes
Total time:
	user time   =       2.17 seconds =       0.04 minutes
	system time =       0.03 seconds =       0.00 minutes
	total time  =          3 seconds =       0.05 minutes

  Based on options and gradient (rms=1.16E-02), recommend projecting translations and not projecting rotations.
hessian() will perform frequency computation by finite difference of analytic gradients.

         ----------------------------------------------------------
                                   FINDIF
                     R. A. King and Jonathon Misiewicz
         ---------------------------------------------------------

  Using finite-differences of gradients to determine vibrational frequencies and 
  normal modes.  Resulting frequencies are only valid at stationary points.
    Generating geometries for use with 3-point formula.
    Displacement size will be 5.00e-03.
    Number of atoms is 4.
    Number of irreps is 8.
    Number of SALCs is 9.
    Translations projected? 1. Rotations projected? 0.
    Index of SALCs per irrep:
     1 :  0  1 
     2 :  2  3 
     3 :  4  5 
     4 : 
     5 : 
     6 :  6 
     7 :  7 
     8 :  8 
    Number of SALCs per irrep:
     Irrep 1: 2
     Irrep 2: 2
     Irrep 3: 2
     Irrep 4: 0
     Irrep 5: 0
     Irrep 6: 1
     Irrep 7: 1
     Irrep 8: 1
    Number of geometries (including reference) is 12.
    Number of displacements per irrep:
      Irrep 1: 4
      Irrep 2: 2
      Irrep 3: 2
      Irrep 4: 0
      Irrep 5: 0
      Irrep 6: 1
      Irrep 7: 1
      Irrep 8: 1

  //>>>>>>>>>>>>>>>>>>>>>>>>>>>>>>>>>>>//
  //    Loading displacement 1 of 12   //
  //<<<<<<<<<<<<<<<<<<<<<<<<<<<<<<<<<<<//
gradient() will perform analytic gradient computation.
    SCF Algorithm Type (re)set to DF.

*** tstart() called on atlantis
*** at Tue Apr 19 01:45:29 2022

   => Loading Basis Set <=

    Name: CC-PVTZ
    Role: ORBITAL
    Keyword: BASIS
    atoms 1-2 entry C          line   186 file /home/akrom/software/anaconda3/envs/ffpenv/share/psi4/basis/cc-pvtz.gbs 
    atoms 3-4 entry H          line    23 file /home/akrom/software/anaconda3/envs/ffpenv/share/psi4/basis/cc-pvtz.gbs 


         ---------------------------------------------------------
                                   SCF
               by Justin Turney, Rob Parrish, Andy Simmonett
                          and Daniel G. A. Smith
                              RHF Reference
                        1 Threads,    500 MiB Core
         ---------------------------------------------------------

  ==> Geometry <==

    Molecular point group: d2h
    Full point group: D_inf_h

    Geometry (in Angstrom), charge = 0, multiplicity = 1:

       Center              X                  Y                   Z               Mass       
    ------------   -----------------  -----------------  -----------------  -----------------
         C           -0.614460000000    -0.000000000000     0.000000000000    12.000000000000
         C            0.614460000000     0.000000000000     0.000000000000    12.000000000000
         H           -1.689230000000    -0.000000000000     0.000000000000     1.007825032230
         H            1.689230000000     0.000000000000     0.000000000000     1.007825032230

  Running in d2h symmetry.

  Rotational constants: A = ************  B =      1.13802  C =      1.13802 [cm^-1]
  Rotational constants: A = ************  B =  34116.98697  C =  34116.98697 [MHz]
  Nuclear repulsion =   24.323218171379235

  Charge       = 0
  Multiplicity = 1
  Electrons    = 14
  Nalpha       = 7
  Nbeta        = 7

  ==> Algorithm <==

  SCF Algorithm Type is DF.
  DIIS enabled.
  MOM disabled.
  Fractional occupation disabled.
  Guess Type is SAD.
  Energy threshold   = 1.00e-10
  Density threshold  = 1.00e-10
  Integral threshold = 0.00e+00

  ==> Primary Basis <==

  Basis Set: CC-PVTZ
    Blend: CC-PVTZ
    Number of shells: 32
    Number of basis function: 88
    Number of Cartesian functions: 100
    Spherical Harmonics?: true
    Max angular momentum: 3

   => Loading Basis Set <=

    Name: (CC-PVTZ AUX)
    Role: JKFIT
    Keyword: DF_BASIS_SCF
    atoms 1-2 entry C          line   125 file /home/akrom/software/anaconda3/envs/ffpenv/share/psi4/basis/cc-pvtz-jkfit.gbs 
    atoms 3-4 entry H          line    51 file /home/akrom/software/anaconda3/envs/ffpenv/share/psi4/basis/cc-pvtz-jkfit.gbs 

  ==> Pre-Iterations <==

   -------------------------------------------------------
    Irrep   Nso     Nmo     Nalpha   Nbeta   Ndocc  Nsocc
   -------------------------------------------------------
     Ag        20      20       0       0       0       0
     B1g       10      10       0       0       0       0
     B2g       10      10       0       0       0       0
     B3g        4       4       0       0       0       0
     Au         4       4       0       0       0       0
     B1u       10      10       0       0       0       0
     B2u       10      10       0       0       0       0
     B3u       20      20       0       0       0       0
   -------------------------------------------------------
    Total      88      88       7       7       7       0
   -------------------------------------------------------

  ==> Integral Setup <==

  DFHelper Memory: AOs need 0.015 GiB; user supplied 0.366 GiB. Using in-core AOs.

  ==> MemDFJK: Density-Fitted J/K Matrices <==

    J tasked:                   Yes
    K tasked:                   Yes
    wK tasked:                   No
    OpenMP threads:               1
    Memory [MiB]:               375
    Algorithm:                 Core
    Schwarz Cutoff:           1E-12
    Mask sparsity (%):       0.1033
    Fitting Condition:        1E-10

   => Auxiliary Basis Set <=

  Basis Set: (CC-PVTZ AUX)
    Blend: CC-PVTZ-JKFIT
    Number of shells: 70
    Number of basis function: 218
    Number of Cartesian functions: 262
    Spherical Harmonics?: true
    Max angular momentum: 4

  Minimum eigenvalue in the overlap matrix is 1.4146724323E-04.
  Using Symmetric Orthogonalization.

  SCF Guess: Superposition of Atomic Densities via on-the-fly atomic UHF.

  ==> Iterations <==

                           Total Energy        Delta E     RMS |[F,P]|

   @DF-RHF iter SAD:   -75.89507625649381   -7.58951e+01   0.00000e+00 
   @DF-RHF iter   1:   -76.80615378356157   -9.11078e-01   7.81144e-03 DIIS
   @DF-RHF iter   2:   -76.84056278746620   -3.44090e-02   2.66569e-03 DIIS
   @DF-RHF iter   3:   -76.84480391923567   -4.24113e-03   3.33375e-04 DIIS
   @DF-RHF iter   4:   -76.84494831257481   -1.44393e-04   4.09784e-05 DIIS
   @DF-RHF iter   5:   -76.84495058282556   -2.27025e-06   7.00583e-06 DIIS
   @DF-RHF iter   6:   -76.84495064691613   -6.40906e-08   1.23598e-06 DIIS
   @DF-RHF iter   7:   -76.84495064913321   -2.21708e-09   1.72282e-07 DIIS
   @DF-RHF iter   8:   -76.84495064917873   -4.55174e-11   1.56319e-08 DIIS
   @DF-RHF iter   9:   -76.84495064917915   -4.26326e-13   1.61023e-09 DIIS
   @DF-RHF iter  10:   -76.84495064917915    0.00000e+00   1.58031e-10 DIIS
   @DF-RHF iter  11:   -76.84495064917911    4.26326e-14   1.75448e-11 DIIS
  Energy and wave function converged.


  ==> Post-Iterations <==

    Orbital Energies [Eh]
    ---------------------

    Doubly Occupied:                                                      

       1Ag   -11.251007     1B3u  -11.247755     2Ag    -1.020469  
       2B3u   -0.765345     3Ag    -0.674971     1B1u   -0.403734  
       1B2u   -0.403734  

    Virtual:                                                              

       3B3u    0.149005     4Ag     0.170472     1B2g    0.170701  
       1B1g    0.170701     5Ag     0.311570     4B3u    0.397229  
       2B1u    0.437079     2B2u    0.437079     5B3u    0.512902  
       2B1g    0.570539     2B2g    0.570539     6Ag     0.601564  
       7Ag     0.772297     8Ag     0.772893     1B3g    0.772893  
       3B2u    0.796736     3B1u    0.796736     6B3u    0.934340  
       7B3u    1.060070     3B2g    1.061314     3B1g    1.061314  
       8B3u    1.090932     1Au     1.090932     9Ag     1.201202  
       4B1u    1.442812     4B2u    1.442812     9B3u    1.597774  
      10Ag     1.670194     4B2g    1.672259     4B1g    1.672259  
      10B3u    1.998278     5B1u    2.325776     5B2u    2.325776  
      11Ag     2.499130    11B3u    2.656104    12Ag     2.706288  
       2B3g    2.706288     5B2g    2.751593     5B1g    2.751593  
       6B1u    2.827388     6B2u    2.827388     7B1u    3.016415  
       7B2u    3.016415    13Ag     3.141280     6B2g    3.224954  
       6B1g    3.224954     7B1g    3.226368     7B2g    3.226368  
      14Ag     3.228309    15Ag     3.232112     3B3g    3.232112  
      12B3u    3.258313    13B3u    3.295547     2Au     3.295547  
       8B1u    3.437148     8B2u    3.437148    14B3u    3.459242  
       3Au     3.459242    15B3u    3.867406    16Ag     3.885130  
       4B3g    3.885130     8B2g    4.137438     8B1g    4.137438  
       9B1u    4.263891     9B2u    4.263891    17Ag     4.452973  
      16B3u    4.469139     4Au     4.469139    17B3u    4.779997  
       9B2g    4.846676     9B1g    4.846676    18Ag     5.157680  
      10B2u    5.731851    10B1u    5.731851    18B3u    6.094500  
      10B2g    6.301147    10B1g    6.301147    19B3u    6.335886  
      19Ag     6.700060    20Ag     9.380500    20B3u   16.156323  

    Final Occupation by Irrep:
             Ag   B1g   B2g   B3g    Au   B1u   B2u   B3u 
    DOCC [     3,    0,    0,    0,    0,    1,    1,    2 ]

  @DF-RHF Final Energy:   -76.84495064917911

   => Energetics <=

    Nuclear Repulsion Energy =             24.3232181713792350
    One-Electron Energy =                -150.8023080548359758
    Two-Electron Energy =                  49.6341392342776260
    Total Energy =                        -76.8449506491791112

Computation Completed


Properties will be evaluated at   0.000000,   0.000000,   0.000000 [a0]

Properties computed using the SCF density matrix

  Nuclear Dipole Moment: [e a0]
     X:     0.0000      Y:     0.0000      Z:     0.0000

  Electronic Dipole Moment: [e a0]
     X:     0.0000      Y:     0.0000      Z:     0.0000

  Dipole Moment: [e a0]
     X:     0.0000      Y:     0.0000      Z:     0.0000     Total:     0.0000

  Dipole Moment: [D]
     X:     0.0000      Y:     0.0000      Z:     0.0000     Total:     0.0000


*** tstop() called on atlantis at Tue Apr 19 01:45:29 2022
Module time:
	user time   =       0.48 seconds =       0.01 minutes
	system time =       0.01 seconds =       0.00 minutes
	total time  =          0 seconds =       0.00 minutes
Total time:
	user time   =       2.93 seconds =       0.05 minutes
	system time =       0.05 seconds =       0.00 minutes
	total time  =          3 seconds =       0.05 minutes

*** tstart() called on atlantis
*** at Tue Apr 19 01:45:29 2022


  //>>>>>>>>>>>>>>>>>>>>>>>>>>>>>>>>>>>//
  //               DFMP2               //
  //<<<<<<<<<<<<<<<<<<<<<<<<<<<<<<<<<<<//

   => Loading Basis Set <=

    Name: (CC-PVTZ AUX)
    Role: RIFIT
    Keyword: DF_BASIS_MP2
    atoms 1-2 entry C          line   209 file /home/akrom/software/anaconda3/envs/ffpenv/share/psi4/basis/cc-pvtz-ri.gbs 
    atoms 3-4 entry H          line    19 file /home/akrom/software/anaconda3/envs/ffpenv/share/psi4/basis/cc-pvtz-ri.gbs 

	 --------------------------------------------------------
	                          DF-MP2                         
	      2nd-Order Density-Fitted Moller-Plesset Theory     
	              RMP2 Wavefunction,   1 Threads             
	                                                         
	        Rob Parrish, Justin Turney, Andy Simmonett,      
	           Ed Hohenstein, and C. David Sherrill          
	 --------------------------------------------------------

   => Auxiliary Basis Set <=

  Basis Set: (CC-PVTZ AUX)
    Blend: CC-PVTZ-RI
    Number of shells: 66
    Number of basis function: 222
    Number of Cartesian functions: 272
    Spherical Harmonics?: true
    Max angular momentum: 4

	 --------------------------------------------------------
	                 NBF =    88, NAUX =   222
	 --------------------------------------------------------
	   CLASS    FOCC     OCC    AOCC    AVIR     VIR    FVIR
	   PAIRS       0       7       7      81      81       0
	 --------------------------------------------------------

  DFHelper Memory: AOs need 0.015 GiB; user supplied 0.366 GiB. Using in-core AOs.


         ------------------------------------------------------------
                                     CPHF                           
                                  Rob Parrish                       
         ------------------------------------------------------------

  ==> Geometry <==

    Molecular point group: d2h
    Full point group: D_inf_h

    Geometry (in Angstrom), charge = 0, multiplicity = 1:

       Center              X                  Y                   Z               Mass       
    ------------   -----------------  -----------------  -----------------  -----------------
         C           -0.614460000000    -0.000000000000     0.000000000000    12.000000000000
         C            0.614460000000     0.000000000000     0.000000000000    12.000000000000
         H           -1.689230000000    -0.000000000000     0.000000000000     1.007825032230
         H            1.689230000000     0.000000000000     0.000000000000     1.007825032230

  Nuclear repulsion =   24.323218171379235
  Reference energy  =  -76.844950649179111

  ==> Basis Set <==

  Basis Set: CC-PVTZ
    Blend: CC-PVTZ
    Number of shells: 32
    Number of basis function: 88
    Number of Cartesian functions: 100
    Spherical Harmonics?: true
    Max angular momentum: 3

  ==> CGRSolver (by Rob Parrish) <==

   Number of roots    =         1
   Preconditioning    =    JACOBI
   Convergence cutoff =     1E-06
   Maximum iterations =       100

  ==> CPHFRHamiltonian (by Rob Parrish) <== 

  ==> MemDFJK: Density-Fitted J/K Matrices <==

    J tasked:                   Yes
    K tasked:                   Yes
    wK tasked:                   No
    OpenMP threads:               1
    Memory [MiB]:               375
    Algorithm:                 Core
    Schwarz Cutoff:           1E-12
    Mask sparsity (%):       0.1033
    Fitting Condition:        1E-10

   => Auxiliary Basis Set <=

  Basis Set: (CC-PVTZ AUX)
    Blend: CC-PVTZ-JKFIT
    Number of shells: 70
    Number of basis function: 218
    Number of Cartesian functions: 262
    Spherical Harmonics?: true
    Max angular momentum: 4

  ==> CPHF Iterations <==

  => Iterations <=

             Iter  Converged  Remaining    Residual
  CGR           1          0          1   6.256E-02
  CGR           2          0          1   1.226E-02
  CGR           3          0          1   2.178E-03
  CGR           4          0          1   2.251E-04
  CGR           5          0          1   3.164E-05
  CGR           6          0          1   2.206E-06
  CGR           7          1          0   2.061E-07

    CGRSolver converged.

Problem determining natural orbital and density matrix symmetries.
Future calls to oeprop using this density will not work. Try disabling symmetry.

  ==> DFCorrGrad: Density-Fitted Correlated Gradients <==

    OpenMP threads:              1
    Integrals threads:           1
    Memory [GiB]:            0.366
    Schwarz Cutoff:          0E+00
    Fitting Condition:       1E-10

   => Auxiliary Basis Set <=

  Basis Set: (CC-PVTZ AUX)
    Blend: CC-PVTZ-JKFIT
    Number of shells: 70
    Number of basis function: 218
    Number of Cartesian functions: 262
    Spherical Harmonics?: true
    Max angular momentum: 4

	-----------------------------------------------------------
	 ==================> DF-MP2 Energies <==================== 
	-----------------------------------------------------------
	 Reference Energy          =     -76.8449506491791112 [Eh]
	 Singles Energy            =      -0.0000000000000000 [Eh]
	 Same-Spin Energy          =      -0.0770456524779204 [Eh]
	 Opposite-Spin Energy      =      -0.2653148487869714 [Eh]
	 Correlation Energy        =      -0.3423605012648918 [Eh]
	 Total Energy              =     -77.1873111504440033 [Eh]
	-----------------------------------------------------------
	 ================> DF-SCS-MP2 Energies <================== 
	-----------------------------------------------------------
	 SCS Same-Spin Scale       =       0.3333333333333333 [-]
	 SCS Opposite-Spin Scale   =       1.2000000000000000 [-]
	 SCS Same-Spin Energy      =      -0.0256818841593068 [Eh]
	 SCS Opposite-Spin Energy  =      -0.3183778185443657 [Eh]
	 SCS Correlation Energy    =      -0.3440597027036725 [Eh]
	 SCS Total Energy          =     -77.1890103518827857 [Eh]
	-----------------------------------------------------------


  -Total Gradient:
     Atom            X                  Y                   Z
    ------   -----------------  -----------------  -----------------
       1       -0.025225908357    -0.000000000000     0.000000000000
       2        0.025225908357     0.000000000000     0.000000000000
       3       -0.013139395457    -0.000000000000     0.000000000000
       4        0.013139395457     0.000000000000     0.000000000000


*** tstop() called on atlantis at Tue Apr 19 01:45:31 2022
Module time:
	user time   =       1.04 seconds =       0.02 minutes
	system time =       0.02 seconds =       0.00 minutes
	total time  =          2 seconds =       0.03 minutes
Total time:
	user time   =       3.97 seconds =       0.07 minutes
	system time =       0.07 seconds =       0.00 minutes
	total time  =          5 seconds =       0.08 minutes

  //>>>>>>>>>>>>>>>>>>>>>>>>>>>>>>>>>>>//
  //    Loading displacement 2 of 12   //
  //<<<<<<<<<<<<<<<<<<<<<<<<<<<<<<<<<<<//
gradient() will perform analytic gradient computation.
    SCF Algorithm Type (re)set to DF.

*** tstart() called on atlantis
*** at Tue Apr 19 01:45:31 2022

   => Loading Basis Set <=

    Name: CC-PVTZ
    Role: ORBITAL
    Keyword: BASIS
    atoms 1-2 entry C          line   186 file /home/akrom/software/anaconda3/envs/ffpenv/share/psi4/basis/cc-pvtz.gbs 
    atoms 3-4 entry H          line    23 file /home/akrom/software/anaconda3/envs/ffpenv/share/psi4/basis/cc-pvtz.gbs 


         ---------------------------------------------------------
                                   SCF
               by Justin Turney, Rob Parrish, Andy Simmonett
                          and Daniel G. A. Smith
                              RHF Reference
                        1 Threads,    500 MiB Core
         ---------------------------------------------------------

  ==> Geometry <==

    Molecular point group: d2h
    Full point group: D_inf_h

    Geometry (in Angstrom), charge = 0, multiplicity = 1:

       Center              X                  Y                   Z               Mass       
    ------------   -----------------  -----------------  -----------------  -----------------
         C           -0.615000089229    -0.000000000000     0.000000000000    12.000000000000
         C            0.615000089229     0.000000000000     0.000000000000    12.000000000000
         H           -1.689230000000    -0.000000000000     0.000000000000     1.007825032230
         H            1.689230000000     0.000000000000     0.000000000000     1.007825032230

  Running in d2h symmetry.

  Rotational constants: A = ************  B =      1.13680  C =      1.13680 [cm^-1]
  Rotational constants: A = ************  B =  34080.32226  C =  34080.32226 [MHz]
  Nuclear repulsion =   24.311929094340595

  Charge       = 0
  Multiplicity = 1
  Electrons    = 14
  Nalpha       = 7
  Nbeta        = 7

  ==> Algorithm <==

  SCF Algorithm Type is DF.
  DIIS enabled.
  MOM disabled.
  Fractional occupation disabled.
  Guess Type is SAD.
  Energy threshold   = 1.00e-10
  Density threshold  = 1.00e-10
  Integral threshold = 0.00e+00

  ==> Primary Basis <==

  Basis Set: CC-PVTZ
    Blend: CC-PVTZ
    Number of shells: 32
    Number of basis function: 88
    Number of Cartesian functions: 100
    Spherical Harmonics?: true
    Max angular momentum: 3

   => Loading Basis Set <=

    Name: (CC-PVTZ AUX)
    Role: JKFIT
    Keyword: DF_BASIS_SCF
    atoms 1-2 entry C          line   125 file /home/akrom/software/anaconda3/envs/ffpenv/share/psi4/basis/cc-pvtz-jkfit.gbs 
    atoms 3-4 entry H          line    51 file /home/akrom/software/anaconda3/envs/ffpenv/share/psi4/basis/cc-pvtz-jkfit.gbs 

  ==> Pre-Iterations <==

   -------------------------------------------------------
    Irrep   Nso     Nmo     Nalpha   Nbeta   Ndocc  Nsocc
   -------------------------------------------------------
     Ag        20      20       0       0       0       0
     B1g       10      10       0       0       0       0
     B2g       10      10       0       0       0       0
     B3g        4       4       0       0       0       0
     Au         4       4       0       0       0       0
     B1u       10      10       0       0       0       0
     B2u       10      10       0       0       0       0
     B3u       20      20       0       0       0       0
   -------------------------------------------------------
    Total      88      88       7       7       7       0
   -------------------------------------------------------

  ==> Integral Setup <==

  DFHelper Memory: AOs need 0.015 GiB; user supplied 0.366 GiB. Using in-core AOs.

  ==> MemDFJK: Density-Fitted J/K Matrices <==

    J tasked:                   Yes
    K tasked:                   Yes
    wK tasked:                   No
    OpenMP threads:               1
    Memory [MiB]:               375
    Algorithm:                 Core
    Schwarz Cutoff:           1E-12
    Mask sparsity (%):       0.1033
    Fitting Condition:        1E-10

   => Auxiliary Basis Set <=

  Basis Set: (CC-PVTZ AUX)
    Blend: CC-PVTZ-JKFIT
    Number of shells: 70
    Number of basis function: 218
    Number of Cartesian functions: 262
    Spherical Harmonics?: true
    Max angular momentum: 4

  Minimum eigenvalue in the overlap matrix is 1.4205928343E-04.
  Using Symmetric Orthogonalization.

  SCF Guess: Superposition of Atomic Densities via on-the-fly atomic UHF.

  ==> Iterations <==

                           Total Energy        Delta E     RMS |[F,P]|

   @DF-RHF iter SAD:   -75.89402270844644   -7.58940e+01   0.00000e+00 
   @DF-RHF iter   1:   -76.80612360916290   -9.12101e-01   7.79074e-03 DIIS
   @DF-RHF iter   2:   -76.84040763727592   -3.42840e-02   2.65714e-03 DIIS
   @DF-RHF iter   3:   -76.84462330139557   -4.21566e-03   3.33502e-04 DIIS
   @DF-RHF iter   4:   -76.84476804041033   -1.44739e-04   4.10403e-05 DIIS
   @DF-RHF iter   5:   -76.84477031654183   -2.27613e-06   7.00652e-06 DIIS
   @DF-RHF iter   6:   -76.84477038063820   -6.40964e-08   1.23440e-06 DIIS
   @DF-RHF iter   7:   -76.84477038285024   -2.21205e-09   1.72405e-07 DIIS
   @DF-RHF iter   8:   -76.84477038289583   -4.55884e-11   1.56054e-08 DIIS
   @DF-RHF iter   9:   -76.84477038289614   -3.12639e-13   1.60824e-09 DIIS
   @DF-RHF iter  10:   -76.84477038289620   -5.68434e-14   1.57284e-10 DIIS
   @DF-RHF iter  11:   -76.84477038289626   -5.68434e-14   1.75004e-11 DIIS
  Energy and wave function converged.


  ==> Post-Iterations <==

    Orbital Energies [Eh]
    ---------------------

    Doubly Occupied:                                                      

       1Ag   -11.251309     1B3u  -11.248078     2Ag    -1.020195  
       2B3u   -0.765735     3Ag    -0.675134     1B1u   -0.403511  
       1B2u   -0.403511  

    Virtual:                                                              

       3B3u    0.148991     1B1g    0.170407     1B2g    0.170407  
       4Ag     0.170460     5Ag     0.311606     4B3u    0.396965  
       2B2u    0.437179     2B1u    0.437179     5B3u    0.513018  
       2B1g    0.570359     2B2g    0.570359     6Ag     0.601654  
       7Ag     0.772318     8Ag     0.772855     1B3g    0.772855  
       3B2u    0.796606     3B1u    0.796606     6B3u    0.933741  
       7B3u    1.059592     3B1g    1.061258     3B2g    1.061258  
       8B3u    1.090673     1Au     1.090673     9Ag     1.201441  
       4B1u    1.442505     4B2u    1.442505     9B3u    1.597784  
      10Ag     1.670931     4B2g    1.672615     4B1g    1.672615  
      10B3u    1.997001     5B1u    2.326028     5B2u    2.326028  
      11Ag     2.498930    11B3u    2.654999     2B3g    2.705928  
      12Ag     2.705928     5B2g    2.750477     5B1g    2.750477  
       6B2u    2.827590     6B1u    2.827590     7B1u    3.015895  
       7B2u    3.015895    13Ag     3.141091     6B2g    3.225376  
       6B1g    3.225376     7B1g    3.225733     7B2g    3.225733  
      14Ag     3.228009    15Ag     3.232096     3B3g    3.232096  
      12B3u    3.258996    13B3u    3.295366     2Au     3.295366  
       8B2u    3.436450     8B1u    3.436450     3Au     3.458807  
      14B3u    3.458807    15B3u    3.867451     4B3g    3.885312  
      16Ag     3.885312     8B2g    4.137134     8B1g    4.137134  
       9B1u    4.263927     9B2u    4.263927    17Ag     4.451915  
       4Au     4.468553    16B3u    4.468553    17B3u    4.780636  
       9B2g    4.846600     9B1g    4.846600    18Ag     5.159831  
      10B1u    5.731925    10B2u    5.731925    18B3u    6.095617  
      10B2g    6.301729    10B1g    6.301729    19B3u    6.335254  
      19Ag     6.696951    20Ag     9.388777    20B3u   16.131117  

    Final Occupation by Irrep:
             Ag   B1g   B2g   B3g    Au   B1u   B2u   B3u 
    DOCC [     3,    0,    0,    0,    0,    1,    1,    2 ]

  @DF-RHF Final Energy:   -76.84477038289626

   => Energetics <=

    Nuclear Repulsion Energy =             24.3119290943405950
    One-Electron Energy =                -150.7784531320363897
    Two-Electron Energy =                  49.6217536547995337
    Total Energy =                        -76.8447703828962574

Computation Completed


Properties will be evaluated at   0.000000,   0.000000,   0.000000 [a0]

Properties computed using the SCF density matrix

  Nuclear Dipole Moment: [e a0]
     X:     0.0000      Y:     0.0000      Z:     0.0000

  Electronic Dipole Moment: [e a0]
     X:     0.0000      Y:     0.0000      Z:     0.0000

  Dipole Moment: [e a0]
     X:     0.0000      Y:     0.0000      Z:     0.0000     Total:     0.0000

  Dipole Moment: [D]
     X:     0.0000      Y:     0.0000      Z:     0.0000     Total:     0.0000


*** tstop() called on atlantis at Tue Apr 19 01:45:31 2022
Module time:
	user time   =       0.49 seconds =       0.01 minutes
	system time =       0.00 seconds =       0.00 minutes
	total time  =          0 seconds =       0.00 minutes
Total time:
	user time   =       4.46 seconds =       0.07 minutes
	system time =       0.08 seconds =       0.00 minutes
	total time  =          5 seconds =       0.08 minutes

*** tstart() called on atlantis
*** at Tue Apr 19 01:45:31 2022


  //>>>>>>>>>>>>>>>>>>>>>>>>>>>>>>>>>>>//
  //               DFMP2               //
  //<<<<<<<<<<<<<<<<<<<<<<<<<<<<<<<<<<<//

   => Loading Basis Set <=

    Name: (CC-PVTZ AUX)
    Role: RIFIT
    Keyword: DF_BASIS_MP2
    atoms 1-2 entry C          line   209 file /home/akrom/software/anaconda3/envs/ffpenv/share/psi4/basis/cc-pvtz-ri.gbs 
    atoms 3-4 entry H          line    19 file /home/akrom/software/anaconda3/envs/ffpenv/share/psi4/basis/cc-pvtz-ri.gbs 

	 --------------------------------------------------------
	                          DF-MP2                         
	      2nd-Order Density-Fitted Moller-Plesset Theory     
	              RMP2 Wavefunction,   1 Threads             
	                                                         
	        Rob Parrish, Justin Turney, Andy Simmonett,      
	           Ed Hohenstein, and C. David Sherrill          
	 --------------------------------------------------------

   => Auxiliary Basis Set <=

  Basis Set: (CC-PVTZ AUX)
    Blend: CC-PVTZ-RI
    Number of shells: 66
    Number of basis function: 222
    Number of Cartesian functions: 272
    Spherical Harmonics?: true
    Max angular momentum: 4

	 --------------------------------------------------------
	                 NBF =    88, NAUX =   222
	 --------------------------------------------------------
	   CLASS    FOCC     OCC    AOCC    AVIR     VIR    FVIR
	   PAIRS       0       7       7      81      81       0
	 --------------------------------------------------------

  DFHelper Memory: AOs need 0.015 GiB; user supplied 0.366 GiB. Using in-core AOs.


         ------------------------------------------------------------
                                     CPHF                           
                                  Rob Parrish                       
         ------------------------------------------------------------

  ==> Geometry <==

    Molecular point group: d2h
    Full point group: D_inf_h

    Geometry (in Angstrom), charge = 0, multiplicity = 1:

       Center              X                  Y                   Z               Mass       
    ------------   -----------------  -----------------  -----------------  -----------------
         C           -0.615000089229    -0.000000000000     0.000000000000    12.000000000000
         C            0.615000089229     0.000000000000     0.000000000000    12.000000000000
         H           -1.689230000000    -0.000000000000     0.000000000000     1.007825032230
         H            1.689230000000     0.000000000000     0.000000000000     1.007825032230

  Nuclear repulsion =   24.311929094340595
  Reference energy  =  -76.844770382896257

  ==> Basis Set <==

  Basis Set: CC-PVTZ
    Blend: CC-PVTZ
    Number of shells: 32
    Number of basis function: 88
    Number of Cartesian functions: 100
    Spherical Harmonics?: true
    Max angular momentum: 3

  ==> CGRSolver (by Rob Parrish) <==

   Number of roots    =         1
   Preconditioning    =    JACOBI
   Convergence cutoff =     1E-06
   Maximum iterations =       100

  ==> CPHFRHamiltonian (by Rob Parrish) <== 

  ==> MemDFJK: Density-Fitted J/K Matrices <==

    J tasked:                   Yes
    K tasked:                   Yes
    wK tasked:                   No
    OpenMP threads:               1
    Memory [MiB]:               375
    Algorithm:                 Core
    Schwarz Cutoff:           1E-12
    Mask sparsity (%):       0.1033
    Fitting Condition:        1E-10

   => Auxiliary Basis Set <=

  Basis Set: (CC-PVTZ AUX)
    Blend: CC-PVTZ-JKFIT
    Number of shells: 70
    Number of basis function: 218
    Number of Cartesian functions: 262
    Spherical Harmonics?: true
    Max angular momentum: 4

  ==> CPHF Iterations <==

  => Iterations <=

             Iter  Converged  Remaining    Residual
  CGR           1          0          1   6.262E-02
  CGR           2          0          1   1.226E-02
  CGR           3          0          1   2.179E-03
  CGR           4          0          1   2.251E-04
  CGR           5          0          1   3.165E-05
  CGR           6          0          1   2.205E-06
  CGR           7          1          0   2.059E-07

    CGRSolver converged.

Problem determining natural orbital and density matrix symmetries.
Future calls to oeprop using this density will not work. Try disabling symmetry.

  ==> DFCorrGrad: Density-Fitted Correlated Gradients <==

    OpenMP threads:              1
    Integrals threads:           1
    Memory [GiB]:            0.366
    Schwarz Cutoff:          0E+00
    Fitting Condition:       1E-10

   => Auxiliary Basis Set <=

  Basis Set: (CC-PVTZ AUX)
    Blend: CC-PVTZ-JKFIT
    Number of shells: 70
    Number of basis function: 218
    Number of Cartesian functions: 262
    Spherical Harmonics?: true
    Max angular momentum: 4

	-----------------------------------------------------------
	 ==================> DF-MP2 Energies <==================== 
	-----------------------------------------------------------
	 Reference Energy          =     -76.8447703828962574 [Eh]
	 Singles Energy            =      -0.0000000000000000 [Eh]
	 Same-Spin Energy          =      -0.0770820033977356 [Eh]
	 Opposite-Spin Energy      =      -0.2654049685938562 [Eh]
	 Correlation Energy        =      -0.3424869719915918 [Eh]
	 Total Energy              =     -77.1872573548878478 [Eh]
	-----------------------------------------------------------
	 ================> DF-SCS-MP2 Energies <================== 
	-----------------------------------------------------------
	 SCS Same-Spin Scale       =       0.3333333333333333 [-]
	 SCS Opposite-Spin Scale   =       1.2000000000000000 [-]
	 SCS Same-Spin Energy      =      -0.0256940011325785 [Eh]
	 SCS Opposite-Spin Energy  =      -0.3184859623126274 [Eh]
	 SCS Correlation Energy    =      -0.3441799634452060 [Eh]
	 SCS Total Energy          =     -77.1889503463414570 [Eh]
	-----------------------------------------------------------


  -Total Gradient:
     Atom            X                  Y                   Z
    ------   -----------------  -----------------  -----------------
       1       -0.027480966700    -0.000000000000     0.000000000000
       2        0.027480966700     0.000000000000     0.000000000000
       3       -0.012731465418    -0.000000000000     0.000000000000
       4        0.012731465418     0.000000000000     0.000000000000


*** tstop() called on atlantis at Tue Apr 19 01:45:32 2022
Module time:
	user time   =       1.03 seconds =       0.02 minutes
	system time =       0.01 seconds =       0.00 minutes
	total time  =          1 seconds =       0.02 minutes
Total time:
	user time   =       5.49 seconds =       0.09 minutes
	system time =       0.09 seconds =       0.00 minutes
	total time  =          6 seconds =       0.10 minutes

  //>>>>>>>>>>>>>>>>>>>>>>>>>>>>>>>>>>>//
  //    Loading displacement 3 of 12   //
  //<<<<<<<<<<<<<<<<<<<<<<<<<<<<<<<<<<<//
gradient() will perform analytic gradient computation.
    SCF Algorithm Type (re)set to DF.

*** tstart() called on atlantis
*** at Tue Apr 19 01:45:32 2022

   => Loading Basis Set <=

    Name: CC-PVTZ
    Role: ORBITAL
    Keyword: BASIS
    atoms 1-2 entry C          line   186 file /home/akrom/software/anaconda3/envs/ffpenv/share/psi4/basis/cc-pvtz.gbs 
    atoms 3-4 entry H          line    23 file /home/akrom/software/anaconda3/envs/ffpenv/share/psi4/basis/cc-pvtz.gbs 


         ---------------------------------------------------------
                                   SCF
               by Justin Turney, Rob Parrish, Andy Simmonett
                          and Daniel G. A. Smith
                              RHF Reference
                        1 Threads,    500 MiB Core
         ---------------------------------------------------------

  ==> Geometry <==

    Molecular point group: d2h
    Full point group: D_inf_h

    Geometry (in Angstrom), charge = 0, multiplicity = 1:

       Center              X                  Y                   Z               Mass       
    ------------   -----------------  -----------------  -----------------  -----------------
         C           -0.613919910771    -0.000000000000     0.000000000000    12.000000000000
         C            0.613919910771     0.000000000000     0.000000000000    12.000000000000
         H           -1.689230000000    -0.000000000000     0.000000000000     1.007825032230
         H            1.689230000000     0.000000000000     0.000000000000     1.007825032230

  Running in d2h symmetry.

  Rotational constants: A = ************  B =      1.13924  C =      1.13924 [cm^-1]
  Rotational constants: A = ************  B =  34153.69835  C =  34153.69835 [MHz]
  Nuclear repulsion =   24.334534488106961

  Charge       = 0
  Multiplicity = 1
  Electrons    = 14
  Nalpha       = 7
  Nbeta        = 7

  ==> Algorithm <==

  SCF Algorithm Type is DF.
  DIIS enabled.
  MOM disabled.
  Fractional occupation disabled.
  Guess Type is SAD.
  Energy threshold   = 1.00e-10
  Density threshold  = 1.00e-10
  Integral threshold = 0.00e+00

  ==> Primary Basis <==

  Basis Set: CC-PVTZ
    Blend: CC-PVTZ
    Number of shells: 32
    Number of basis function: 88
    Number of Cartesian functions: 100
    Spherical Harmonics?: true
    Max angular momentum: 3

   => Loading Basis Set <=

    Name: (CC-PVTZ AUX)
    Role: JKFIT
    Keyword: DF_BASIS_SCF
    atoms 1-2 entry C          line   125 file /home/akrom/software/anaconda3/envs/ffpenv/share/psi4/basis/cc-pvtz-jkfit.gbs 
    atoms 3-4 entry H          line    51 file /home/akrom/software/anaconda3/envs/ffpenv/share/psi4/basis/cc-pvtz-jkfit.gbs 

  ==> Pre-Iterations <==

   -------------------------------------------------------
    Irrep   Nso     Nmo     Nalpha   Nbeta   Ndocc  Nsocc
   -------------------------------------------------------
     Ag        20      20       0       0       0       0
     B1g       10      10       0       0       0       0
     B2g       10      10       0       0       0       0
     B3g        4       4       0       0       0       0
     Au         4       4       0       0       0       0
     B1u       10      10       0       0       0       0
     B2u       10      10       0       0       0       0
     B3u       20      20       0       0       0       0
   -------------------------------------------------------
    Total      88      88       7       7       7       0
   -------------------------------------------------------

  ==> Integral Setup <==

  DFHelper Memory: AOs need 0.015 GiB; user supplied 0.366 GiB. Using in-core AOs.

  ==> MemDFJK: Density-Fitted J/K Matrices <==

    J tasked:                   Yes
    K tasked:                   Yes
    wK tasked:                   No
    OpenMP threads:               1
    Memory [MiB]:               375
    Algorithm:                 Core
    Schwarz Cutoff:           1E-12
    Mask sparsity (%):       0.1033
    Fitting Condition:        1E-10

   => Auxiliary Basis Set <=

  Basis Set: (CC-PVTZ AUX)
    Blend: CC-PVTZ-JKFIT
    Number of shells: 70
    Number of basis function: 218
    Number of Cartesian functions: 262
    Spherical Harmonics?: true
    Max angular momentum: 4

  Minimum eigenvalue in the overlap matrix is 1.4087789024E-04.
  Using Symmetric Orthogonalization.

  SCF Guess: Superposition of Atomic Densities via on-the-fly atomic UHF.

  ==> Iterations <==

                           Total Energy        Delta E     RMS |[F,P]|

   @DF-RHF iter SAD:   -75.89612853288114   -7.58961e+01   0.00000e+00 
   @DF-RHF iter   1:   -76.80617801645927   -9.10049e-01   7.83222e-03 DIIS
   @DF-RHF iter   2:   -76.84071276278907   -3.45347e-02   2.67429e-03 DIIS
   @DF-RHF iter   3:   -76.84497956822442   -4.26681e-03   3.33250e-04 DIIS
   @DF-RHF iter   4:   -76.84512361760039   -1.44049e-04   4.09159e-05 DIIS
   @DF-RHF iter   5:   -76.84512588188397   -2.26428e-06   7.00480e-06 DIIS
   @DF-RHF iter   6:   -76.84512594596221   -6.40782e-08   1.23753e-06 DIIS
   @DF-RHF iter   7:   -76.84512594818402   -2.22181e-09   1.72156e-07 DIIS
   @DF-RHF iter   8:   -76.84512594822951   -4.54889e-11   1.56588e-08 DIIS
   @DF-RHF iter   9:   -76.84512594822984   -3.26850e-13   1.61225e-09 DIIS
   @DF-RHF iter  10:   -76.84512594822992   -8.52651e-14   1.58779e-10 DIIS
   @DF-RHF iter  11:   -76.84512594823002   -9.94760e-14   1.75893e-11 DIIS
  Energy and wave function converged.


  ==> Post-Iterations <==

    Orbital Energies [Eh]
    ---------------------

    Doubly Occupied:                                                      

       1Ag   -11.250705     1B3u  -11.247433     2Ag    -1.020743  
       2B3u   -0.764955     3Ag    -0.674807     1B1u   -0.403957  
       1B2u   -0.403957  

    Virtual:                                                              

       3B3u    0.149019     4Ag     0.170484     1B2g    0.170995  
       1B1g    0.170995     5Ag     0.311534     4B3u    0.397492  
       2B1u    0.436978     2B2u    0.436978     5B3u    0.512786  
       2B2g    0.570719     2B1g    0.570719     6Ag     0.601476  
       7Ag     0.772275     8Ag     0.772931     1B3g    0.772931  
       3B1u    0.796866     3B2u    0.796866     6B3u    0.934934  
       7B3u    1.060555     3B2g    1.061371     3B1g    1.061371  
       1Au     1.091192     8B3u    1.091192     9Ag     1.200965  
       4B1u    1.443119     4B2u    1.443119     9B3u    1.597767  
      10Ag     1.669458     4B2g    1.671903     4B1g    1.671903  
      10B3u    1.999565     5B1u    2.325524     5B2u    2.325524  
      11Ag     2.499330    11B3u    2.657211     2B3g    2.706648  
      12Ag     2.706648     5B1g    2.752711     5B2g    2.752711  
       6B2u    2.827186     6B1u    2.827186     7B1u    3.016935  
       7B2u    3.016935    13Ag     3.141464     6B2g    3.224530  
       6B1g    3.224530     7B1g    3.227003     7B2g    3.227003  
      14Ag     3.228609    15Ag     3.232129     3B3g    3.232129  
      12B3u    3.257634     2Au     3.295727    13B3u    3.295727  
       8B1u    3.437847     8B2u    3.437847    14B3u    3.459676  
       3Au     3.459676    15B3u    3.867360    16Ag     3.884950  
       4B3g    3.884950     8B1g    4.137741     8B2g    4.137741  
       9B1u    4.263855     9B2u    4.263855    17Ag     4.454030  
      16B3u    4.469729     4Au     4.469729    17B3u    4.779367  
       9B2g    4.846750     9B1g    4.846750    18Ag     5.155530  
      10B1u    5.731778    10B2u    5.731778    18B3u    6.093399  
      10B1g    6.300568    10B2g    6.300568    19B3u    6.336534  
      19Ag     6.703185    20Ag     9.372241    20B3u   16.181533  

    Final Occupation by Irrep:
             Ag   B1g   B2g   B3g    Au   B1u   B2u   B3u 
    DOCC [     3,    0,    0,    0,    0,    1,    1,    2 ]

  @DF-RHF Final Energy:   -76.84512594823002

   => Energetics <=

    Nuclear Repulsion Energy =             24.3345344881069607
    One-Electron Energy =                -150.8262065677230055
    Two-Electron Energy =                  49.6465461313860317
    Total Energy =                        -76.8451259482300202

Computation Completed


Properties will be evaluated at   0.000000,   0.000000,   0.000000 [a0]

Properties computed using the SCF density matrix

  Nuclear Dipole Moment: [e a0]
     X:     0.0000      Y:     0.0000      Z:     0.0000

  Electronic Dipole Moment: [e a0]
     X:     0.0000      Y:     0.0000      Z:     0.0000

  Dipole Moment: [e a0]
     X:     0.0000      Y:     0.0000      Z:     0.0000     Total:     0.0000

  Dipole Moment: [D]
     X:     0.0000      Y:     0.0000      Z:     0.0000     Total:     0.0000


*** tstop() called on atlantis at Tue Apr 19 01:45:33 2022
Module time:
	user time   =       0.47 seconds =       0.01 minutes
	system time =       0.02 seconds =       0.00 minutes
	total time  =          1 seconds =       0.02 minutes
Total time:
	user time   =       5.97 seconds =       0.10 minutes
	system time =       0.11 seconds =       0.00 minutes
	total time  =          7 seconds =       0.12 minutes

*** tstart() called on atlantis
*** at Tue Apr 19 01:45:33 2022


  //>>>>>>>>>>>>>>>>>>>>>>>>>>>>>>>>>>>//
  //               DFMP2               //
  //<<<<<<<<<<<<<<<<<<<<<<<<<<<<<<<<<<<//

   => Loading Basis Set <=

    Name: (CC-PVTZ AUX)
    Role: RIFIT
    Keyword: DF_BASIS_MP2
    atoms 1-2 entry C          line   209 file /home/akrom/software/anaconda3/envs/ffpenv/share/psi4/basis/cc-pvtz-ri.gbs 
    atoms 3-4 entry H          line    19 file /home/akrom/software/anaconda3/envs/ffpenv/share/psi4/basis/cc-pvtz-ri.gbs 

	 --------------------------------------------------------
	                          DF-MP2                         
	      2nd-Order Density-Fitted Moller-Plesset Theory     
	              RMP2 Wavefunction,   1 Threads             
	                                                         
	        Rob Parrish, Justin Turney, Andy Simmonett,      
	           Ed Hohenstein, and C. David Sherrill          
	 --------------------------------------------------------

   => Auxiliary Basis Set <=

  Basis Set: (CC-PVTZ AUX)
    Blend: CC-PVTZ-RI
    Number of shells: 66
    Number of basis function: 222
    Number of Cartesian functions: 272
    Spherical Harmonics?: true
    Max angular momentum: 4

	 --------------------------------------------------------
	                 NBF =    88, NAUX =   222
	 --------------------------------------------------------
	   CLASS    FOCC     OCC    AOCC    AVIR     VIR    FVIR
	   PAIRS       0       7       7      81      81       0
	 --------------------------------------------------------

  DFHelper Memory: AOs need 0.015 GiB; user supplied 0.366 GiB. Using in-core AOs.


         ------------------------------------------------------------
                                     CPHF                           
                                  Rob Parrish                       
         ------------------------------------------------------------

  ==> Geometry <==

    Molecular point group: d2h
    Full point group: D_inf_h

    Geometry (in Angstrom), charge = 0, multiplicity = 1:

       Center              X                  Y                   Z               Mass       
    ------------   -----------------  -----------------  -----------------  -----------------
         C           -0.613919910771    -0.000000000000     0.000000000000    12.000000000000
         C            0.613919910771     0.000000000000     0.000000000000    12.000000000000
         H           -1.689230000000    -0.000000000000     0.000000000000     1.007825032230
         H            1.689230000000     0.000000000000     0.000000000000     1.007825032230

  Nuclear repulsion =   24.334534488106961
  Reference energy  =  -76.845125948230020

  ==> Basis Set <==

  Basis Set: CC-PVTZ
    Blend: CC-PVTZ
    Number of shells: 32
    Number of basis function: 88
    Number of Cartesian functions: 100
    Spherical Harmonics?: true
    Max angular momentum: 3

  ==> CGRSolver (by Rob Parrish) <==

   Number of roots    =         1
   Preconditioning    =    JACOBI
   Convergence cutoff =     1E-06
   Maximum iterations =       100

  ==> CPHFRHamiltonian (by Rob Parrish) <== 

  ==> MemDFJK: Density-Fitted J/K Matrices <==

    J tasked:                   Yes
    K tasked:                   Yes
    wK tasked:                   No
    OpenMP threads:               1
    Memory [MiB]:               375
    Algorithm:                 Core
    Schwarz Cutoff:           1E-12
    Mask sparsity (%):       0.1033
    Fitting Condition:        1E-10

   => Auxiliary Basis Set <=

  Basis Set: (CC-PVTZ AUX)
    Blend: CC-PVTZ-JKFIT
    Number of shells: 70
    Number of basis function: 218
    Number of Cartesian functions: 262
    Spherical Harmonics?: true
    Max angular momentum: 4

  ==> CPHF Iterations <==

  => Iterations <=

             Iter  Converged  Remaining    Residual
  CGR           1          0          1   6.250E-02
  CGR           2          0          1   1.226E-02
  CGR           3          0          1   2.177E-03
  CGR           4          0          1   2.252E-04
  CGR           5          0          1   3.163E-05
  CGR           6          0          1   2.207E-06
  CGR           7          1          0   2.062E-07

    CGRSolver converged.

Problem determining natural orbital and density matrix symmetries.
Future calls to oeprop using this density will not work. Try disabling symmetry.

  ==> DFCorrGrad: Density-Fitted Correlated Gradients <==

    OpenMP threads:              1
    Integrals threads:           1
    Memory [GiB]:            0.366
    Schwarz Cutoff:          0E+00
    Fitting Condition:       1E-10

   => Auxiliary Basis Set <=

  Basis Set: (CC-PVTZ AUX)
    Blend: CC-PVTZ-JKFIT
    Number of shells: 70
    Number of basis function: 218
    Number of Cartesian functions: 262
    Spherical Harmonics?: true
    Max angular momentum: 4

	-----------------------------------------------------------
	 ==================> DF-MP2 Energies <==================== 
	-----------------------------------------------------------
	 Reference Energy          =     -76.8451259482300202 [Eh]
	 Singles Energy            =      -0.0000000000000000 [Eh]
	 Same-Spin Energy          =      -0.0770094067951578 [Eh]
	 Opposite-Spin Energy      =      -0.2652249765038220 [Eh]
	 Correlation Energy        =      -0.3422343832989798 [Eh]
	 Total Energy              =     -77.1873603315290069 [Eh]
	-----------------------------------------------------------
	 ================> DF-SCS-MP2 Energies <================== 
	-----------------------------------------------------------
	 SCS Same-Spin Scale       =       0.3333333333333333 [-]
	 SCS Opposite-Spin Scale   =       1.2000000000000000 [-]
	 SCS Same-Spin Energy      =      -0.0256698022650526 [Eh]
	 SCS Opposite-Spin Energy  =      -0.3182699718045864 [Eh]
	 SCS Correlation Energy    =      -0.3439397740696390 [Eh]
	 SCS Total Energy          =     -77.1890657222996595 [Eh]
	-----------------------------------------------------------


  -Total Gradient:
     Atom            X                  Y                   Z
    ------   -----------------  -----------------  -----------------
       1       -0.022959664289    -0.000000000000     0.000000000000
       2        0.022959664289     0.000000000000     0.000000000000
       3       -0.013546121099    -0.000000000000     0.000000000000
       4        0.013546121099     0.000000000000     0.000000000000


*** tstop() called on atlantis at Tue Apr 19 01:45:34 2022
Module time:
	user time   =       1.05 seconds =       0.02 minutes
	system time =       0.01 seconds =       0.00 minutes
	total time  =          1 seconds =       0.02 minutes
Total time:
	user time   =       7.02 seconds =       0.12 minutes
	system time =       0.12 seconds =       0.00 minutes
	total time  =          8 seconds =       0.13 minutes

  //>>>>>>>>>>>>>>>>>>>>>>>>>>>>>>>>>>>//
  //    Loading displacement 4 of 12   //
  //<<<<<<<<<<<<<<<<<<<<<<<<<<<<<<<<<<<//
gradient() will perform analytic gradient computation.
    SCF Algorithm Type (re)set to DF.

*** tstart() called on atlantis
*** at Tue Apr 19 01:45:34 2022

   => Loading Basis Set <=

[...]
       5B1     0.796736     5B2     0.796736    14A1     0.934340  
      15A1     1.060074     6B1     1.061314     6B2     1.061314  
      16A1     1.090932     2A2     1.090932    17A1     1.201206  
       7B2     1.442811     7B1     1.442811    18A1     1.597675  
      19A1     1.670326     8B1     1.672259     8B2     1.672259  
      20A1     1.998292     9B1     2.325777     9B2     2.325777  
      21A1     2.499129    22A1     2.656111     3A2     2.706289  
      23A1     2.706289    10B1     2.751592    10B2     2.751592  
      11B2     2.827388    11B1     2.827388    12B1     3.016415  
      12B2     3.016415    24A1     3.141269    13B1     3.224949  
      13B2     3.224949    14B1     3.226368    14B2     3.226368  
      25A1     3.228175    26A1     3.232109     4A2     3.232109  
      27A1     3.258446    28A1     3.295554     5A2     3.295554  
      15B2     3.437147    15B1     3.437147     6A2     3.459240  
      29A1     3.459240    30A1     3.867413     7A2     3.885128  
      31A1     3.885128    16B1     4.137433    16B2     4.137433  
      17B2     4.263889    17B1     4.263889    32A1     4.452950  
      33A1     4.469151     8A2     4.469151    34A1     4.780038  
      18B2     4.846664    18B1     4.846664    35A1     5.157690  
      19B2     5.731852    19B1     5.731852    36A1     6.094552  
      20B1     6.301163    20B2     6.301163    37A1     6.335907  
      38A1     6.700104    39A1     9.380606    40A1    16.156390  

    Final Occupation by Irrep:
             A1    A2    B1    B2 
    DOCC [     5,    0,    1,    1 ]

  @DF-RHF Final Energy:   -76.84494529980310

   => Energetics <=

    Nuclear Repulsion Energy =             24.3232393838559098
    One-Electron Energy =                -150.8023372063911722
    Two-Electron Energy =                  49.6341525227321725
    Total Energy =                        -76.8449452998031006

Computation Completed


Properties will be evaluated at   0.000000,   0.000000,   0.000000 [a0]

Properties computed using the SCF density matrix

  Nuclear Dipole Moment: [e a0]
     X:     0.0034      Y:     0.0000      Z:     0.0000

  Electronic Dipole Moment: [e a0]
     X:    -0.0017      Y:     0.0000      Z:     0.0000

  Dipole Moment: [e a0]
     X:     0.0017      Y:     0.0000      Z:     0.0000     Total:     0.0017

  Dipole Moment: [D]
     X:     0.0043      Y:     0.0000      Z:     0.0000     Total:     0.0043


*** tstop() called on atlantis at Tue Apr 19 01:45:46 2022
Module time:
	user time   =       0.48 seconds =       0.01 minutes
	system time =       0.00 seconds =       0.00 minutes
	total time  =          0 seconds =       0.00 minutes
Total time:
	user time   =      19.34 seconds =       0.32 minutes
	system time =       0.21 seconds =       0.00 minutes
	total time  =         20 seconds =       0.33 minutes

*** tstart() called on atlantis
*** at Tue Apr 19 01:45:46 2022


  //>>>>>>>>>>>>>>>>>>>>>>>>>>>>>>>>>>>//
  //               DFMP2               //
  //<<<<<<<<<<<<<<<<<<<<<<<<<<<<<<<<<<<//

   => Loading Basis Set <=

    Name: (CC-PVTZ AUX)
    Role: RIFIT
    Keyword: DF_BASIS_MP2
    atoms 1-2 entry C          line   209 file /home/akrom/software/anaconda3/envs/ffpenv/share/psi4/basis/cc-pvtz-ri.gbs 
    atoms 3-4 entry H          line    19 file /home/akrom/software/anaconda3/envs/ffpenv/share/psi4/basis/cc-pvtz-ri.gbs 

	 --------------------------------------------------------
	                          DF-MP2                         
	      2nd-Order Density-Fitted Moller-Plesset Theory     
	              RMP2 Wavefunction,   1 Threads             
	                                                         
	        Rob Parrish, Justin Turney, Andy Simmonett,      
	           Ed Hohenstein, and C. David Sherrill          
	 --------------------------------------------------------

   => Auxiliary Basis Set <=

  Basis Set: (CC-PVTZ AUX)
    Blend: CC-PVTZ-RI
    Number of shells: 66
    Number of basis function: 222
    Number of Cartesian functions: 272
    Spherical Harmonics?: true
    Max angular momentum: 4

	 --------------------------------------------------------
	                 NBF =    88, NAUX =   222
	 --------------------------------------------------------
	   CLASS    FOCC     OCC    AOCC    AVIR     VIR    FVIR
	   PAIRS       0       7       7      81      81       0
	 --------------------------------------------------------

  DFHelper Memory: AOs need 0.015 GiB; user supplied 0.366 GiB. Using in-core AOs.


         ------------------------------------------------------------
                                     CPHF                           
                                  Rob Parrish                       
         ------------------------------------------------------------

  ==> Geometry <==

    Molecular point group: c2v
    Full point group: C_inf_v

    Geometry (in Angstrom), charge = 0, multiplicity = 1:

       Center              X                  Y                   Z               Mass       
    ------------   -----------------  -----------------  -----------------  -----------------
         C           -0.614610333491     0.000000000000     0.000000000000    12.000000000000
         C            0.614309666509     0.000000000000     0.000000000000    12.000000000000
         H           -1.687440004874     0.000000000000     0.000000000000     1.007825032230
         H            1.691019995126     0.000000000000     0.000000000000     1.007825032230

  Nuclear repulsion =   24.323239383855910
  Reference energy  =  -76.844945299803101

  ==> Basis Set <==

  Basis Set: CC-PVTZ
    Blend: CC-PVTZ
    Number of shells: 32
    Number of basis function: 88
    Number of Cartesian functions: 100
    Spherical Harmonics?: true
    Max angular momentum: 3

  ==> CGRSolver (by Rob Parrish) <==

   Number of roots    =         1
   Preconditioning    =    JACOBI
   Convergence cutoff =     1E-06
   Maximum iterations =       100

  ==> CPHFRHamiltonian (by Rob Parrish) <== 

  ==> MemDFJK: Density-Fitted J/K Matrices <==

    J tasked:                   Yes
    K tasked:                   Yes
    wK tasked:                   No
    OpenMP threads:               1
    Memory [MiB]:               375
    Algorithm:                 Core
    Schwarz Cutoff:           1E-12
    Mask sparsity (%):       0.1033
    Fitting Condition:        1E-10

   => Auxiliary Basis Set <=

  Basis Set: (CC-PVTZ AUX)
    Blend: CC-PVTZ-JKFIT
    Number of shells: 70
    Number of basis function: 218
    Number of Cartesian functions: 262
    Spherical Harmonics?: true
    Max angular momentum: 4

  ==> CPHF Iterations <==

  => Iterations <=

             Iter  Converged  Remaining    Residual
  CGR           1          0          1   6.256E-02
  CGR           2          0          1   1.226E-02
  CGR           3          0          1   2.179E-03
  CGR           4          0          1   3.187E-04
  CGR           5          0          1   1.168E-04
  CGR           6          0          1   1.715E-05
  CGR           7          0          1   1.205E-06
  CGR           8          1          0   1.138E-07

    CGRSolver converged.

  ==> DFCorrGrad: Density-Fitted Correlated Gradients <==

    OpenMP threads:              1
    Integrals threads:           1
    Memory [GiB]:            0.366
    Schwarz Cutoff:          0E+00
    Fitting Condition:       1E-10

   => Auxiliary Basis Set <=

  Basis Set: (CC-PVTZ AUX)
    Blend: CC-PVTZ-JKFIT
    Number of shells: 70
    Number of basis function: 218
    Number of Cartesian functions: 262
    Spherical Harmonics?: true
    Max angular momentum: 4

	-----------------------------------------------------------
	 ==================> DF-MP2 Energies <==================== 
	-----------------------------------------------------------
	 Reference Energy          =     -76.8449452998031006 [Eh]
	 Singles Energy            =      -0.0000000000000000 [Eh]
	 Same-Spin Energy          =      -0.0770456854963997 [Eh]
	 Opposite-Spin Energy      =      -0.2653150811230240 [Eh]
	 Correlation Energy        =      -0.3423607666194238 [Eh]
	 Total Energy              =     -77.1873060664225221 [Eh]
	-----------------------------------------------------------
	 ================> DF-SCS-MP2 Energies <================== 
	-----------------------------------------------------------
	 SCS Same-Spin Scale       =       0.3333333333333333 [-]
	 SCS Opposite-Spin Scale   =       1.2000000000000000 [-]
	 SCS Same-Spin Energy      =      -0.0256818951654666 [Eh]
	 SCS Opposite-Spin Energy  =      -0.3183780973476288 [Eh]
	 SCS Correlation Energy    =      -0.3440599925130954 [Eh]
	 SCS Total Energy          =     -77.1890052923161960 [Eh]
	-----------------------------------------------------------


  -Total Gradient:
     Atom            X                  Y                   Z
    ------   -----------------  -----------------  -----------------
       1       -0.026620336751     0.000000000000     0.000000000000
       2        0.023847236106     0.000000000000     0.000000000000
       3       -0.011745132152     0.000000000000     0.000000000000
       4        0.014518232797     0.000000000000     0.000000000000


*** tstop() called on atlantis at Tue Apr 19 01:45:47 2022
Module time:
	user time   =       1.04 seconds =       0.02 minutes
	system time =       0.01 seconds =       0.00 minutes
	total time  =          1 seconds =       0.02 minutes
Total time:
	user time   =      20.38 seconds =       0.34 minutes
	system time =       0.22 seconds =       0.00 minutes
	total time  =         21 seconds =       0.35 minutes

         ----------------------------------------------------------
                                   FINDIF
                     R. A. King and Jonathon Misiewicz
         ---------------------------------------------------------

  Computing second-derivative from gradients using projected, 
  symmetry-adapted, cartesian coordinates.

  12 gradients passed in, including the reference geometry.
  Generating complete list of displacements from unique ones.

    Operation 3 takes plus displacements of irrep B1g to minus ones.
    Operation 2 takes plus displacements of irrep B2g to minus ones.
    Operation 3 takes plus displacements of irrep B1u to minus ones.
    Operation 2 takes plus displacements of irrep B2u to minus ones.
    Operation 2 takes plus displacements of irrep B3u to minus ones.

-------------------------------------------------------------


  ==> Harmonic Vibrational Analysis <==

  non-mass-weighted Hessian:       Symmetric? True   Hermitian? True   Lin Dep Dim?  3 (0)
  projection of translations (True) and rotations (False) removed 3 degrees of freedom (5)
  total projector:                 Symmetric? True   Hermitian? True   Lin Dep Dim?  3 (3)
  mass-weighted Hessian:           Symmetric? True   Hermitian? True   Lin Dep Dim?  3 (0)
  pre-proj  low-frequency mode:    0.0000i [cm^-1]
  pre-proj  low-frequency mode:    0.0000i [cm^-1]
  pre-proj  low-frequency mode:    0.0000  [cm^-1]
  pre-proj  low-frequency mode:  262.7535  [cm^-1]
  pre-proj  low-frequency mode:  262.7535  [cm^-1]
  pre-proj  all modes:['0.0000i' '0.0000i' '0.0000' '262.7535' '262.7535' '687.9856' '687.9856'
 '847.3093' '847.3093' '1865.5793' '3278.3413' '3385.2513']
  projected mass-weighted Hessian: Symmetric? True   Hermitian? True   Lin Dep Dim?  3 (3)
  post-proj low-frequency mode:    0.0000i [cm^-1] (TR)
  post-proj low-frequency mode:    0.0000  [cm^-1] (TR)
  post-proj low-frequency mode:    0.0001  [cm^-1] (TR)
  post-proj low-frequency mode:  262.7535  [cm^-1] (V)
  post-proj low-frequency mode:  262.7535  [cm^-1] (V)
  post-proj  all modes:['0.0000i' '0.0000' '0.0001' '262.7535' '262.7535' '687.9856' '687.9856'
 '847.3093' '847.3093' '1865.5793' '3278.3413' '3385.2513']

  Note that "Vibration"s include 2 un-projected rotation-like modes.
  Vibration                       4                   5                   6           
  Freq [cm^-1]                 262.7535            262.7535            687.9856       
  Irrep                          B2g                 B1g                 B1g          
  Reduced mass [u]              2.6800              2.6800              1.4236        
  Force const [mDyne/A]         0.1090              0.1090              0.3970        
  Turning point v=0 [a0]        0.4135              0.4135              0.3506        
  RMS dev v=0 [a0 u^1/2]        0.4787              0.4787              0.2958        
  Char temp [K]                378.0438            378.0438            989.8580       
  ----------------------------------------------------------------------------------
      1   C               -0.00 -0.00  0.28   -0.00  0.28  0.00    0.00 -0.14  0.00   
      2   C               -0.00  0.00 -0.28   -0.00 -0.28 -0.00    0.00  0.14 -0.00   
      3   H               -0.00 -0.00  0.65   -0.00  0.65  0.00    0.00  0.69 -0.00   
      4   H               -0.00  0.00 -0.65   -0.00 -0.65 -0.00    0.00 -0.69  0.00   

  Vibration                       7                   8                   9           
  Freq [cm^-1]                 687.9856            847.3093            847.3093       
  Irrep                          B2g                 B2u                 B1u          
  Reduced mass [u]              1.4236              1.0848              1.0848        
  Force const [mDyne/A]         0.3970              0.4589              0.4589        
  Turning point v=0 [a0]        0.3506              0.3619              0.3619        
  RMS dev v=0 [a0 u^1/2]        0.2958              0.2665              0.2665        
  Char temp [K]                989.8580           1219.0894           1219.0894       
  ----------------------------------------------------------------------------------
      1   C                0.00 -0.00 -0.14    0.00 -0.06  0.00    0.00 -0.00 -0.06   
      2   C                0.00  0.00  0.14    0.00 -0.06  0.00    0.00 -0.00 -0.06   
      3   H                0.00  0.00  0.69    0.00  0.70 -0.00    0.00  0.00  0.70   
      4   H                0.00 -0.00 -0.69    0.00  0.70 -0.00    0.00  0.00  0.70   

  Vibration                       10                  11                  12          
  Freq [cm^-1]                1865.5793           3278.3413           3385.2513       
  Irrep                           Ag                 B3u                  Ag          
  Reduced mass [u]              4.1242              1.0848              1.2003        
  Force const [mDyne/A]         8.4571              6.8693              8.1047        
  Turning point v=0 [a0]        0.1251              0.1840              0.1721        
  RMS dev v=0 [a0 u^1/2]        0.1796              0.1355              0.1334        
  Char temp [K]               2684.1532           4716.8032           4870.6229       
  ----------------------------------------------------------------------------------
      1   C                0.38 -0.00  0.00   -0.06  0.00  0.00   -0.09 -0.00  0.00   
      2   C               -0.38  0.00 -0.00   -0.06  0.00 -0.00    0.09  0.00  0.00   
      3   H                0.60  0.00 -0.00    0.70  0.00  0.00    0.70  0.00 -0.00   
      4   H               -0.60  0.00  0.00    0.70  0.00  0.00   -0.70 -0.00 -0.00   

  ==> Thermochemistry Components <==

  Entropy, S
    Electronic S            0.000 [cal/(mol K)]        0.000 [J/(mol K)]       0.00000000 [mEh/K] (multiplicity = 1)
    Translational S        35.704 [cal/(mol K)]      149.387 [J/(mol K)]       0.05689862 [mEh/K] (mol. weight = 26.0157 [u], P = 101325.00 [Pa])
    Rotational S           10.952 [cal/(mol K)]       45.824 [J/(mol K)]       0.01745345 [mEh/K] (symmetry no. = 2)
    Vibrational S           4.275 [cal/(mol K)]       17.885 [J/(mol K)]       0.00681215 [mEh/K]
  Total S                  50.931 [cal/(mol K)]      213.097 [J/(mol K)]       0.08116422 [mEh/K]
  Correction S              0.000 [cal/(mol K)]        0.000 [J/(mol K)]       0.00000000 [mEh/K]

  Constant volume heat capacity, Cv
    Electronic Cv           0.000 [cal/(mol K)]        0.000 [J/(mol K)]       0.00000000 [mEh/K]
    Translational Cv        2.981 [cal/(mol K)]       12.472 [J/(mol K)]       0.00475022 [mEh/K]
    Rotational Cv           1.987 [cal/(mol K)]        8.314 [J/(mol K)]       0.00316681 [mEh/K]
    Vibrational Cv          6.359 [cal/(mol K)]       26.605 [J/(mol K)]       0.01013327 [mEh/K]
  Total Cv                 11.327 [cal/(mol K)]       47.391 [J/(mol K)]       0.01805029 [mEh/K]
  Correction Cv             0.000 [cal/(mol K)]        0.000 [J/(mol K)]       0.00000000 [mEh/K]

  Constant pressure heat capacity, Cp
    Electronic Cp           0.000 [cal/(mol K)]        0.000 [J/(mol K)]       0.00000000 [mEh/K]
    Translational Cp        4.968 [cal/(mol K)]       20.786 [J/(mol K)]       0.00791703 [mEh/K]
    Rotational Cp           1.987 [cal/(mol K)]        8.314 [J/(mol K)]       0.00316681 [mEh/K]
    Vibrational Cp          6.359 [cal/(mol K)]       26.605 [J/(mol K)]       0.01013327 [mEh/K]
  Total Cp                 13.314 [cal/(mol K)]       55.705 [J/(mol K)]       0.02121710 [mEh/K]
  Correction Cp             0.000 [cal/(mol K)]        0.000 [J/(mol K)]       0.00000000 [mEh/K]

  ==> Thermochemistry Energy Analysis <==

  Raw electronic energy, E0
  Total E0, Electronic energy at well bottom at 0 [K]                  -77.18731115 [Eh]

  Zero-point energy, ZPE_vib = Sum_i nu_i / 2
    Electronic ZPE          0.000 [kcal/mol]        0.000 [kJ/mol]       0.00000000 [Eh]
    Translational ZPE       0.000 [kcal/mol]        0.000 [kJ/mol]       0.00000000 [Eh]
    Rotational ZPE          0.000 [kcal/mol]        0.000 [kJ/mol]       0.00000000 [Eh]
    Vibrational ZPE        17.334 [kcal/mol]       72.525 [kJ/mol]       0.02762339 [Eh]        6062.634 [cm^-1]
  Correction ZPE           17.334 [kcal/mol]       72.525 [kJ/mol]       0.02762339 [Eh]        6062.634 [cm^-1]
  Total ZPE, Electronic energy at 0 [K]                                -77.15968776 [Eh]

  Thermal Energy, E (includes ZPE)
    Electronic E            0.000 [kcal/mol]        0.000 [kJ/mol]       0.00000000 [Eh]
    Translational E         0.889 [kcal/mol]        3.718 [kJ/mol]       0.00141628 [Eh]
    Rotational E            0.592 [kcal/mol]        2.479 [kJ/mol]       0.00094418 [Eh]
    Vibrational E          18.153 [kcal/mol]       75.953 [kJ/mol]       0.02892885 [Eh]
  Correction E             19.634 [kcal/mol]       82.150 [kJ/mol]       0.03128931 [Eh]
  Total E, Electronic energy at  298.15 [K]                            -77.15602184 [Eh]

  Enthalpy, H_trans = E_trans + k_B * T
    Electronic H            0.000 [kcal/mol]        0.000 [kJ/mol]       0.00000000 [Eh]
    Translational H         1.481 [kcal/mol]        6.197 [kJ/mol]       0.00236046 [Eh]
    Rotational H            0.592 [kcal/mol]        2.479 [kJ/mol]       0.00094418 [Eh]
    Vibrational H          18.153 [kcal/mol]       75.953 [kJ/mol]       0.02892885 [Eh]
  Correction H             20.227 [kcal/mol]       84.629 [kJ/mol]       0.03223350 [Eh]
  Total H, Enthalpy at  298.15 [K]                                     -77.15507765 [Eh]

  Gibbs free energy, G = H - T * S
    Electronic G            0.000 [kcal/mol]        0.000 [kJ/mol]       0.00000000 [Eh]
    Translational G        -9.164 [kcal/mol]      -38.342 [kJ/mol]      -0.01460386 [Eh]
    Rotational G           -2.673 [kcal/mol]      -11.183 [kJ/mol]      -0.00425956 [Eh]
    Vibrational G          16.879 [kcal/mol]       70.620 [kJ/mol]       0.02689781 [Eh]
  Correction G              5.042 [kcal/mol]       21.094 [kJ/mol]       0.00803438 [Eh]
  Total G, Free enthalpy at  298.15 [K]                                -77.17927677 [Eh]

    Psi4 stopped on: Tuesday, 19 April 2022 01:45AM
    Psi4 wall time for execution: 0:00:20.89

*** Psi4 exiting successfully. Buy a developer a beer!
