
    -----------------------------------------------------------------------
          Psi4: An Open-Source Ab Initio Electronic Structure Package
                               Psi4 1.3.2 release

                         Git: Rev {HEAD} ecbda83 


    R. M. Parrish, L. A. Burns, D. G. A. Smith, A. C. Simmonett,
    A. E. DePrince III, E. G. Hohenstein, U. Bozkaya, A. Yu. Sokolov,
    R. Di Remigio, R. M. Richard, J. F. Gonthier, A. M. James,
    H. R. McAlexander, A. Kumar, M. Saitow, X. Wang, B. P. Pritchard,
    P. Verma, H. F. Schaefer III, K. Patkowski, R. A. King, E. F. Valeev,
    F. A. Evangelista, J. M. Turney, T. D. Crawford, and C. D. Sherrill,
    J. Chem. Theory Comput. 13(7) pp 3185--3197 (2017).
    (doi: 10.1021/acs.jctc.7b00174)


                         Additional Contributions by
    P. Kraus, H. Kruse, M. H. Lechner, M. C. Schieber, R. A. Shaw,
    A. Alenaizan, R. Galvelis, Z. L. Glick, S. Lehtola, and J. P. Misiewicz

    -----------------------------------------------------------------------


    Psi4 started on: Tuesday, 19 April 2022 02:37PM

    Process ID: 2421
    Host:       atlantis
    PSIDATADIR: /home/akrom/software/anaconda3/envs/ffpenv/share/psi4
    Memory:     500.0 MiB
    Threads:    1
    
  ==> Input File <==

--------------------------------------------------------------------------
set basis  aug-cc-pVTZ
molecule {
0 1
   C        0.32153        0.81326        0.00000
   C       -0.86505       -0.12817        0.00000
   C        0.54353       -0.68508        0.00000
   H        0.53795        1.36069       -0.92039
   H        0.53795        1.36069        0.92039
   H       -1.44742       -0.21449        0.92034
   H       -1.44742       -0.21449       -0.92034
   H        0.90937       -1.14629       -0.92037
   H        0.90937       -1.14629        0.92037
}
energy('B3LYP')
frequencies('B3LYP')
--------------------------------------------------------------------------

*** tstart() called on atlantis
*** at Tue Apr 19 14:37:47 2022

   => Loading Basis Set <=

    Name: AUG-CC-PVTZ
    Role: ORBITAL
    Keyword: BASIS
    atoms 1-3 entry C          line   235 file /home/akrom/software/anaconda3/envs/ffpenv/share/psi4/basis/aug-cc-pvtz.gbs 
    atoms 4-9 entry H          line    36 file /home/akrom/software/anaconda3/envs/ffpenv/share/psi4/basis/aug-cc-pvtz.gbs 


         ---------------------------------------------------------
                                   SCF
               by Justin Turney, Rob Parrish, Andy Simmonett
                          and Daniel G. A. Smith
                              RKS Reference
                        1 Threads,    500 MiB Core
         ---------------------------------------------------------

  ==> Geometry <==

    Molecular point group: cs
    Full point group: Cs

    Geometry (in Angstrom), charge = 0, multiplicity = 1:

       Center              X                  Y                   Z               Mass       
    ------------   -----------------  -----------------  -----------------  -----------------
         C            0.321531939855     0.813261460475     0.000000000000    12.000000000000
         C           -0.865048060145    -0.128168539525     0.000000000000    12.000000000000
         C            0.543531939855    -0.685078539525     0.000000000000    12.000000000000
         H            0.537951939855     1.360691460475    -0.920390000000     1.007825032230
         H            0.537951939855     1.360691460475     0.920390000000     1.007825032230
         H           -1.447418060145    -0.214488539525     0.920340000000     1.007825032230
         H           -1.447418060145    -0.214488539525    -0.920340000000     1.007825032230
         H            0.909371939855    -1.146288539525    -0.920370000000     1.007825032230
         H            0.909371939855    -1.146288539525     0.920370000000     1.007825032230

  Running in cs symmetry.

  Rotational constants: A =      0.66472  B =      0.66470  C =      0.41647 [cm^-1]
  Rotational constants: A =  19927.70596  B =  19927.20236  C =  12485.44714 [MHz]
  Nuclear repulsion =   75.281464809014025

  Charge       = 0
  Multiplicity = 1
  Electrons    = 24
  Nalpha       = 12
  Nbeta        = 12

  ==> Algorithm <==

  SCF Algorithm Type is DF.
  DIIS enabled.
  MOM disabled.
  Fractional occupation disabled.
  Guess Type is SAD.
  Energy threshold   = 1.00e-06
  Density threshold  = 1.00e-06
  Integral threshold = 0.00e+00

  ==> Primary Basis <==

  Basis Set: AUG-CC-PVTZ
    Blend: AUG-CC-PVTZ
    Number of shells: 96
    Number of basis function: 276
    Number of Cartesian functions: 315
    Spherical Harmonics?: true
    Max angular momentum: 3

  ==> DFT Potential <==

   => Composite Functional: B3LYP <= 

    B3LYP Hyb-GGA Exchange-Correlation Functional

    P. J. Stephens, F. J. Devlin, C. F. Chabalowski, and M. J. Frisch, J. Phys. Chem. 98, 11623 (1994)

    Deriv               =              1
    GGA                 =           TRUE
    Meta                =          FALSE

    Exchange Hybrid     =           TRUE
    MP2 Hybrid          =          FALSE

   => Exchange Functionals <=

    0.0800   Slater exchange
    0.7200         Becke 88

   => Exact (HF) Exchange <=

    0.2000               HF 

   => Correlation Functionals <=

    0.1900   Vosko, Wilk & Nusair (VWN5_RPA)
    0.8100   Lee, Yang & Parr

   => Molecular Quadrature <=

    Radial Scheme          =       TREUTLER
    Pruning Scheme         =           FLAT
    Nuclear Scheme         =       TREUTLER

    BS radius alpha        =              1
    Pruning alpha          =              1
    Radial Points          =             75
    Spherical Points       =            302
    Total Points           =         203850
    Total Blocks           =           1576
    Max Points             =            256
    Max Functions          =            276

   => Loading Basis Set <=

    Name: (AUG-CC-PVTZ AUX)
    Role: JKFIT
    Keyword: DF_BASIS_SCF
    atoms 1-3 entry C          line   162 file /home/akrom/software/anaconda3/envs/ffpenv/share/psi4/basis/aug-cc-pvtz-jkfit.gbs 
    atoms 4-9 entry H          line    70 file /home/akrom/software/anaconda3/envs/ffpenv/share/psi4/basis/aug-cc-pvtz-jkfit.gbs 

  ==> Pre-Iterations <==

   -------------------------------------------------------
    Irrep   Nso     Nmo     Nalpha   Nbeta   Ndocc  Nsocc
   -------------------------------------------------------
     A'       159     159       0       0       0       0
     A"       117     117       0       0       0       0
   -------------------------------------------------------
    Total     276     276      12      12      12       0
   -------------------------------------------------------

  ==> Integral Setup <==

  DFHelper Memory: AOs need 0.352 GiB; user supplied 0.352 GiB. Using in-core AOs.

  ==> MemDFJK: Density-Fitted J/K Matrices <==

    J tasked:                   Yes
    K tasked:                   Yes
    wK tasked:                   No
    OpenMP threads:               1
    Memory [MiB]:               360
    Algorithm:                 Core
    Schwarz Cutoff:           1E-12
    Mask sparsity (%):       0.0000
    Fitting Condition:        1E-10

   => Auxiliary Basis Set <=

  Basis Set: (AUG-CC-PVTZ AUX)
    Blend: AUG-CC-PVTZ-JKFIT
    Number of shells: 174
    Number of basis function: 588
    Number of Cartesian functions: 723
    Spherical Harmonics?: true
    Max angular momentum: 4

  Cached 1.0% of DFT collocation blocks in 0.012 [GiB].

  Minimum eigenvalue in the overlap matrix is 1.6775936804E-05.
  Using Symmetric Orthogonalization.

  SCF Guess: Superposition of Atomic Densities via on-the-fly atomic UHF.

  ==> Iterations <==

                           Total Energy        Delta E     RMS |[F,P]|

   @DF-RKS iter SAD:  -117.42286096555941   -1.17423e+02   0.00000e+00 
   @DF-RKS iter   1:  -117.46199601184965   -3.91350e-02   4.89318e-03 DIIS
   @DF-RKS iter   2:  -116.79988254858083    6.62113e-01   7.19575e-03 DIIS
   @DF-RKS iter   3:  -117.93988017630258   -1.14000e+00   3.72188e-04 DIIS
   @DF-RKS iter   4:  -117.94269854199419   -2.81837e-03   7.30065e-05 DIIS
   @DF-RKS iter   5:  -117.94278932543664   -9.07834e-05   1.01151e-05 DIIS
   @DF-RKS iter   6:  -117.94279132834748   -2.00291e-06   3.32493e-07 DIIS
   @DF-RKS iter   7:  -117.94279133338995   -5.04247e-09   3.84242e-08 DIIS
  Energy and wave function converged.


  ==> Post-Iterations <==

    Orbital Energies [Eh]
    ---------------------

    Doubly Occupied:                                                      

       1Ap   -10.177351     2Ap   -10.176969     3Ap   -10.176963  
       4Ap    -0.847578     5Ap    -0.596658     6Ap    -0.596653  
       1App   -0.493736     7Ap    -0.464986     2App   -0.365553  
       3App   -0.365539     8Ap    -0.297750     9Ap    -0.297744  

    Virtual:                                                              

      10Ap    -0.005629     4App    0.007906    11Ap     0.009988  
      12Ap     0.009989     5App    0.041736     6App    0.041737  
      13Ap     0.052283    14Ap     0.062291    15Ap     0.062293  
       7App    0.082212    16Ap     0.085934    17Ap     0.085935  
      18Ap     0.090568    19Ap     0.091957     8App    0.119772  
       9App    0.119773    20Ap     0.126723    21Ap     0.126730  
      22Ap     0.149277    10App    0.162362    23Ap     0.167923  
      11App    0.171585    12App    0.171588    24Ap     0.201832  
      25Ap     0.201835    26Ap     0.203387    27Ap     0.249009  
      28Ap     0.249017    13App    0.259498    29Ap     0.274948  
      30Ap     0.274955    14App    0.280222    15App    0.293110  
      16App    0.293115    31Ap     0.313781    17App    0.320070  
      18App    0.320078    19App    0.333901    32Ap     0.338604  
      33Ap     0.341118    34Ap     0.341123    35Ap     0.344328  
      36Ap     0.344330    37Ap     0.354195    20App    0.384866  
      21App    0.385225    22App    0.385234    38Ap     0.388619  
      39Ap     0.388628    40Ap     0.428477    23App    0.440396  
      24App    0.440396    41Ap     0.443660    42Ap     0.461301  
      43Ap     0.461305    44Ap     0.487478    45Ap     0.487485  
      46Ap     0.500788    25App    0.529469    26App    0.529493  
      27App    0.552908    28App    0.580455    47Ap     0.607399  
      48Ap     0.607401    29App    0.636113    30App    0.636126  
      31App    0.691257    49Ap     0.716955    50Ap     0.716956  
      51Ap     0.723990    52Ap     0.734493    32App    0.760469  
      33App    0.760474    53Ap     0.779166    54Ap     0.783170  
      55Ap     0.783182    56Ap     0.794947    57Ap     0.809428  
      58Ap     0.809432    34App    0.830116    35App    0.830125  
      36App    0.844986    59Ap     0.867290    60Ap     0.867311  
      37App    0.895350    38App    0.896931    61Ap     0.920240  
      62Ap     0.920253    39App    0.955880    40App    0.955885  
      63Ap     0.965183    41App    0.971443    42App    0.971448  
      64Ap     0.986928    65Ap     1.015310    66Ap     1.015316  
      67Ap     1.028409    68Ap     1.083419    69Ap     1.083424  
      43App    1.093345    44App    1.093356    70Ap     1.114102  
      45App    1.160355    46App    1.160360    47App    1.184133  
      48App    1.212364    49App    1.212375    50App    1.223316  
      71Ap     1.227610    72Ap     1.227633    51App    1.237122  
      73Ap     1.258861    74Ap     1.347437    75Ap     1.347443  
      76Ap     1.356545    77Ap     1.356560    52App    1.375877  
      78Ap     1.390243    53App    1.393545    54App    1.393574  
      79Ap     1.448426    80Ap     1.448435    81Ap     1.456003  
      55App    1.476096    56App    1.518666    82Ap     1.543908  
      83Ap     1.555138    84Ap     1.555164    57App    1.630982  
      58App    1.631025    59App    1.649204    60App    1.649220  
      85Ap     1.668266    86Ap     1.693244    87Ap     1.704498  
      88Ap     1.704518    61App    1.709759    89Ap     1.745950  
      90Ap     1.745978    62App    1.796448    63App    1.796459  
      91Ap     1.820877    92Ap     1.825449    93Ap     1.825466  
      94Ap     1.861918    64App    1.904705    65App    1.940992  
      95Ap     1.978491    96Ap     1.978537    66App    2.030573  
      67App    2.030637    68App    2.119418    69App    2.119436  
      70App    2.140018    97Ap     2.151842    98Ap     2.151880  
      71App    2.250885    72App    2.250911    99Ap     2.267311  
     100Ap     2.330590   101Ap     2.330653   102Ap     2.341146  
      73App    2.645817   103Ap     2.783023   104Ap     2.848026  
     105Ap     2.848069   106Ap     2.965144    74App    2.972532  
      75App    2.972574   107Ap     3.069684   108Ap     3.069732  
     109Ap     3.122785    76App    3.151991   110Ap     3.223711  
      77App    3.276857    78App    3.302693    79App    3.302710  
     111Ap     3.305599   112Ap     3.305610   113Ap     3.331248  
     114Ap     3.331275   115Ap     3.363473    80App    3.395681  
      81App    3.395723    82App    3.414268   116Ap     3.468087  
     117Ap     3.493012   118Ap     3.493030    83App    3.526526  
      84App    3.526558    85App    3.573470   119Ap     3.607705  
      86App    3.652710   120Ap     3.687758   121Ap     3.687773  
      87App    3.733038    88App    3.733080   122Ap     3.783319  
     123Ap     3.783346    89App    3.820094    90App    3.820106  
     124Ap     3.843486    91App    3.889324   125Ap     3.979759  
     126Ap     3.998342   127Ap     3.998364    92App    4.022582  
      93App    4.022646   128Ap     4.027270   129Ap     4.027301  
      94App    4.058784    95App    4.145288    96App    4.145298  
     130Ap     4.210949   131Ap     4.310482   132Ap     4.408100  
     133Ap     4.408117    97App    4.473119    98App    4.473161  
     134Ap     4.484827   135Ap     4.497589   136Ap     4.497645  
     137Ap     4.554507   138Ap     4.554514    99App    4.558579  
     100App    4.558606   139Ap     4.633597   140Ap     4.633638  
     101App    4.652116   102App    4.847088   141Ap     4.847141  
     142Ap     4.847148   103App    4.854549   143Ap     4.876640  
     144Ap     4.966783   104App    5.017081   105App    5.017118  
     145Ap     5.059906   146Ap     5.059950   106App    5.179209  
     107App    5.179224   108App    5.207328   147Ap     5.257775  
     148Ap     5.284189   109App    5.316695   149Ap     5.329575  
     150Ap     5.329631   110App    5.361939   111App    5.532436  
     112App    5.532476   151Ap     5.609292   152Ap     5.757333  
     153Ap     5.915089   154Ap     5.915133   155Ap     6.001770  
     156Ap     6.001818   113App    6.109444   114App    6.128693  
     115App    6.128809   116App    6.385326   117App    6.385365  
     157Ap    15.728059   158Ap    16.245222   159Ap    16.245502  

    Final Occupation by Irrep:
             Ap   App 
    DOCC [     9,    3 ]

  @DF-RKS Final Energy:  -117.94279133338995

   => Energetics <=

    Nuclear Repulsion Energy =             75.2814648090140253
    One-Electron Energy =                -305.9600062432110690
    Two-Electron Energy =                 127.7164732054947649
    DFT Exchange-Correlation Energy =     -14.9807231046876854
    Empirical Dispersion Energy =           0.0000000000000000
    VV10 Nonlocal Energy =                  0.0000000000000000
    Total Energy =                       -117.9427913333899482

Computation Completed


Properties will be evaluated at   0.000000,   0.000000,   0.000000 [a0]

Properties computed using the SCF density matrix

  Nuclear Dipole Moment: [e a0]
     X:    -0.0002      Y:    -0.0002      Z:     0.0000

  Electronic Dipole Moment: [e a0]
     X:     0.0001      Y:     0.0001      Z:     0.0000

  Dipole Moment: [e a0]
     X:    -0.0000      Y:    -0.0000      Z:     0.0000     Total:     0.0000

  Dipole Moment: [D]
     X:    -0.0001      Y:    -0.0000      Z:     0.0000     Total:     0.0001


*** tstop() called on atlantis at Tue Apr 19 14:38:07 2022
Module time:
	user time   =      19.82 seconds =       0.33 minutes
	system time =       0.15 seconds =       0.00 minutes
	total time  =         20 seconds =       0.33 minutes
Total time:
	user time   =      19.82 seconds =       0.33 minutes
	system time =       0.15 seconds =       0.00 minutes
	total time  =         20 seconds =       0.33 minutes
gradient() will perform analytic gradient computation.

*** tstart() called on atlantis
*** at Tue Apr 19 14:38:07 2022

   => Loading Basis Set <=

    Name: AUG-CC-PVTZ
    Role: ORBITAL
    Keyword: BASIS
    atoms 1-3 entry C          line   235 file /home/akrom/software/anaconda3/envs/ffpenv/share/psi4/basis/aug-cc-pvtz.gbs 
    atoms 4-9 entry H          line    36 file /home/akrom/software/anaconda3/envs/ffpenv/share/psi4/basis/aug-cc-pvtz.gbs 


         ---------------------------------------------------------
                                   SCF
               by Justin Turney, Rob Parrish, Andy Simmonett
                          and Daniel G. A. Smith
                              RKS Reference
                        1 Threads,    500 MiB Core
         ---------------------------------------------------------

  ==> Geometry <==

    Molecular point group: cs
    Full point group: Cs

    Geometry (in Angstrom), charge = 0, multiplicity = 1:

       Center              X                  Y                   Z               Mass       
    ------------   -----------------  -----------------  -----------------  -----------------
         C            0.321531939855     0.813261460475     0.000000000000    12.000000000000
         C           -0.865048060145    -0.128168539525     0.000000000000    12.000000000000
         C            0.543531939855    -0.685078539525     0.000000000000    12.000000000000
         H            0.537951939855     1.360691460475    -0.920390000000     1.007825032230
         H            0.537951939855     1.360691460475     0.920390000000     1.007825032230
         H           -1.447418060145    -0.214488539525     0.920340000000     1.007825032230
         H           -1.447418060145    -0.214488539525    -0.920340000000     1.007825032230
         H            0.909371939855    -1.146288539525    -0.920370000000     1.007825032230
         H            0.909371939855    -1.146288539525     0.920370000000     1.007825032230

  Running in cs symmetry.

  Rotational constants: A =      0.66472  B =      0.66470  C =      0.41647 [cm^-1]
  Rotational constants: A =  19927.70596  B =  19927.20236  C =  12485.44714 [MHz]
  Nuclear repulsion =   75.281464809014025

  Charge       = 0
  Multiplicity = 1
  Electrons    = 24
  Nalpha       = 12
  Nbeta        = 12

  ==> Algorithm <==

  SCF Algorithm Type is DF.
  DIIS enabled.
  MOM disabled.
  Fractional occupation disabled.
  Guess Type is SAD.
  Energy threshold   = 1.00e-08
  Density threshold  = 1.00e-08
  Integral threshold = 0.00e+00

  ==> Primary Basis <==

  Basis Set: AUG-CC-PVTZ
    Blend: AUG-CC-PVTZ
    Number of shells: 96
    Number of basis function: 276
    Number of Cartesian functions: 315
    Spherical Harmonics?: true
    Max angular momentum: 3

  ==> DFT Potential <==

   => Composite Functional: B3LYP <= 

    B3LYP Hyb-GGA Exchange-Correlation Functional

    P. J. Stephens, F. J. Devlin, C. F. Chabalowski, and M. J. Frisch, J. Phys. Chem. 98, 11623 (1994)

    Deriv               =              1
    GGA                 =           TRUE
    Meta                =          FALSE

    Exchange Hybrid     =           TRUE
    MP2 Hybrid          =          FALSE

   => Exchange Functionals <=

    0.0800   Slater exchange
    0.7200         Becke 88

   => Exact (HF) Exchange <=

    0.2000               HF 

   => Correlation Functionals <=

    0.1900   Vosko, Wilk & Nusair (VWN5_RPA)
    0.8100   Lee, Yang & Parr

   => Molecular Quadrature <=

    Radial Scheme          =       TREUTLER
    Pruning Scheme         =           FLAT
    Nuclear Scheme         =       TREUTLER

    BS radius alpha        =              1
    Pruning alpha          =              1
    Radial Points          =             75
    Spherical Points       =            302
    Total Points           =         203850
    Total Blocks           =           1576
    Max Points             =            256
    Max Functions          =            276

   => Loading Basis Set <=

    Name: (AUG-CC-PVTZ AUX)
    Role: JKFIT
    Keyword: DF_BASIS_SCF
    atoms 1-3 entry C          line   162 file /home/akrom/software/anaconda3/envs/ffpenv/share/psi4/basis/aug-cc-pvtz-jkfit.gbs 
    atoms 4-9 entry H          line    70 file /home/akrom/software/anaconda3/envs/ffpenv/share/psi4/basis/aug-cc-pvtz-jkfit.gbs 

  ==> Pre-Iterations <==

   -------------------------------------------------------
    Irrep   Nso     Nmo     Nalpha   Nbeta   Ndocc  Nsocc
   -------------------------------------------------------
     A'       159     159       0       0       0       0
     A"       117     117       0       0       0       0
   -------------------------------------------------------
    Total     276     276      12      12      12       0
   -------------------------------------------------------

  ==> Integral Setup <==

  DFHelper Memory: AOs need 0.352 GiB; user supplied 0.352 GiB. Using in-core AOs.

  ==> MemDFJK: Density-Fitted J/K Matrices <==

    J tasked:                   Yes
    K tasked:                   Yes
    wK tasked:                   No
    OpenMP threads:               1
    Memory [MiB]:               360
    Algorithm:                 Core
    Schwarz Cutoff:           1E-12
    Mask sparsity (%):       0.0000
    Fitting Condition:        1E-10

   => Auxiliary Basis Set <=

  Basis Set: (AUG-CC-PVTZ AUX)
    Blend: AUG-CC-PVTZ-JKFIT
    Number of shells: 174
    Number of basis function: 588
    Number of Cartesian functions: 723
    Spherical Harmonics?: true
    Max angular momentum: 4

  Cached 1.0% of DFT collocation blocks in 0.012 [GiB].

  Minimum eigenvalue in the overlap matrix is 1.6775936804E-05.
  Using Symmetric Orthogonalization.

  SCF Guess: Superposition of Atomic Densities via on-the-fly atomic UHF.

  ==> Iterations <==

                           Total Energy        Delta E     RMS |[F,P]|

   @DF-RKS iter SAD:  -117.42286096552462   -1.17423e+02   0.00000e+00 
   @DF-RKS iter   1:  -117.46199601181205   -3.91350e-02   4.89318e-03 DIIS
   @DF-RKS iter   2:  -116.79988254895902    6.62113e-01   7.19575e-03 DIIS
   @DF-RKS iter   3:  -117.93988017626342   -1.14000e+00   3.72188e-04 DIIS
   @DF-RKS iter   4:  -117.94269854195379   -2.81837e-03   7.30065e-05 DIIS
   @DF-RKS iter   5:  -117.94278932539666   -9.07834e-05   1.01151e-05 DIIS
   @DF-RKS iter   6:  -117.94279132830737   -2.00291e-06   3.32493e-07 DIIS
   @DF-RKS iter   7:  -117.94279133334868   -5.04131e-09   3.84242e-08 DIIS
   @DF-RKS iter   8:  -117.94279133340818   -5.95008e-11   1.77451e-08 DIIS
   @DF-RKS iter   9:  -117.94279133341369   -5.51381e-12   7.45547e-09 DIIS
  Energy and wave function converged.


  ==> Post-Iterations <==

    Orbital Energies [Eh]
    ---------------------

    Doubly Occupied:                                                      

       1Ap   -10.177351     2Ap   -10.176968     3Ap   -10.176964  
       4Ap    -0.847578     5Ap    -0.596658     6Ap    -0.596653  
       1App   -0.493735     7Ap    -0.464986     2App   -0.365553  
       3App   -0.365540     8Ap    -0.297750     9Ap    -0.297744  

    Virtual:                                                              

      10Ap    -0.005629     4App    0.007906    11Ap     0.009988  
      12Ap     0.009989     5App    0.041736     6App    0.041737  
      13Ap     0.052283    14Ap     0.062291    15Ap     0.062293  
       7App    0.082212    16Ap     0.085934    17Ap     0.085935  
      18Ap     0.090567    19Ap     0.091957     8App    0.119772  
       9App    0.119773    20Ap     0.126723    21Ap     0.126730  
      22Ap     0.149277    10App    0.162363    23Ap     0.167923  
      11App    0.171585    12App    0.171588    24Ap     0.201832  
      25Ap     0.201835    26Ap     0.203387    27Ap     0.249009  
      28Ap     0.249016    13App    0.259498    29Ap     0.274948  
      30Ap     0.274955    14App    0.280222    15App    0.293110  
      16App    0.293115    31Ap     0.313781    17App    0.320070  
      18App    0.320078    19App    0.333902    32Ap     0.338604  
      33Ap     0.341118    34Ap     0.341123    35Ap     0.344328  
      36Ap     0.344330    37Ap     0.354196    20App    0.384866  
      21App    0.385225    22App    0.385234    38Ap     0.388619  
      39Ap     0.388628    40Ap     0.428477    23App    0.440396  
      24App    0.440396    41Ap     0.443660    42Ap     0.461301  
      43Ap     0.461305    44Ap     0.487478    45Ap     0.487484  
      46Ap     0.500788    25App    0.529469    26App    0.529493  
      27App    0.552908    28App    0.580455    47Ap     0.607399  
      48Ap     0.607401    29App    0.636113    30App    0.636126  
      31App    0.691257    49Ap     0.716955    50Ap     0.716956  
      51Ap     0.723990    52Ap     0.734493    32App    0.760469  
      33App    0.760474    53Ap     0.779166    54Ap     0.783170  
      55Ap     0.783182    56Ap     0.794947    57Ap     0.809429  
      58Ap     0.809432    34App    0.830116    35App    0.830125  
      36App    0.844986    59Ap     0.867291    60Ap     0.867311  
      37App    0.895350    38App    0.896931    61Ap     0.920240  
      62Ap     0.920253    39App    0.955880    40App    0.955885  
      63Ap     0.965184    41App    0.971443    42App    0.971448  
      64Ap     0.986928    65Ap     1.015310    66Ap     1.015316  
      67Ap     1.028409    68Ap     1.083419    69Ap     1.083424  
      43App    1.093345    44App    1.093356    70Ap     1.114102  
      45App    1.160355    46App    1.160360    47App    1.184133  
      48App    1.212365    49App    1.212375    50App    1.223316  
      71Ap     1.227611    72Ap     1.227633    51App    1.237122  
      73Ap     1.258861    74Ap     1.347437    75Ap     1.347443  
      76Ap     1.356545    77Ap     1.356560    52App    1.375877  
      78Ap     1.390243    53App    1.393545    54App    1.393574  
      79Ap     1.448426    80Ap     1.448435    81Ap     1.456003  
      55App    1.476096    56App    1.518666    82Ap     1.543908  
      83Ap     1.555138    84Ap     1.555164    57App    1.630982  
      58App    1.631025    59App    1.649204    60App    1.649220  
      85Ap     1.668266    86Ap     1.693244    87Ap     1.704498  
      88Ap     1.704518    61App    1.709759    89Ap     1.745950  
      90Ap     1.745978    62App    1.796448    63App    1.796459  
      91Ap     1.820877    92Ap     1.825449    93Ap     1.825466  
      94Ap     1.861918    64App    1.904705    65App    1.940992  
      95Ap     1.978491    96Ap     1.978537    66App    2.030573  
      67App    2.030637    68App    2.119418    69App    2.119436  
      70App    2.140018    97Ap     2.151842    98Ap     2.151880  
      71App    2.250885    72App    2.250911    99Ap     2.267311  
     100Ap     2.330590   101Ap     2.330653   102Ap     2.341146  
      73App    2.645817   103Ap     2.783023   104Ap     2.848026  
     105Ap     2.848069   106Ap     2.965144    74App    2.972532  
      75App    2.972574   107Ap     3.069684   108Ap     3.069732  
     109Ap     3.122785    76App    3.151991   110Ap     3.223711  
      77App    3.276857    78App    3.302693    79App    3.302711  
     111Ap     3.305599   112Ap     3.305610   113Ap     3.331248  
     114Ap     3.331276   115Ap     3.363473    80App    3.395681  
      81App    3.395723    82App    3.414268   116Ap     3.468087  
     117Ap     3.493012   118Ap     3.493030    83App    3.526525  
      84App    3.526558    85App    3.573470   119Ap     3.607705  
      86App    3.652710   120Ap     3.687758   121Ap     3.687773  
      87App    3.733038    88App    3.733080   122Ap     3.783319  
     123Ap     3.783346    89App    3.820094    90App    3.820106  
     124Ap     3.843487    91App    3.889324   125Ap     3.979759  
     126Ap     3.998342   127Ap     3.998364    92App    4.022582  
      93App    4.022645   128Ap     4.027270   129Ap     4.027301  
      94App    4.058784    95App    4.145288    96App    4.145298  
     130Ap     4.210949   131Ap     4.310482   132Ap     4.408101  
     133Ap     4.408117    97App    4.473119    98App    4.473161  
     134Ap     4.484827   135Ap     4.497589   136Ap     4.497645  
     137Ap     4.554507   138Ap     4.554514    99App    4.558579  
     100App    4.558606   139Ap     4.633597   140Ap     4.633639  
     101App    4.652116   102App    4.847088   141Ap     4.847141  
     142Ap     4.847148   103App    4.854549   143Ap     4.876640  
     144Ap     4.966783   104App    5.017081   105App    5.017119  
     145Ap     5.059906   146Ap     5.059950   106App    5.179209  
     107App    5.179224   108App    5.207328   147Ap     5.257775  
     148Ap     5.284189   109App    5.316695   149Ap     5.329575  
     150Ap     5.329631   110App    5.361939   111App    5.532437  
     112App    5.532476   151Ap     5.609292   152Ap     5.757333  
     153Ap     5.915089   154Ap     5.915133   155Ap     6.001770  
     156Ap     6.001818   113App    6.109444   114App    6.128693  
     115App    6.128810   116App    6.385326   117App    6.385365  
     157Ap    15.728060   158Ap    16.245223   159Ap    16.245501  

    Final Occupation by Irrep:
             Ap   App 
    DOCC [     9,    3 ]

  @DF-RKS Final Energy:  -117.94279133341369

   => Energetics <=

    Nuclear Repulsion Energy =             75.2814648090140253
    One-Electron Energy =                -305.9600367257313565
    Two-Electron Energy =                 127.7165058347649165
    DFT Exchange-Correlation Energy =     -14.9807252514612959
    Empirical Dispersion Energy =           0.0000000000000000
    VV10 Nonlocal Energy =                  0.0000000000000000
    Total Energy =                       -117.9427913334136946

Computation Completed


Properties will be evaluated at   0.000000,   0.000000,   0.000000 [a0]

Properties computed using the SCF density matrix

  Nuclear Dipole Moment: [e a0]
     X:    -0.0002      Y:    -0.0002      Z:     0.0000

  Electronic Dipole Moment: [e a0]
     X:     0.0002      Y:     0.0001      Z:     0.0000

  Dipole Moment: [e a0]
     X:    -0.0000      Y:    -0.0000      Z:     0.0000     Total:     0.0000

  Dipole Moment: [D]
     X:    -0.0001      Y:    -0.0000      Z:     0.0000     Total:     0.0001


*** tstop() called on atlantis at Tue Apr 19 14:38:32 2022
Module time:
	user time   =      24.18 seconds =       0.40 minutes
	system time =       0.10 seconds =       0.00 minutes
	total time  =         25 seconds =       0.42 minutes
Total time:
	user time   =      44.01 seconds =       0.73 minutes
	system time =       0.25 seconds =       0.00 minutes
	total time  =         45 seconds =       0.75 minutes

*** tstart() called on atlantis
*** at Tue Apr 19 14:38:32 2022


         ------------------------------------------------------------
                                   SCF GRAD                          
                          Rob Parrish, Justin Turney,                
                       Andy Simmonett, and Alex Sokolov              
         ------------------------------------------------------------

  ==> Geometry <==

    Molecular point group: cs
    Full point group: Cs

    Geometry (in Angstrom), charge = 0, multiplicity = 1:

       Center              X                  Y                   Z               Mass       
    ------------   -----------------  -----------------  -----------------  -----------------
         C            0.321531939855     0.813261460475     0.000000000000    12.000000000000
         C           -0.865048060145    -0.128168539525     0.000000000000    12.000000000000
         C            0.543531939855    -0.685078539525     0.000000000000    12.000000000000
         H            0.537951939855     1.360691460475    -0.920390000000     1.007825032230
         H            0.537951939855     1.360691460475     0.920390000000     1.007825032230
         H           -1.447418060145    -0.214488539525     0.920340000000     1.007825032230
         H           -1.447418060145    -0.214488539525    -0.920340000000     1.007825032230
         H            0.909371939855    -1.146288539525    -0.920370000000     1.007825032230
         H            0.909371939855    -1.146288539525     0.920370000000     1.007825032230

  Nuclear repulsion =   75.281464809014025

  ==> Basis Set <==

  Basis Set: AUG-CC-PVTZ
    Blend: AUG-CC-PVTZ
    Number of shells: 96
    Number of basis function: 276
    Number of Cartesian functions: 315
    Spherical Harmonics?: true
    Max angular momentum: 3

  ==> DFJKGrad: Density-Fitted SCF Gradients <==

    Gradient:                    1
    J tasked:                  Yes
    K tasked:                  Yes
    wK tasked:                  No
    OpenMP threads:              1
    Integrals threads:           1
    Memory [MiB]:              375
    Schwarz Cutoff:          0E+00
    Fitting Condition:       1E-10

   => Auxiliary Basis Set <=

  Basis Set: (AUG-CC-PVTZ AUX)
    Blend: AUG-CC-PVTZ-JKFIT
    Number of shells: 174
    Number of basis function: 588
    Number of Cartesian functions: 723
    Spherical Harmonics?: true
    Max angular momentum: 4

  ==> DFT Potential <==

   => Composite Functional: B3LYP <= 

    B3LYP Hyb-GGA Exchange-Correlation Functional

    P. J. Stephens, F. J. Devlin, C. F. Chabalowski, and M. J. Frisch, J. Phys. Chem. 98, 11623 (1994)

    Deriv               =              1
    GGA                 =           TRUE
    Meta                =          FALSE

    Exchange Hybrid     =           TRUE
    MP2 Hybrid          =          FALSE

   => Exchange Functionals <=

    0.0800   Slater exchange
    0.7200         Becke 88

   => Exact (HF) Exchange <=

    0.2000               HF 

   => Correlation Functionals <=

    0.1900   Vosko, Wilk & Nusair (VWN5_RPA)
    0.8100   Lee, Yang & Parr

   => Molecular Quadrature <=

    Radial Scheme          =       TREUTLER
    Pruning Scheme         =           FLAT
    Nuclear Scheme         =       TREUTLER

    BS radius alpha        =              1
    Pruning alpha          =              1
    Radial Points          =             75
    Spherical Points       =            302
    Total Points           =         203850
    Total Blocks           =           1576
    Max Points             =            256
    Max Functions          =            276


  -Total Gradient:
     Atom            X                  Y                   Z
    ------   -----------------  -----------------  -----------------
       1        0.000449063483     0.001148940394     0.000000000000
       2       -0.001193085156    -0.000172220591     0.000000000000
       3        0.000764853647    -0.000952428041     0.000000000000
       4        0.001350516905     0.003419709765    -0.007051308396
       5        0.001350516905     0.003419709765     0.007051308396
       6       -0.003645263040    -0.000543421151     0.007042116243
       7       -0.003645263040    -0.000543421151    -0.007042116243
       8        0.002284013720    -0.002886063576    -0.007048177832
       9        0.002284013720    -0.002886063576     0.007048177832


*** tstop() called on atlantis at Tue Apr 19 14:38:41 2022
Module time:
	user time   =       8.66 seconds =       0.14 minutes
	system time =       0.15 seconds =       0.00 minutes
	total time  =          9 seconds =       0.15 minutes
Total time:
	user time   =      52.67 seconds =       0.88 minutes
	system time =       0.40 seconds =       0.01 minutes
	total time  =         54 seconds =       0.90 minutes

  Based on options and gradient (rms=3.77E-03), recommend projecting translations and projecting rotations.
hessian() will perform frequency computation by finite difference of analytic gradients.

         ----------------------------------------------------------
                                   FINDIF
                     R. A. King and Jonathon Misiewicz
         ---------------------------------------------------------

  Using finite-differences of gradients to determine vibrational frequencies and 
  normal modes.  Resulting frequencies are only valid at stationary points.
    Generating geometries for use with 3-point formula.
    Displacement size will be 5.00e-03.
    Number of atoms is 9.
    Number of irreps is 2.
    Number of SALCs is 21.
    Translations projected? 1. Rotations projected? 1.
    Index of SALCs per irrep:
     1 :  0  1  2  3  4  5  6  7  8  9  10  11 
     2 :  12  13  14  15  16  17  18  19  20 
    Number of SALCs per irrep:
     Irrep 1: 12
     Irrep 2: 9
    Number of geometries (including reference) is 34.
    Number of displacements per irrep:
      Irrep 1: 24
      Irrep 2: 9

  //>>>>>>>>>>>>>>>>>>>>>>>>>>>>>>>>>>>//
  //    Loading displacement 1 of 34   //
  //<<<<<<<<<<<<<<<<<<<<<<<<<<<<<<<<<<<//
gradient() will perform analytic gradient computation.

*** tstart() called on atlantis
*** at Tue Apr 19 14:38:41 2022

   => Loading Basis Set <=

    Name: AUG-CC-PVTZ
    Role: ORBITAL
    Keyword: BASIS
    atoms 1-3 entry C          line   235 file /home/akrom/software/anaconda3/envs/ffpenv/share/psi4/basis/aug-cc-pvtz.gbs 
    atoms 4-9 entry H          line    36 file /home/akrom/software/anaconda3/envs/ffpenv/share/psi4/basis/aug-cc-pvtz.gbs 


         ---------------------------------------------------------
                                   SCF
               by Justin Turney, Rob Parrish, Andy Simmonett
                          and Daniel G. A. Smith
                              RKS Reference
                        1 Threads,    500 MiB Core
         ---------------------------------------------------------

  ==> Geometry <==

    Molecular point group: cs
    Full point group: Cs

    Geometry (in Angstrom), charge = 0, multiplicity = 1:

       Center              X                  Y                   Z               Mass       
    ------------   -----------------  -----------------  -----------------  -----------------
         C            0.321531939855     0.813261460475     0.000000000000    12.000000000000
         C           -0.865048060145    -0.128168539525     0.000000000000    12.000000000000
         C            0.543531939855    -0.685078539525     0.000000000000    12.000000000000
         H            0.537951939855     1.360691460475    -0.920390000000     1.007825032230
         H            0.537951939855     1.360691460475     0.920390000000     1.007825032230
         H           -1.447418060145    -0.214488539525     0.920340000000     1.007825032230
         H           -1.447418060145    -0.214488539525    -0.920340000000     1.007825032230
         H            0.909371939855    -1.146288539525    -0.920370000000     1.007825032230
         H            0.909371939855    -1.146288539525     0.920370000000     1.007825032230

  Running in cs symmetry.

  Rotational constants: A =      0.66472  B =      0.66470  C =      0.41647 [cm^-1]
  Rotational constants: A =  19927.70596  B =  19927.20236  C =  12485.44714 [MHz]
  Nuclear repulsion =   75.281464809014025

  Charge       = 0
  Multiplicity = 1
  Electrons    = 24
  Nalpha       = 12
  Nbeta        = 12

  ==> Algorithm <==

  SCF Algorithm Type is DF.
  DIIS enabled.
  MOM disabled.
  Fractional occupation disabled.
  Guess Type is SAD.
  Energy threshold   = 1.00e-08
  Density threshold  = 1.00e-08
  Integral threshold = 0.00e+00

  ==> Primary Basis <==

  Basis Set: AUG-CC-PVTZ
    Blend: AUG-CC-PVTZ
    Number of shells: 96
    Number of basis function: 276
    Number of Cartesian functions: 315
    Spherical Harmonics?: true
    Max angular momentum: 3

  ==> DFT Potential <==

   => Composite Functional: B3LYP <= 

    B3LYP Hyb-GGA Exchange-Correlation Functional

    P. J. Stephens, F. J. Devlin, C. F. Chabalowski, and M. J. Frisch, J. Phys. Chem. 98, 11623 (1994)

    Deriv               =              1
    GGA                 =           TRUE
    Meta                =          FALSE

    Exchange Hybrid     =           TRUE
    MP2 Hybrid          =          FALSE

   => Exchange Functionals <=

    0.0800   Slater exchange
    0.7200         Becke 88

   => Exact (HF) Exchange <=

    0.2000               HF 

   => Correlation Functionals <=

    0.1900   Vosko, Wilk & Nusair (VWN5_RPA)
    0.8100   Lee, Yang & Parr

   => Molecular Quadrature <=

    Radial Scheme          =       TREUTLER
    Pruning Scheme         =           FLAT
    Nuclear Scheme         =       TREUTLER

    BS radius alpha        =              1
    Pruning alpha          =              1
    Radial Points          =             75
    Spherical Points       =            302
    Total Points           =         203850
    Total Blocks           =           1576
    Max Points             =            256
    Max Functions          =            276

   => Loading Basis Set <=

    Name: (AUG-CC-PVTZ AUX)
    Role: JKFIT
    Keyword: DF_BASIS_SCF
    atoms 1-3 entry C          line   162 file /home/akrom/software/anaconda3/envs/ffpenv/share/psi4/basis/aug-cc-pvtz-jkfit.gbs 
    atoms 4-9 entry H          line    70 file /home/akrom/software/anaconda3/envs/ffpenv/share/psi4/basis/aug-cc-pvtz-jkfit.gbs 

  ==> Pre-Iterations <==

   -------------------------------------------------------
    Irrep   Nso     Nmo     Nalpha   Nbeta   Ndocc  Nsocc
   -------------------------------------------------------
     A'       159     159       0       0       0       0
     A"       117     117       0       0       0       0
   -------------------------------------------------------
    Total     276     276      12      12      12       0
   -------------------------------------------------------

  ==> Integral Setup <==

  DFHelper Memory: AOs need 0.352 GiB; user supplied 0.352 GiB. Using in-core AOs.

  ==> MemDFJK: Density-Fitted J/K Matrices <==

    J tasked:                   Yes
    K tasked:                   Yes
    wK tasked:                   No
    OpenMP threads:               1
    Memory [MiB]:               360
    Algorithm:                 Core
    Schwarz Cutoff:           1E-12
    Mask sparsity (%):       0.0000
    Fitting Condition:        1E-10

   => Auxiliary Basis Set <=

  Basis Set: (AUG-CC-PVTZ AUX)
    Blend: AUG-CC-PVTZ-JKFIT
    Number of shells: 174
    Number of basis function: 588
    Number of Cartesian functions: 723
    Spherical Harmonics?: true
    Max angular momentum: 4

  Cached 1.0% of DFT collocation blocks in 0.012 [GiB].

  Minimum eigenvalue in the overlap matrix is 1.6775936804E-05.
  Using Symmetric Orthogonalization.

  SCF Guess: Superposition of Atomic Densities via on-the-fly atomic UHF.

  ==> Iterations <==

                           Total Energy        Delta E     RMS |[F,P]|

   @DF-RKS iter SAD:  -117.42286096552456   -1.17423e+02   0.00000e+00 
   @DF-RKS iter   1:  -117.46199601181124   -3.91350e-02   4.89318e-03 DIIS
   @DF-RKS iter   2:  -116.79988254896207    6.62113e-01   7.19575e-03 DIIS
   @DF-RKS iter   3:  -117.93988017626398   -1.14000e+00   3.72188e-04 DIIS
   @DF-RKS iter   4:  -117.94269854195414   -2.81837e-03   7.30065e-05 DIIS
   @DF-RKS iter   5:  -117.94278932539660   -9.07834e-05   1.01151e-05 DIIS
   @DF-RKS iter   6:  -117.94279132830803   -2.00291e-06   3.32493e-07 DIIS
   @DF-RKS iter   7:  -117.94279133334923   -5.04120e-09   3.84242e-08 DIIS
   @DF-RKS iter   8:  -117.94279133340859   -5.93587e-11   1.77451e-08 DIIS
   @DF-RKS iter   9:  -117.94279133341388   -5.28644e-12   7.45547e-09 DIIS
  Energy and wave function converged.


  ==> Post-Iterations <==

    Orbital Energies [Eh]
    ---------------------

    Doubly Occupied:                                                      

       1Ap   -10.177351     2Ap   -10.176968     3Ap   -10.176964  
       4Ap    -0.847578     5Ap    -0.596658     6Ap    -0.596653  
       1App   -0.493735     7Ap    -0.464986     2App   -0.365553  
       3App   -0.365540     8Ap    -0.297750     9Ap    -0.297744  

    Virtual:                                                              

      10Ap    -0.005629     4App    0.007906    11Ap     0.009988  
      12Ap     0.009989     5App    0.041736     6App    0.041737  
      13Ap     0.052283    14Ap     0.062291    15Ap     0.062293  
       7App    0.082212    16Ap     0.085934    17Ap     0.085935  
      18Ap     0.090567    19Ap     0.091957     8App    0.119772  
       9App    0.119773    20Ap     0.126723    21Ap     0.126730  
      22Ap     0.149277    10App    0.162363    23Ap     0.167923  
      11App    0.171585    12App    0.171588    24Ap     0.201832  
      25Ap     0.201835    26Ap     0.203387    27Ap     0.249009  
      28Ap     0.249016    13App    0.259498    29Ap     0.274948  
      30Ap     0.274955    14App    0.280222    15App    0.293110  
      16App    0.293115    31Ap     0.313781    17App    0.320070  
      18App    0.320078    19App    0.333902    32Ap     0.338604  
      33Ap     0.341118    34Ap     0.341123    35Ap     0.344328  
      36Ap     0.344330    37Ap     0.354196    20App    0.384866  
      21App    0.385225    22App    0.385234    38Ap     0.388619  
      39Ap     0.388628    40Ap     0.428477    23App    0.440396  
      24App    0.440396    41Ap     0.443660    42Ap     0.461301  
      43Ap     0.461305    44Ap     0.487478    45Ap     0.487484  
      46Ap     0.500788    25App    0.529469    26App    0.529493  
      27App    0.552908    28App    0.580455    47Ap     0.607399  
      48Ap     0.607401    29App    0.636113    30App    0.636126  
      31App    0.691257    49Ap     0.716955    50Ap     0.716956  
      51Ap     0.723990    52Ap     0.734493    32App    0.760469  
      33App    0.760474    53Ap     0.779166    54Ap     0.783170  
      55Ap     0.783182    56Ap     0.794947    57Ap     0.809429  
      58Ap     0.809432    34App    0.830116    35App    0.830125  
      36App    0.844986    59Ap     0.867291    60Ap     0.867311  
      37App    0.895350    38App    0.896931    61Ap     0.920240  
      62Ap     0.920253    39App    0.955880    40App    0.955885  
      63Ap     0.965184    41App    0.971443    42App    0.971448  
      64Ap     0.986928    65Ap     1.015310    66Ap     1.015316  
      67Ap     1.028409    68Ap     1.083419    69Ap     1.083424  
      43App    1.093345    44App    1.093356    70Ap     1.114102  
      45App    1.160355    46App    1.160360    47App    1.184133  
      48App    1.212365    49App    1.212375    50App    1.223316  
      71Ap     1.227611    72Ap     1.227633    51App    1.237122  
      73Ap     1.258861    74Ap     1.347437    75Ap     1.347443  
      76Ap     1.356545    77Ap     1.356560    52App    1.375877  
      78Ap     1.390243    53App    1.393545    54App    1.393574  
      79Ap     1.448426    80Ap     1.448435    81Ap     1.456003  
      55App    1.476096    56App    1.518666    82Ap     1.543908  
      83Ap     1.555138    84Ap     1.555164    57App    1.630982  
      58App    1.631025    59App    1.649204    60App    1.649220  
      85Ap     1.668266    86Ap     1.693244    87Ap     1.704498  
      88Ap     1.704518    61App    1.709759    89Ap     1.745950  
      90Ap     1.745978    62App    1.796448    63App    1.796459  
      91Ap     1.820877    92Ap     1.825449    93Ap     1.825466  
      94Ap     1.861918    64App    1.904705    65App    1.940992  
      95Ap     1.978491    96Ap     1.978537    66App    2.030573  
      67App    2.030637    68App    2.119418    69App    2.119436  
      70App    2.140018    97Ap     2.151842    98Ap     2.151880  
      71App    2.250885    72App    2.250911    99Ap     2.267311  
     100Ap     2.330590   101Ap     2.330653   102Ap     2.341146  
      73App    2.645817   103Ap     2.783023   104Ap     2.848026  
     105Ap     2.848069   106Ap     2.965144    74App    2.972532  
      75App    2.972574   107Ap     3.069684   108Ap     3.069732  
     109Ap     3.122785    76App    3.151991   110Ap     3.223711  
      77App    3.276857    78App    3.302693    79App    3.302711  
     111Ap     3.305599   112Ap     3.305610   113Ap     3.331248  
     114Ap     3.331276   115Ap     3.363473    80App    3.395681  
      81App    3.395723    82App    3.414268   116Ap     3.468087  
     117Ap     3.493012   118Ap     3.493030    83App    3.526525  
      84App    3.526558    85App    3.573470   119Ap     3.607705  
      86App    3.652710   120Ap     3.687758   121Ap     3.687773  
      87App    3.733038    88App    3.733080   122Ap     3.783319  
     123Ap     3.783346    89App    3.820094    90App    3.820106  
     124Ap     3.843487    91App    3.889324   125Ap     3.979759  
     126Ap     3.998342   127Ap     3.998364    92App    4.022582  
      93App    4.022645   128Ap     4.027270   129Ap     4.027301  
      94App    4.058784    95App    4.145288    96App    4.145298  
     130Ap     4.210949   131Ap     4.310482   132Ap     4.408101  
     133Ap     4.408117    97App    4.473119    98App    4.473161  
     134Ap     4.484827   135Ap     4.497589   136Ap     4.497645  
     137Ap     4.554507   138Ap     4.554514    99App    4.558579  
     100App    4.558606   139Ap     4.633597   140Ap     4.633639  
     101App    4.652116   102App    4.847088   141Ap     4.847141  
     142Ap     4.847148   103App    4.854549   143Ap     4.876640  
     144Ap     4.966783   104App    5.017081   105App    5.017119  
     145Ap     5.059906   146Ap     5.059950   106App    5.179209  
     107App    5.179224   108App    5.207328   147Ap     5.257775  
     148Ap     5.284189   109App    5.316695   149Ap     5.329575  
     150Ap     5.329631   110App    5.361939   111App    5.532437  
     112App    5.532476   151Ap     5.609292   152Ap     5.757333  
     153Ap     5.915089   154Ap     5.915133   155Ap     6.001770  
     156Ap     6.001818   113App    6.109444   114App    6.128693  
     115App    6.128810   116App    6.385326   117App    6.385365  
     157Ap    15.728060   158Ap    16.245223   159Ap    16.245501  

    Final Occupation by Irrep:
             Ap   App 
    DOCC [     9,    3 ]

  @DF-RKS Final Energy:  -117.94279133341388

   => Energetics <=

    Nuclear Repulsion Energy =             75.2814648090140253
    One-Electron Energy =                -305.9600367257438052
    Two-Electron Energy =                 127.7165058347784736
    DFT Exchange-Correlation Energy =     -14.9807252514625908
    Empirical Dispersion Energy =           0.0000000000000000
    VV10 Nonlocal Energy =                  0.0000000000000000
    Total Energy =                       -117.9427913334138793

Computation Completed


Properties will be evaluated at   0.000000,   0.000000,   0.000000 [a0]

Properties computed using the SCF density matrix

  Nuclear Dipole Moment: [e a0]
     X:    -0.0002      Y:    -0.0002      Z:     0.0000

  Electronic Dipole Moment: [e a0]
     X:     0.0002      Y:     0.0001      Z:     0.0000

  Dipole Moment: [e a0]
     X:    -0.0000      Y:    -0.0000      Z:     0.0000     Total:     0.0000

  Dipole Moment: [D]
     X:    -0.0001      Y:    -0.0000      Z:     0.0000     Total:     0.0001


*** tstop() called on atlantis at Tue Apr 19 14:39:05 2022
Module time:
	user time   =      24.06 seconds =       0.40 minutes
	system time =       0.10 seconds =       0.00 minutes
	total time  =         24 seconds =       0.40 minutes
Total time:
	user time   =      77.01 seconds =       1.28 minutes
	system time =       0.51 seconds =       0.01 minutes
	total time  =         78 seconds =       1.30 minutes

*** tstart() called on atlantis
*** at Tue Apr 19 14:39:05 2022


         ------------------------------------------------------------
                                   SCF GRAD                          
                          Rob Parrish, Justin Turney,                
                       Andy Simmonett, and Alex Sokolov              
         ------------------------------------------------------------

  ==> Geometry <==

    Molecular point group: cs
    Full point group: Cs

    Geometry (in Angstrom), charge = 0, multiplicity = 1:

       Center              X                  Y                   Z               Mass       
    ------------   -----------------  -----------------  -----------------  -----------------
         C            0.321531939855     0.813261460475     0.000000000000    12.000000000000
         C           -0.865048060145    -0.128168539525     0.000000000000    12.000000000000
         C            0.543531939855    -0.685078539525     0.000000000000    12.000000000000
         H            0.537951939855     1.360691460475    -0.920390000000     1.007825032230
         H            0.537951939855     1.360691460475     0.920390000000     1.007825032230
         H           -1.447418060145    -0.214488539525     0.920340000000     1.007825032230
         H           -1.447418060145    -0.214488539525    -0.920340000000     1.007825032230
         H            0.909371939855    -1.146288539525    -0.920370000000     1.007825032230
         H            0.909371939855    -1.146288539525     0.920370000000     1.007825032230

  Nuclear repulsion =   75.281464809014025

  ==> Basis Set <==

  Basis Set: AUG-CC-PVTZ
    Blend: AUG-CC-PVTZ
    Number of shells: 96
    Number of basis function: 276
    Number of Cartesian functions: 315
    Spherical Harmonics?: true
    Max angular momentum: 3

  ==> DFJKGrad: Density-Fitted SCF Gradients <==

    Gradient:                    1
    J tasked:                  Yes
    K tasked:                  Yes
    wK tasked:                  No
    OpenMP threads:              1
    Integrals threads:           1
    Memory [MiB]:              375
    Schwarz Cutoff:          0E+00
    Fitting Condition:       1E-10

   => Auxiliary Basis Set <=

  Basis Set: (AUG-CC-PVTZ AUX)
    Blend: AUG-CC-PVTZ-JKFIT
    Number of shells: 174
    Number of basis function: 588
    Number of Cartesian functions: 723
    Spherical Harmonics?: true
    Max angular momentum: 4

  ==> DFT Potential <==

   => Composite Functional: B3LYP <= 

    B3LYP Hyb-GGA Exchange-Correlation Functional

    P. J. Stephens, F. J. Devlin, C. F. Chabalowski, and M. J. Frisch, J. Phys. Chem. 98, 11623 (1994)

    Deriv               =              1
    GGA                 =           TRUE
    Meta                =          FALSE

    Exchange Hybrid     =           TRUE
    MP2 Hybrid          =          FALSE

   => Exchange Functionals <=

    0.0800   Slater exchange
    0.7200         Becke 88

   => Exact (HF) Exchange <=

    0.2000               HF 

   => Correlation Functionals <=

    0.1900   Vosko, Wilk & Nusair (VWN5_RPA)
    0.8100   Lee, Yang & Parr

   => Molecular Quadrature <=

    Radial Scheme          =       TREUTLER
    Pruning Scheme         =           FLAT
    Nuclear Scheme         =       TREUTLER

    BS radius alpha        =              1
    Pruning alpha          =              1
    Radial Points          =             75
    Spherical Points       =            302
    Total Points           =         203850
    Total Blocks           =           1576
    Max Points             =            256
    Max Functions          =            276


  -Total Gradient:
     Atom            X                  Y                   Z
    ------   -----------------  -----------------  -----------------
       1        0.000449063608     0.001148941993     0.000000000000
       2       -0.001193087275    -0.000172219495     0.000000000000
       3        0.000764855381    -0.000952428718     0.000000000000
       4        0.001350516213     0.003419708105    -0.007051304562
       5        0.001350516213     0.003419708105     0.007051304562
       6       -0.003645261944    -0.000543420899     0.007042113534
       7       -0.003645261944    -0.000543420899    -0.007042113534
       8        0.002284013447    -0.002886063177    -0.007048176330
       9        0.002284013447    -0.002886063177     0.007048176330


*** tstop() called on atlantis at Tue Apr 19 14:39:14 2022
Module time:
	user time   =       8.73 seconds =       0.15 minutes
	system time =       0.15 seconds =       0.00 minutes
	total time  =          9 seconds =       0.15 minutes
Total time:
	user time   =      85.74 seconds =       1.43 minutes
	system time =       0.66 seconds =       0.01 minutes
	total time  =         87 seconds =       1.45 minutes

  //>>>>>>>>>>>>>>>>>>>>>>>>>>>>>>>>>>>//
  //    Loading displacement 2 of 34   //
  //<<<<<<<<<<<<<<<<<<<<<<<<<<<<<<<<<<<//
gradient() will perform analytic gradient computation.

*** tstart() called on atlantis
*** at Tue Apr 19 14:39:14 2022

   => Loading Basis Set <=

    Name: AUG-CC-PVTZ
    Role: ORBITAL
    Keyword: BASIS
    atoms 1-3 entry C          line   235 file /home/akrom/software/anaconda3/envs/ffpenv/share/psi4/basis/aug-cc-pvtz.gbs 
    atoms 4-9 entry H          line    36 file /home/akrom/software/anaconda3/envs/ffpenv/share/psi4/basis/aug-cc-pvtz.gbs 


         ---------------------------------------------------------
                                   SCF
               by Justin Turney, Rob Parrish, Andy Simmonett
                          and Daniel G. A. Smith
                              RKS Reference
                        1 Threads,    500 MiB Core
         ---------------------------------------------------------

  ==> Geometry <==

    Molecular point group: cs
    Full point group: Cs

    Geometry (in Angstrom), charge = 0, multiplicity = 1:

       Center              X                  Y                   Z               Mass       
    ------------   -----------------  -----------------  -----------------  -----------------
         C            0.320981935461     0.813179232929     0.000000000000    12.000000000000
         C           -0.864778117207    -0.127947314912     0.000000000000    12.000000000000
         C            0.543659460418    -0.685217540638     0.000000000000    12.000000000000
         H            0.538602639069     1.360553886373    -0.920390000000     1.007825032230
         H            0.538602639069     1.360553886373     0.920390000000     1.007825032230
         H           -1.447170192407    -0.214118381478     0.920340000000     1.007825032230
         H           -1.447170192407    -0.214118381478    -0.920340000000     1.007825032230
         H            0.909381512053    -1.146521099385    -0.920370000000     1.007825032230
         H            0.909381512053    -1.146521099385     0.920370000000     1.007825032230

  Running in cs symmetry.

  Rotational constants: A =      0.66511  B =      0.66452  C =      0.41655 [cm^-1]
  Rotational constants: A =  19939.46144  B =  19921.88173  C =  12487.97026 [MHz]
  Nuclear repulsion =   75.286659304380962

  Charge       = 0
  Multiplicity = 1
  Electrons    = 24
  Nalpha       = 12
  Nbeta        = 12

  ==> Algorithm <==

  SCF Algorithm Type is DF.
  DIIS enabled.
  MOM disabled.
  Fractional occupation disabled.
  Guess Type is SAD.
  Energy threshold   = 1.00e-08
  Density threshold  = 1.00e-08
  Integral threshold = 0.00e+00

  ==> Primary Basis <==

  Basis Set: AUG-CC-PVTZ
    Blend: AUG-CC-PVTZ
    Number of shells: 96
    Number of basis function: 276
    Number of Cartesian functions: 315
    Spherical Harmonics?: true
    Max angular momentum: 3

  ==> DFT Potential <==

   => Composite Functional: B3LYP <= 

    B3LYP Hyb-GGA Exchange-Correlation Functional

    P. J. Stephens, F. J. Devlin, C. F. Chabalowski, and M. J. Frisch, J. Phys. Chem. 98, 11623 (1994)

    Deriv               =              1
    GGA                 =           TRUE
    Meta                =          FALSE

    Exchange Hybrid     =           TRUE
    MP2 Hybrid          =          FALSE

   => Exchange Functionals <=

    0.0800   Slater exchange
    0.7200         Becke 88

   => Exact (HF) Exchange <=

    0.2000               HF 

   => Correlation Functionals <=

    0.1900   Vosko, Wilk & Nusair (VWN5_RPA)
    0.8100   Lee, Yang & Parr

   => Molecular Quadrature <=

    Radial Scheme          =       TREUTLER
    Pruning Scheme         =           FLAT
    Nuclear Scheme         =       TREUTLER

    BS radius alpha        =              1
    Pruning alpha          =              1
    Radial Points          =             75
    Spherical Points       =            302
    Total Points           =         203850
    Total Blocks           =           1568
    Max Points             =            256
    Max Functions          =            276

   => Loading Basis Set <=

    Name: (AUG-CC-PVTZ AUX)
    Role: JKFIT
    Keyword: DF_BASIS_SCF
    atoms 1-3 entry C          line   162 file /home/akrom/software/anaconda3/envs/ffpenv/share/psi4/basis/aug-cc-pvtz-jkfit.gbs 
    atoms 4-9 entry H          line    70 file /home/akrom/software/anaconda3/envs/ffpenv/share/psi4/basis/aug-cc-pvtz-jkfit.gbs 

  ==> Pre-Iterations <==

   -------------------------------------------------------
    Irrep   Nso     Nmo     Nalpha   Nbeta   Ndocc  Nsocc
   -------------------------------------------------------
     A'       159     159       0       0       0       0
     A"       117     117       0       0       0       0
   -------------------------------------------------------
    Total     276     276      12      12      12       0
   -------------------------------------------------------

  ==> Integral Setup <==

  DFHelper Memory: AOs need 0.352 GiB; user supplied 0.352 GiB. Using in-core AOs.

  ==> MemDFJK: Density-Fitted J/K Matrices <==

    J tasked:                   Yes
    K tasked:                   Yes
    wK tasked:                   No
    OpenMP threads:               1
    Memory [MiB]:               360
    Algorithm:                 Core
    Schwarz Cutoff:           1E-12
    Mask sparsity (%):       0.0000
    Fitting Condition:        1E-10

   => Auxiliary Basis Set <=

  Basis Set: (AUG-CC-PVTZ AUX)
    Blend: AUG-CC-PVTZ-JKFIT
    Number of shells: 174
    Number of basis function: 588
    Number of Cartesian functions: 723
    Spherical Harmonics?: true
    Max angular momentum: 4

  Cached 1.0% of DFT collocation blocks in 0.015 [GiB].

  Minimum eigenvalue in the overlap matrix is 1.6736544044E-05.
  Using Symmetric Orthogonalization.

  SCF Guess: Superposition of Atomic Densities via on-the-fly atomic UHF.

  ==> Iterations <==

                           Total Energy        Delta E     RMS |[F,P]|

   @DF-RKS iter SAD:  -117.42331850521606   -1.17423e+02   0.00000e+00 
   @DF-RKS iter   1:  -117.46177390097708   -3.84554e-02   4.89447e-03 DIIS
   @DF-RKS iter   2:  -116.79885490626401    6.62919e-01   7.19897e-03 DIIS
   @DF-RKS iter   3:  -117.93988194888614   -1.14103e+00   3.72227e-04 DIIS
   @DF-RKS iter   4:  -117.94270144694505   -2.81950e-03   7.29882e-05 DIIS
   @DF-RKS iter   5:  -117.94279217783965   -9.07309e-05   1.01267e-05 DIIS
   @DF-RKS iter   6:  -117.94279418265208   -2.00481e-06   4.84519e-07 DIIS
   @DF-RKS iter   7:  -117.94279418573488   -3.08280e-09   4.80793e-07 DIIS
   @DF-RKS iter   8:  -117.94279418998252   -4.24764e-09   6.71635e-08 DIIS
   @DF-RKS iter   9:  -117.94279419007729   -9.47722e-11   2.21275e-09 DIIS
  Energy and wave function converged.


  ==> Post-Iterations <==

    Orbital Energies [Eh]
    ---------------------

    Doubly Occupied:                                                      

       1Ap   -10.177340     2Ap   -10.176963     3Ap   -10.176944  
       4Ap    -0.847675     5Ap    -0.596677     6Ap    -0.596600  
       1App   -0.493744     7Ap    -0.465032     2App   -0.365551  
       3App   -0.365447     8Ap    -0.297968     9Ap    -0.297590  

    Virtual:                                                              

      10Ap    -0.005630     4App    0.007898    11Ap     0.009987  
      12Ap     0.009989     5App    0.041733     6App    0.041740  
      13Ap     0.052286    14Ap     0.062277    15Ap     0.062301  
       7App    0.082194    16Ap     0.085924    17Ap     0.085945  
      18Ap     0.090565    19Ap     0.091980     8App    0.119765  
       9App    0.119781    20Ap     0.126728    21Ap     0.126736  
      22Ap     0.149328    10App    0.162350    23Ap     0.167940  
      11App    0.171560    12App    0.171606    24Ap     0.201773  
      25Ap     0.201929    26Ap     0.203373    27Ap     0.249004  
      28Ap     0.249024    13App    0.259488    29Ap     0.274955  
      30Ap     0.274984    14App    0.280221    15App    0.293109  
      16App    0.293116    31Ap     0.313775    17App    0.320066  
      18App    0.320087    19App    0.333901    32Ap     0.338627  
      33Ap     0.341115    34Ap     0.341132    35Ap     0.344320  
      36Ap     0.344341    37Ap     0.354205    20App    0.384885  
      21App    0.385125    22App    0.385306    38Ap     0.388557  
      39Ap     0.388849    40Ap     0.428538    23App    0.440395  
      24App    0.440405    41Ap     0.443666    42Ap     0.461277  
      43Ap     0.461346    44Ap     0.487501    45Ap     0.487520  
      46Ap     0.500741    25App    0.529394    26App    0.529572  
      27App    0.552875    28App    0.580468    47Ap     0.607360  
      48Ap     0.607423    29App    0.636038    30App    0.636173  
      31App    0.691238    49Ap     0.716926    50Ap     0.717023  
      51Ap     0.724002    52Ap     0.734515    32App    0.760438  
      33App    0.760528    53Ap     0.779191    54Ap     0.783115  
      55Ap     0.783183    56Ap     0.794947    57Ap     0.809405  
      58Ap     0.809483    34App    0.829995    35App    0.830212  
      36App    0.844995    59Ap     0.867246    60Ap     0.867353  
      37App    0.895341    38App    0.897004    61Ap     0.920222  
      62Ap     0.920341    39App    0.955863    40App    0.955893  
      63Ap     0.965170    41App    0.971409    42App    0.971473  
      64Ap     0.986944    65Ap     1.015313    66Ap     1.015339  
      67Ap     1.028350    68Ap     1.083398    69Ap     1.083440  
      43App    1.093312    44App    1.093410    70Ap     1.114083  
      45App    1.160354    46App    1.160387    47App    1.184148  
      48App    1.212230    49App    1.212466    50App    1.223303  
      71Ap     1.227516    72Ap     1.227636    51App    1.237110  
      73Ap     1.258913    74Ap     1.347458    75Ap     1.347495  
      76Ap     1.356590    77Ap     1.356651    52App    1.375887  
      78Ap     1.390286    53App    1.393524    54App    1.393671  
      79Ap     1.448418    80Ap     1.448441    81Ap     1.455997  
      55App    1.476062    56App    1.518738    82Ap     1.543912  
      83Ap     1.555136    84Ap     1.555191    57App    1.630986  
      58App    1.631055    59App    1.649026    60App    1.649341  
      85Ap     1.668395    86Ap     1.693343    87Ap     1.704470  
      88Ap     1.704524    61App    1.709768    89Ap     1.745855  
      90Ap     1.746117    62App    1.796333    63App    1.796485  
      91Ap     1.820914    92Ap     1.825514    93Ap     1.825570  
      94Ap     1.861825    64App    1.904688    65App    1.941061  
      95Ap     1.978328    96Ap     1.978655    66App    2.030352  
      67App    2.030868    68App    2.119351    69App    2.119711  
      70App    2.140036    97Ap     2.151731    98Ap     2.152099  
      71App    2.250802    72App    2.250933    99Ap     2.267362  
     100Ap     2.330387   101Ap     2.331093   102Ap     2.341173  
      73App    2.645751   103Ap     2.783038   104Ap     2.847975  
     105Ap     2.848116   106Ap     2.965431    74App    2.972376  
      75App    2.972875   107Ap     3.069378   108Ap     3.070116  
     109Ap     3.122779    76App    3.151972   110Ap     3.223838  
      77App    3.276765    78App    3.302658    79App    3.302909  
     111Ap     3.305657   112Ap     3.305862   113Ap     3.331305  
     114Ap     3.331541   115Ap     3.363474    80App    3.395540  
      81App    3.395906    82App    3.414302   116Ap     3.468245  
     117Ap     3.492995   118Ap     3.493051    83App    3.526312  
      84App    3.526639    85App    3.573448   119Ap     3.607835  
      86App    3.652618   120Ap     3.687731   121Ap     3.687919  
      87App    3.732782    88App    3.733298   122Ap     3.783044  
     123Ap     3.783702    89App    3.819908    90App    3.820471  
     124Ap     3.843580    91App    3.889300   125Ap     3.979757  
     126Ap     3.998260   127Ap     3.998583    92App    4.022644  
      93App    4.022795   128Ap     4.027232   129Ap     4.027445  
      94App    4.058912    95App    4.144970    96App    4.145620  
     130Ap     4.211028   131Ap     4.310599   132Ap     4.407983  
     133Ap     4.408242    97App    4.473084    98App    4.473181  
     134Ap     4.484815   135Ap     4.497437   136Ap     4.497721  
     137Ap     4.554455   138Ap     4.554572    99App    4.558330  
     100App    4.558873   139Ap     4.633504   140Ap     4.633604  
     101App    4.652171   141Ap     4.847045   102App    4.847127  
     142Ap     4.847134   103App    4.854561   143Ap     4.876598  
     144Ap     4.966841   104App    5.016926   105App    5.017224  
     145Ap     5.059532   146Ap     5.060696   106App    5.179102  
     107App    5.179216   108App    5.207188   147Ap     5.258215  
     148Ap     5.284119   109App    5.316592   149Ap     5.329305  
     150Ap     5.329916   110App    5.362026   111App    5.532248  
     112App    5.532507   151Ap     5.609109   152Ap     5.757406  
     153Ap     5.914699   154Ap     5.915231   155Ap     6.001641  
     156Ap     6.002765   113App    6.109470   114App    6.127877  
     115App    6.129511   116App    6.385234   117App    6.385731  
     157Ap    15.726718   158Ap    16.244846   159Ap    16.247776  

    Final Occupation by Irrep:
             Ap   App 
    DOCC [     9,    3 ]

  @DF-RKS Final Energy:  -117.94279419007729

   => Energetics <=

    Nuclear Repulsion Energy =             75.2866593043809615
    One-Electron Energy =                -305.9702849517464642
    Two-Electron Energy =                 127.7216287471067204
    DFT Exchange-Correlation Energy =     -14.9807972898185273
    Empirical Dispersion Energy =           0.0000000000000000
    VV10 Nonlocal Energy =                  0.0000000000000000
    Total Energy =                       -117.9427941900772936

Computation Completed


Properties will be evaluated at   0.000000,   0.000000,   0.000000 [a0]

Properties computed using the SCF density matrix

  Nuclear Dipole Moment: [e a0]
     X:     0.0015      Y:    -0.0002      Z:     0.0000

  Electronic Dipole Moment: [e a0]
     X:    -0.0017      Y:     0.0003      Z:     0.0000

  Dipole Moment: [e a0]
     X:    -0.0002      Y:     0.0002      Z:     0.0000     Total:     0.0002

  Dipole Moment: [D]
     X:    -0.0004      Y:     0.0004      Z:     0.0000     Total:     0.0006


*** tstop() called on atlantis at Tue Apr 19 14:39:38 2022
Module time:
	user time   =      24.18 seconds =       0.40 minutes
	system time =       0.13 seconds =       0.00 minutes
	total time  =         24 seconds =       0.40 minutes
Total time:
	user time   =     109.93 seconds =       1.83 minutes
	system time =       0.79 seconds =       0.01 minutes
	total time  =        111 seconds =       1.85 minutes

*** tstart() called on atlantis
*** at Tue Apr 19 14:39:38 2022


         ------------------------------------------------------------
                                   SCF GRAD                          
                          Rob Parrish, Justin Turney,                
                       Andy Simmonett, and Alex Sokolov              
         ------------------------------------------------------------

  ==> Geometry <==

    Molecular point group: cs
    Full point group: Cs

    Geometry (in Angstrom), charge = 0, multiplicity = 1:

       Center              X                  Y                   Z               Mass       
    ------------   -----------------  -----------------  -----------------  -----------------
         C            0.320981935461     0.813179232929     0.000000000000    12.000000000000
         C           -0.864778117207    -0.127947314912     0.000000000000    12.000000000000
         C            0.543659460418    -0.685217540638     0.000000000000    12.000000000000
         H            0.538602639069     1.360553886373    -0.920390000000     1.007825032230
         H            0.538602639069     1.360553886373     0.920390000000     1.007825032230
         H           -1.447170192407    -0.214118381478     0.920340000000     1.007825032230
         H           -1.447170192407    -0.214118381478    -0.920340000000     1.007825032230
         H            0.909381512053    -1.146521099385    -0.920370000000     1.007825032230
         H            0.909381512053    -1.146521099385     0.920370000000     1.007825032230

  Nuclear repulsion =   75.286659304380962

  ==> Basis Set <==

  Basis Set: AUG-CC-PVTZ
    Blend: AUG-CC-PVTZ
    Number of shells: 96
    Number of basis function: 276
    Number of Cartesian functions: 315
    Spherical Harmonics?: true
    Max angular momentum: 3

  ==> DFJKGrad: Density-Fitted SCF Gradients <==

    Gradient:                    1
    J tasked:                  Yes
    K tasked:                  Yes
    wK tasked:                  No
    OpenMP threads:              1
    Integrals threads:           1
    Memory [MiB]:              375
    Schwarz Cutoff:          0E+00
    Fitting Condition:       1E-10

   => Auxiliary Basis Set <=

  Basis Set: (AUG-CC-PVTZ AUX)
    Blend: AUG-CC-PVTZ-JKFIT
    Number of shells: 174
    Number of basis function: 588
    Number of Cartesian functions: 723
    Spherical Harmonics?: true
    Max angular momentum: 4

  ==> DFT Potential <==

   => Composite Functional: B3LYP <= 

    B3LYP Hyb-GGA Exchange-Correlation Functional

    P. J. Stephens, F. J. Devlin, C. F. Chabalowski, and M. J. Frisch, J. Phys. Chem. 98, 11623 (1994)

    Deriv               =              1
    GGA                 =           TRUE
    Meta                =          FALSE

    Exchange Hybrid     =           TRUE
    MP2 Hybrid          =          FALSE

   => Exchange Functionals <=

    0.0800   Slater exchange
    0.7200         Becke 88

   => Exact (HF) Exchange <=

    0.2000               HF 

   => Correlation Functionals <=

    0.1900   Vosko, Wilk & Nusair (VWN5_RPA)
    0.8100   Lee, Yang & Parr

   => Molecular Quadrature <=

    Radial Scheme          =       TREUTLER
    Pruning Scheme         =           FLAT
    Nuclear Scheme         =       TREUTLER

    BS radius alpha        =              1
    Pruning alpha          =              1
    Radial Points          =             75
    Spherical Points       =            302
    Total Points           =         203850
    Total Blocks           =           1568
    Max Points             =            256
    Max Functions          =            276


  -Total Gradient:
     Atom            X                  Y                   Z
    ------   -----------------  -----------------  -----------------
       1       -0.000069975619     0.000890969619     0.000000000000
       2       -0.000951273999    -0.000042427920     0.000000000000
       3        0.000808277809    -0.000955110144     0.000000000000
       4        0.001448151742     0.003476567680    -0.007137602297
       5        0.001448151742     0.003476567680     0.007137602297
       6       -0.003626731348    -0.000517954802     0.007046481322
       7       -0.003626731348    -0.000517954802    -0.007046481322
       8        0.002283395589    -0.002907836088    -0.007044885586
       9        0.002283395589    -0.002907836088     0.007044885586


*** tstop() called on atlantis at Tue Apr 19 14:39:47 2022
Module time:
	user time   =       8.83 seconds =       0.15 minutes
	system time =       0.15 seconds =       0.00 minutes
	total time  =          9 seconds =       0.15 minutes
Total time:
	user time   =     118.76 seconds =       1.98 minutes
	system time =       0.94 seconds =       0.02 minutes
	total time  =        120 seconds =       2.00 minutes

  //>>>>>>>>>>>>>>>>>>>>>>>>>>>>>>>>>>>//
  //    Loading displacement 3 of 34   //
  //<<<<<<<<<<<<<<<<<<<<<<<<<<<<<<<<<<<//
gradient() will perform analytic gradient computation.

*** tstart() called on atlantis
*** at Tue Apr 19 14:39:47 2022

   => Loading Basis Set <=

    Name: AUG-CC-PVTZ
    Role: ORBITAL
    Keyword: BASIS
    atoms 1-3 entry C          line   235 file /home/akrom/software/anaconda3/envs/ffpenv/share/psi4/basis/aug-cc-pvtz.gbs 
    atoms 4-9 entry H          line    36 file /home/akrom/software/anaconda3/envs/ffpenv/share/psi4/basis/aug-cc-pvtz.gbs 


         ---------------------------------------------------------
                                   SCF
               by Justin Turney, Rob Parrish, Andy Simmonett
                          and Daniel G. A. Smith
                              RKS Reference
                        1 Threads,    500 MiB Core
         ---------------------------------------------------------

  ==> Geometry <==

    Molecular point group: cs
    Full point group: Cs

    Geometry (in Angstrom), charge = 0, multiplicity = 1:

       Center              X                  Y                   Z               Mass       
    ------------   -----------------  -----------------  -----------------  -----------------
         C            0.322081944250     0.813343688021     0.000000000000    12.000000000000
         C           -0.865318003082    -0.128389764139     0.000000000000    12.000000000000
         C            0.543404419293    -0.684939538412     0.000000000000    12.000000000000
         H            0.537301240642     1.360829034576    -0.920390000000     1.007825032230
         H            0.537301240642     1.360829034576     0.920390000000     1.007825032230
         H           -1.447665927882    -0.214858697572     0.920340000000     1.007825032230
         H           -1.447665927882    -0.214858697572    -0.920340000000     1.007825032230
         H            0.909362367658    -1.146055979665    -0.920370000000     1.007825032230
         H            0.909362367658    -1.146055979665     0.920370000000     1.007825032230

  Running in cs symmetry.

  Rotational constants: A =      0.66489  B =      0.66431  C =      0.41639 [cm^-1]
  Rotational constants: A =  19932.94970  B =  19915.53021  C =  12482.92073 [MHz]
  Nuclear repulsion =   75.276267816162189

  Charge       = 0
  Multiplicity = 1
  Electrons    = 24
  Nalpha       = 12
  Nbeta        = 12

  ==> Algorithm <==

  SCF Algorithm Type is DF.
  DIIS enabled.
  MOM disabled.
  Fractional occupation disabled.
  Guess Type is SAD.
  Energy threshold   = 1.00e-08
  Density threshold  = 1.00e-08
  Integral threshold = 0.00e+00

  ==> Primary Basis <==

  Basis Set: AUG-CC-PVTZ
    Blend: AUG-CC-PVTZ
    Number of shells: 96
    Number of basis function: 276
    Number of Cartesian functions: 315
    Spherical Harmonics?: true
    Max angular momentum: 3

  ==> DFT Potential <==

   => Composite Functional: B3LYP <= 

    B3LYP Hyb-GGA Exchange-Correlation Functional

    P. J. Stephens, F. J. Devlin, C. F. Chabalowski, and M. J. Frisch, J. Phys. Chem. 98, 11623 (1994)

    Deriv               =              1
    GGA                 =           TRUE
[...]
    MP2 Hybrid          =          FALSE

   => Exchange Functionals <=

    0.0800   Slater exchange
    0.7200         Becke 88

   => Exact (HF) Exchange <=

    0.2000               HF 

   => Correlation Functionals <=

    0.1900   Vosko, Wilk & Nusair (VWN5_RPA)
    0.8100   Lee, Yang & Parr

   => Molecular Quadrature <=

    Radial Scheme          =       TREUTLER
    Pruning Scheme         =           FLAT
    Nuclear Scheme         =       TREUTLER

    BS radius alpha        =              1
    Pruning alpha          =              1
    Radial Points          =             75
    Spherical Points       =            302
    Total Points           =         203850
    Total Blocks           =           1569
    Max Points             =            256
    Max Functions          =            276


  -Total Gradient:
     Atom            X                  Y                   Z
    ------   -----------------  -----------------  -----------------
       1        0.000448560082     0.001149237076     0.000004001817
       2       -0.001193541292    -0.000172210196     0.000418533672
       3        0.000765882437    -0.000955169961    -0.001170678128
       4        0.001347924620     0.003413497320    -0.007052327116
       5        0.001353232821     0.003425805064     0.007050240393
       6       -0.003479314548    -0.000540858784     0.006775787832
       7       -0.003810531623    -0.000545916604    -0.007307736462
       8        0.001934442863    -0.002543285249    -0.006404661528
       9        0.002632818143    -0.003226491682     0.007686901907


*** tstop() called on atlantis at Tue Apr 19 14:57:29 2022
Module time:
	user time   =       8.71 seconds =       0.15 minutes
	system time =       0.15 seconds =       0.00 minutes
	total time  =          9 seconds =       0.15 minutes
Total time:
	user time   =    1170.83 seconds =      19.51 minutes
	system time =       9.69 seconds =       0.16 minutes
	total time  =       1182 seconds =      19.70 minutes

         ----------------------------------------------------------
                                   FINDIF
                     R. A. King and Jonathon Misiewicz
         ---------------------------------------------------------

  Computing second-derivative from gradients using projected, 
  symmetry-adapted, cartesian coordinates.

  34 gradients passed in, including the reference geometry.
  Generating complete list of displacements from unique ones.

    Operation 2 takes plus displacements of irrep A" to minus ones.

-------------------------------------------------------------


  ==> Harmonic Vibrational Analysis <==

  non-mass-weighted Hessian:       Symmetric? True   Hermitian? True   Lin Dep Dim?  6 (0)
  projection of translations (True) and rotations (True) removed 6 degrees of freedom (6)
  total projector:                 Symmetric? True   Hermitian? True   Lin Dep Dim?  6 (6)
  mass-weighted Hessian:           Symmetric? True   Hermitian? True   Lin Dep Dim?  6 (0)
  pre-proj  low-frequency mode:    0.0000i [cm^-1]
  pre-proj  low-frequency mode:    0.0000i [cm^-1]
  pre-proj  low-frequency mode:    0.0000i [cm^-1]
  pre-proj  low-frequency mode:    0.0000i [cm^-1]
  pre-proj  low-frequency mode:    0.0000  [cm^-1]
  pre-proj  low-frequency mode:    0.0000  [cm^-1]
  pre-proj  all modes:['0.0000i' '0.0000i' '0.0000i' '0.0000i' '0.0000' '0.0000' '798.5202'
 '798.6299' '854.1610' '856.2394' '908.1230' '1083.6381' '1086.4128'
 '1122.8289' '1177.6723' '1181.9135' '1230.3960' '1230.4789' '1486.9695'
 '1487.2303' '1525.3212' '3020.4429' '3020.5056' '3027.3861' '3091.4629'
 '3091.4868' '3113.5791']
  projected mass-weighted Hessian: Symmetric? True   Hermitian? True   Lin Dep Dim?  6 (6)
  post-proj low-frequency mode:    0.0000i [cm^-1] (TR)
  post-proj low-frequency mode:    0.0000i [cm^-1] (TR)
  post-proj low-frequency mode:    0.0000  [cm^-1] (TR)
  post-proj low-frequency mode:    0.0000  [cm^-1] (TR)
  post-proj low-frequency mode:    0.0000  [cm^-1] (TR)
  post-proj low-frequency mode:    0.0001  [cm^-1] (TR)
  post-proj  all modes:['0.0000i' '0.0000i' '0.0000' '0.0000' '0.0000' '0.0001' '798.5202'
 '798.6299' '854.1610' '856.2394' '908.1230' '1083.6381' '1086.4128'
 '1122.8289' '1177.6723' '1181.9135' '1230.3960' '1230.4789' '1486.9695'
 '1487.2303' '1525.3212' '3020.4429' '3020.5056' '3027.3861' '3091.4629'
 '3091.4868' '3113.5791']

  Vibration                       7                   8                   9           
  Freq [cm^-1]                 798.5202            798.6299            854.1610       
  Irrep                          App                 App                  Ap          
  Reduced mass [u]              1.0208              1.0209              4.2896        
  Force const [mDyne/A]         0.3835              0.3836              1.8439        
  Turning point v=0 [a0]        0.3843              0.3843              0.1813        
  RMS dev v=0 [a0 u^1/2]        0.2746              0.2746              0.2655        
  Char temp [K]               1148.8928           1149.0506           1228.9474       
  ----------------------------------------------------------------------------------
      1   C                0.00  0.00 -0.03   -0.00 -0.00  0.00   -0.21  0.23  0.00   
      2   C                0.00 -0.00  0.01   -0.00  0.00 -0.03    0.32  0.07  0.00   
      3   C                0.00  0.00  0.02    0.00  0.00  0.02   -0.08 -0.30  0.00   
      4   H                0.17  0.27  0.18    0.39 -0.20 -0.02   -0.30  0.24 -0.01   
      5   H               -0.17 -0.27  0.18   -0.39  0.20 -0.02   -0.30  0.24  0.01   
      6   H               -0.18  0.39 -0.07    0.27  0.21  0.17    0.26  0.08 -0.04   
      7   H                0.18 -0.39 -0.07   -0.27 -0.21  0.17    0.26  0.08  0.04   
      8   H               -0.40 -0.06 -0.11    0.06  0.37 -0.14   -0.16 -0.32 -0.02   
      9   H                0.40  0.06 -0.11   -0.06 -0.37 -0.14   -0.16 -0.32  0.02   

  Vibration                       10                  11                  12          
  Freq [cm^-1]                 856.2394            908.1230           1083.6381       
  Irrep                           Ap                 App                  Ap          
  Reduced mass [u]              4.3193              1.0441              1.2101        
  Force const [mDyne/A]         1.8658              0.5073              0.8372        
  Turning point v=0 [a0]        0.1804              0.3563              0.3030        
  RMS dev v=0 [a0 u^1/2]        0.2652              0.2575              0.2357        
  Char temp [K]               1231.9379           1306.5867           1559.1139       
  ----------------------------------------------------------------------------------
      1   C               -0.23 -0.23 -0.00    0.00  0.00 -0.03    0.04 -0.00 -0.00   
      2   C               -0.07  0.30 -0.00    0.00 -0.00 -0.03    0.02 -0.11  0.00   
      3   C                0.30 -0.10 -0.00   -0.00 -0.00 -0.03   -0.06 -0.03  0.00   
      4   H               -0.24 -0.17  0.03    0.13  0.33  0.20   -0.19  0.06 -0.02   
      5   H               -0.24 -0.17 -0.03   -0.13 -0.33  0.20   -0.19  0.06  0.02   
      6   H               -0.08  0.39  0.00    0.35  0.05  0.20   -0.09  0.56 -0.00   
      7   H               -0.08  0.39 -0.00   -0.35 -0.05  0.20   -0.09  0.56  0.00   
      8   H                0.32 -0.03 -0.03    0.22 -0.28  0.20    0.29  0.22  0.01   
      9   H                0.32 -0.03  0.03   -0.22  0.28  0.20    0.29  0.22 -0.01   

  Vibration                       13                  14                  15          
  Freq [cm^-1]                1086.4128           1122.8289           1177.6723       
  Irrep                           Ap                  Ap                 App          
  Reduced mass [u]              1.2135              1.4255              1.0078        
  Force const [mDyne/A]         0.8439              1.0589              0.8235        
  Turning point v=0 [a0]        0.3022              0.2743              0.3185        
  RMS dev v=0 [a0 u^1/2]        0.2354              0.2315              0.2261        
  Char temp [K]               1563.1062           1615.5008           1694.4082       
  ----------------------------------------------------------------------------------
      1   C               -0.10  0.04  0.00    0.10 -0.04  0.00   -0.00 -0.00 -0.00   
      2   C                0.01  0.02 -0.00   -0.01  0.11 -0.00    0.00 -0.00  0.00   
      3   C               -0.06 -0.06  0.00   -0.09 -0.07  0.00   -0.00  0.00 -0.00   
      4   H                0.50 -0.20 -0.01   -0.37  0.14 -0.00   -0.38  0.15  0.00   
      5   H                0.50 -0.20  0.01   -0.37  0.14  0.00    0.38 -0.15  0.00   
      6   H                0.00 -0.10 -0.02    0.06 -0.40  0.00   -0.06  0.40 -0.00   
      7   H                0.00 -0.10  0.02    0.06 -0.40 -0.00    0.06 -0.40 -0.00   
      8   H                0.33  0.28 -0.01    0.32  0.25 -0.00    0.32  0.25  0.00   
      9   H                0.33  0.28  0.01    0.32  0.25  0.00   -0.32 -0.25  0.00   

  Vibration                       16                  17                  18          
  Freq [cm^-1]                1181.9135           1230.3960           1230.4789       
  Irrep                           Ap                 App                 App          
  Reduced mass [u]              3.0144              1.4511              1.4511        
  Force const [mDyne/A]         2.4810              1.2943              1.2945        
  Turning point v=0 [a0]        0.1838              0.2597              0.2597        
  RMS dev v=0 [a0 u^1/2]        0.2257              0.2212              0.2212        
  Char temp [K]               1700.5104           1770.2659           1770.3852       
  ----------------------------------------------------------------------------------
      1   C               -0.09 -0.23  0.00   -0.00  0.00  0.16    0.00 -0.00 -0.02   
      2   C                0.24  0.03 -0.00    0.00 -0.00 -0.06    0.00  0.00  0.15   
      3   C               -0.15  0.20  0.00    0.00  0.00 -0.10   -0.00  0.00 -0.13   
      4   H               -0.13 -0.34 -0.05   -0.10 -0.39 -0.09    0.38 -0.09  0.01   
      5   H               -0.13 -0.34  0.05    0.10  0.39 -0.09   -0.38  0.09  0.01   
      6   H                0.36  0.06  0.05    0.10  0.38  0.03   -0.39  0.09 -0.08   
      7   H                0.36  0.06 -0.05   -0.10 -0.38  0.03    0.39 -0.09 -0.08   
      8   H               -0.24  0.28 -0.05   -0.08 -0.38  0.05    0.38 -0.10  0.07   
      9   H               -0.24  0.28  0.05    0.08  0.38  0.05   -0.38  0.10  0.07   

  Vibration                       19                  20                  21          
  Freq [cm^-1]                1486.9695           1487.2303           1525.3212       
  Irrep                           Ap                  Ap                  Ap          
  Reduced mass [u]              1.0882              1.0886              1.2604        
  Force const [mDyne/A]         1.4176              1.4186              1.7277        
  Turning point v=0 [a0]        0.2728              0.2727              0.2503        
  RMS dev v=0 [a0 u^1/2]        0.2012              0.2012              0.1987        
  Char temp [K]               2139.4180           2139.7933           2194.5976       
  ----------------------------------------------------------------------------------
      1   C               -0.01  0.01 -0.00   -0.03 -0.06  0.00    0.03  0.08 -0.00   
      2   C               -0.05  0.00 -0.00   -0.04 -0.02 -0.00   -0.09 -0.01 -0.00   
      3   C               -0.04  0.05  0.00    0.01 -0.03  0.00    0.05 -0.07 -0.00   
      4   H               -0.01 -0.07 -0.05    0.17  0.43  0.32   -0.12 -0.30 -0.25   
      5   H               -0.01 -0.07  0.05    0.17  0.43 -0.32   -0.12 -0.30  0.25   
      6   H                0.36  0.04  0.25    0.29  0.06  0.21    0.32  0.05  0.25   
      7   H                0.36  0.04 -0.25    0.29  0.06 -0.21    0.32  0.05 -0.25   
      8   H                0.28 -0.34  0.31   -0.09  0.14 -0.12   -0.20  0.25 -0.25   
      9   H                0.28 -0.34 -0.31   -0.09  0.14  0.12   -0.20  0.25  0.25   

  Vibration                       22                  23                  24          
  Freq [cm^-1]                3020.4429           3020.5056           3027.3861       
  Irrep                           Ap                  Ap                  Ap          
  Reduced mass [u]              1.0493              1.0494              1.0607        
  Force const [mDyne/A]         5.6402              5.6409              5.7279        
  Turning point v=0 [a0]        0.1949              0.1949              0.1936        
  RMS dev v=0 [a0 u^1/2]        0.1412              0.1412              0.1410        
  Char temp [K]               4345.7449           4345.8351           4355.7345       
  ----------------------------------------------------------------------------------
      1   C                0.00  0.01 -0.00    0.02  0.05  0.00    0.01  0.04  0.00   
      2   C                0.05  0.01 -0.00    0.02  0.00  0.00   -0.04 -0.01 -0.00   
      3   C                0.02 -0.03  0.00   -0.02  0.03 -0.00    0.02 -0.03  0.00   
      4   H               -0.02 -0.06  0.10   -0.11 -0.27  0.48   -0.08 -0.19  0.35   
      5   H               -0.02 -0.06 -0.10   -0.11 -0.27 -0.48   -0.08 -0.19 -0.35   
      6   H               -0.28 -0.04  0.46   -0.09 -0.01  0.16    0.21  0.03 -0.36   
      7   H               -0.28 -0.04 -0.46   -0.09 -0.01 -0.16    0.21  0.03  0.36   
      8   H               -0.14  0.18  0.37    0.12 -0.15 -0.32   -0.13  0.16  0.35   
      9   H               -0.14  0.18 -0.37    0.12 -0.15  0.32   -0.13  0.16 -0.35   

  Vibration                       25                  26                  27          
  Freq [cm^-1]                3091.4629           3091.4868           3113.5791       
  Irrep                          App                 App                 App          
  Reduced mass [u]              1.1205              1.1205              1.1161        
  Force const [mDyne/A]         6.3095              6.3097              6.3750        
  Turning point v=0 [a0]        0.1864              0.1864              0.1861        
  RMS dev v=0 [a0 u^1/2]        0.1395              0.1395              0.1390        
  Char temp [K]               4447.9268           4447.9612           4479.7471       
  ----------------------------------------------------------------------------------
      1   C               -0.00 -0.00  0.05   -0.00 -0.00  0.06    0.00  0.00 -0.06   
      2   C               -0.00  0.00 -0.08   -0.00  0.00  0.02    0.00 -0.00 -0.06   
      3   C               -0.00  0.00  0.03    0.00 -0.00 -0.08    0.00 -0.00 -0.06   
      4   H                0.07  0.19 -0.32    0.09  0.21 -0.36   -0.08 -0.21  0.34   
      5   H               -0.07 -0.19 -0.32   -0.09 -0.21 -0.36    0.08  0.21  0.34   
      6   H               -0.30 -0.04  0.48    0.06  0.01 -0.10   -0.22 -0.03  0.34   
      7   H                0.30  0.04  0.48   -0.06 -0.01 -0.10    0.22  0.03  0.34   
      8   H                0.06 -0.08 -0.16   -0.18  0.23  0.46   -0.14  0.17  0.34   
      9   H               -0.06  0.08 -0.16    0.18 -0.23  0.46    0.14 -0.17  0.34   

  ==> Thermochemistry Components <==

  Entropy, S
    Electronic S            0.000 [cal/(mol K)]        0.000 [J/(mol K)]       0.00000000 [mEh/K] (multiplicity = 1)
    Translational S        37.135 [cal/(mol K)]      155.375 [J/(mol K)]       0.05917914 [mEh/K] (mol. weight = 42.0470 [u], P = 101325.00 [Pa])
    Rotational S           21.699 [cal/(mol K)]       90.789 [J/(mol K)]       0.03457982 [mEh/K] (symmetry no. = 1)
    Vibrational S           1.273 [cal/(mol K)]        5.328 [J/(mol K)]       0.00202922 [mEh/K]
  Total S                  60.108 [cal/(mol K)]      251.492 [J/(mol K)]       0.09578818 [mEh/K]
  Correction S              0.000 [cal/(mol K)]        0.000 [J/(mol K)]       0.00000000 [mEh/K]

  Constant volume heat capacity, Cv
    Electronic Cv           0.000 [cal/(mol K)]        0.000 [J/(mol K)]       0.00000000 [mEh/K]
    Translational Cv        2.981 [cal/(mol K)]       12.472 [J/(mol K)]       0.00475022 [mEh/K]
    Rotational Cv           2.981 [cal/(mol K)]       12.472 [J/(mol K)]       0.00475022 [mEh/K]
    Vibrational Cv          4.805 [cal/(mol K)]       20.105 [J/(mol K)]       0.00765759 [mEh/K]
  Total Cv                 10.767 [cal/(mol K)]       45.048 [J/(mol K)]       0.01715802 [mEh/K]
  Correction Cv             0.000 [cal/(mol K)]        0.000 [J/(mol K)]       0.00000000 [mEh/K]

  Constant pressure heat capacity, Cp
    Electronic Cp           0.000 [cal/(mol K)]        0.000 [J/(mol K)]       0.00000000 [mEh/K]
    Translational Cp        4.968 [cal/(mol K)]       20.786 [J/(mol K)]       0.00791703 [mEh/K]
    Rotational Cp           2.981 [cal/(mol K)]       12.472 [J/(mol K)]       0.00475022 [mEh/K]
    Vibrational Cp          4.805 [cal/(mol K)]       20.105 [J/(mol K)]       0.00765759 [mEh/K]
  Total Cp                 12.754 [cal/(mol K)]       53.363 [J/(mol K)]       0.02032483 [mEh/K]
  Correction Cp             0.000 [cal/(mol K)]        0.000 [J/(mol K)]       0.00000000 [mEh/K]

  ==> Thermochemistry Energy Analysis <==

  Raw electronic energy, E0
  Total E0, Electronic energy at well bottom at 0 [K]                 -117.94279133 [Eh]

  Zero-point energy, ZPE_vib = Sum_i nu_i / 2
    Electronic ZPE          0.000 [kcal/mol]        0.000 [kJ/mol]       0.00000000 [Eh]
    Translational ZPE       0.000 [kcal/mol]        0.000 [kJ/mol]       0.00000000 [Eh]
    Rotational ZPE          0.000 [kcal/mol]        0.000 [kJ/mol]       0.00000000 [Eh]
    Vibrational ZPE        50.311 [kcal/mol]      210.503 [kJ/mol]       0.08017646 [Eh]       17596.699 [cm^-1]
  Correction ZPE           50.311 [kcal/mol]      210.503 [kJ/mol]       0.08017646 [Eh]       17596.699 [cm^-1]
  Total ZPE, Electronic energy at 0 [K]                               -117.86261487 [Eh]

  Thermal Energy, E (includes ZPE)
    Electronic E            0.000 [kcal/mol]        0.000 [kJ/mol]       0.00000000 [Eh]
    Translational E         0.889 [kcal/mol]        3.718 [kJ/mol]       0.00141628 [Eh]
    Rotational E            0.889 [kcal/mol]        3.718 [kJ/mol]       0.00141628 [Eh]
    Vibrational E          50.622 [kcal/mol]      211.801 [kJ/mol]       0.08067074 [Eh]
  Correction E             52.399 [kcal/mol]      219.238 [kJ/mol]       0.08350329 [Eh]
  Total E, Electronic energy at  298.15 [K]                           -117.85928804 [Eh]

  Enthalpy, H_trans = E_trans + k_B * T
    Electronic H            0.000 [kcal/mol]        0.000 [kJ/mol]       0.00000000 [Eh]
    Translational H         1.481 [kcal/mol]        6.197 [kJ/mol]       0.00236046 [Eh]
    Rotational H            0.889 [kcal/mol]        3.718 [kJ/mol]       0.00141628 [Eh]
    Vibrational H          50.622 [kcal/mol]      211.801 [kJ/mol]       0.08067074 [Eh]
  Correction H             52.992 [kcal/mol]      221.717 [kJ/mol]       0.08444748 [Eh]
  Total H, Enthalpy at  298.15 [K]                                    -117.85834386 [Eh]

  Gibbs free energy, G = H - T * S
    Electronic G            0.000 [kcal/mol]        0.000 [kJ/mol]       0.00000000 [Eh]
    Translational G        -9.591 [kcal/mol]      -40.128 [kJ/mol]      -0.01528380 [Eh]
    Rotational G           -5.581 [kcal/mol]      -23.350 [kJ/mol]      -0.00889370 [Eh]
    Vibrational G          50.242 [kcal/mol]      210.213 [kJ/mol]       0.08006573 [Eh]
  Correction G             35.070 [kcal/mol]      146.735 [kJ/mol]       0.05588823 [Eh]
  Total G, Free enthalpy at  298.15 [K]                               -117.88690310 [Eh]

    Psi4 stopped on: Tuesday, 19 April 2022 02:57PM
    Psi4 wall time for execution: 0:19:42.19

*** Psi4 exiting successfully. Buy a developer a beer!
