
    -----------------------------------------------------------------------
          Psi4: An Open-Source Ab Initio Electronic Structure Package
                               Psi4 1.3.2 release

                         Git: Rev {HEAD} ecbda83 


    R. M. Parrish, L. A. Burns, D. G. A. Smith, A. C. Simmonett,
    A. E. DePrince III, E. G. Hohenstein, U. Bozkaya, A. Yu. Sokolov,
    R. Di Remigio, R. M. Richard, J. F. Gonthier, A. M. James,
    H. R. McAlexander, A. Kumar, M. Saitow, X. Wang, B. P. Pritchard,
    P. Verma, H. F. Schaefer III, K. Patkowski, R. A. King, E. F. Valeev,
    F. A. Evangelista, J. M. Turney, T. D. Crawford, and C. D. Sherrill,
    J. Chem. Theory Comput. 13(7) pp 3185--3197 (2017).
    (doi: 10.1021/acs.jctc.7b00174)


                         Additional Contributions by
    P. Kraus, H. Kruse, M. H. Lechner, M. C. Schieber, R. A. Shaw,
    A. Alenaizan, R. Galvelis, Z. L. Glick, S. Lehtola, and J. P. Misiewicz

    -----------------------------------------------------------------------


    Psi4 started on: Tuesday, 19 April 2022 02:02AM

    Process ID: 25976
    Host:       atlantis
    PSIDATADIR: /home/akrom/software/anaconda3/envs/ffpenv/share/psi4
    Memory:     500.0 MiB
    Threads:    1
    
  ==> Input File <==

--------------------------------------------------------------------------
set basis  aug-cc-pVDZ
molecule {
0 1
   C       -0.61446        0.00000        0.00000
   C        0.61446        0.00000        0.00000
   H       -1.68923        0.00000        0.00000
   H        1.68923        0.00000        0.00000
}
energy('B3LYP')
frequencies('B3LYP')
--------------------------------------------------------------------------

*** tstart() called on atlantis
*** at Tue Apr 19 02:02:39 2022

   => Loading Basis Set <=

    Name: AUG-CC-PVDZ
    Role: ORBITAL
    Keyword: BASIS
    atoms 1-2 entry C          line   178 file /home/akrom/software/anaconda3/envs/ffpenv/share/psi4/basis/aug-cc-pvdz.gbs 
    atoms 3-4 entry H          line    36 file /home/akrom/software/anaconda3/envs/ffpenv/share/psi4/basis/aug-cc-pvdz.gbs 


         ---------------------------------------------------------
                                   SCF
               by Justin Turney, Rob Parrish, Andy Simmonett
                          and Daniel G. A. Smith
                              RKS Reference
                        1 Threads,    500 MiB Core
         ---------------------------------------------------------

  ==> Geometry <==

    Molecular point group: d2h
    Full point group: D_inf_h

    Geometry (in Angstrom), charge = 0, multiplicity = 1:

       Center              X                  Y                   Z               Mass       
    ------------   -----------------  -----------------  -----------------  -----------------
         C           -0.614460000000    -0.000000000000     0.000000000000    12.000000000000
         C            0.614460000000     0.000000000000     0.000000000000    12.000000000000
         H           -1.689230000000    -0.000000000000     0.000000000000     1.007825032230
         H            1.689230000000     0.000000000000     0.000000000000     1.007825032230

  Running in d2h symmetry.

  Rotational constants: A = ************  B =      1.13802  C =      1.13802 [cm^-1]
  Rotational constants: A = ************  B =  34116.98697  C =  34116.98697 [MHz]
  Nuclear repulsion =   24.323218171379235

  Charge       = 0
  Multiplicity = 1
  Electrons    = 14
  Nalpha       = 7
  Nbeta        = 7

  ==> Algorithm <==

  SCF Algorithm Type is DF.
  DIIS enabled.
  MOM disabled.
  Fractional occupation disabled.
  Guess Type is SAD.
  Energy threshold   = 1.00e-06
  Density threshold  = 1.00e-06
  Integral threshold = 0.00e+00

  ==> Primary Basis <==

  Basis Set: AUG-CC-PVDZ
    Blend: AUG-CC-PVDZ
    Number of shells: 28
    Number of basis function: 64
    Number of Cartesian functions: 68
    Spherical Harmonics?: true
    Max angular momentum: 2

  ==> DFT Potential <==

   => Composite Functional: B3LYP <= 

    B3LYP Hyb-GGA Exchange-Correlation Functional

    P. J. Stephens, F. J. Devlin, C. F. Chabalowski, and M. J. Frisch, J. Phys. Chem. 98, 11623 (1994)

    Deriv               =              1
    GGA                 =           TRUE
    Meta                =          FALSE

    Exchange Hybrid     =           TRUE
    MP2 Hybrid          =          FALSE

   => Exchange Functionals <=

    0.0800   Slater exchange
    0.7200         Becke 88

   => Exact (HF) Exchange <=

    0.2000               HF 

   => Correlation Functionals <=

    0.1900   Vosko, Wilk & Nusair (VWN5_RPA)
    0.8100   Lee, Yang & Parr

   => Molecular Quadrature <=

    Radial Scheme          =       TREUTLER
    Pruning Scheme         =           FLAT
    Nuclear Scheme         =       TREUTLER

    BS radius alpha        =              1
    Pruning alpha          =              1
    Radial Points          =             75
    Spherical Points       =            302
    Total Points           =          90600
    Total Blocks           =            752
    Max Points             =            256
    Max Functions          =             64

   => Loading Basis Set <=

    Name: (AUG-CC-PVDZ AUX)
    Role: JKFIT
    Keyword: DF_BASIS_SCF
    atoms 1-2 entry C          line   154 file /home/akrom/software/anaconda3/envs/ffpenv/share/psi4/basis/aug-cc-pvdz-jkfit.gbs 
    atoms 3-4 entry H          line    70 file /home/akrom/software/anaconda3/envs/ffpenv/share/psi4/basis/aug-cc-pvdz-jkfit.gbs 

  ==> Pre-Iterations <==

   -------------------------------------------------------
    Irrep   Nso     Nmo     Nalpha   Nbeta   Ndocc  Nsocc
   -------------------------------------------------------
     Ag        16      16       0       0       0       0
     B1g        7       7       0       0       0       0
     B2g        7       7       0       0       0       0
     B3g        2       2       0       0       0       0
     Au         2       2       0       0       0       0
     B1u        7       7       0       0       0       0
     B2u        7       7       0       0       0       0
     B3u       16      16       0       0       0       0
   -------------------------------------------------------
    Total      64      64       7       7       7       0
   -------------------------------------------------------

  ==> Integral Setup <==

  DFHelper Memory: AOs need 0.008 GiB; user supplied 0.202 GiB. Using in-core AOs.

  ==> MemDFJK: Density-Fitted J/K Matrices <==

    J tasked:                   Yes
    K tasked:                   Yes
    wK tasked:                   No
    OpenMP threads:               1
    Memory [MiB]:               207
    Algorithm:                 Core
    Schwarz Cutoff:           1E-12
    Mask sparsity (%):       0.0000
    Fitting Condition:        1E-10

   => Auxiliary Basis Set <=

  Basis Set: (AUG-CC-PVDZ AUX)
    Blend: AUG-CC-PVDZ-JKFIT
    Number of shells: 80
    Number of basis function: 236
    Number of Cartesian functions: 272
    Spherical Harmonics?: true
    Max angular momentum: 3

  Cached 100.0% of DFT collocation blocks in 0.164 [GiB].

  Minimum eigenvalue in the overlap matrix is 3.8568108127E-05.
  Using Symmetric Orthogonalization.

  SCF Guess: Superposition of Atomic Densities via on-the-fly atomic UHF.

  ==> Iterations <==

                           Total Energy        Delta E     RMS |[F,P]|

   @DF-RKS iter SAD:   -76.65462294196939   -7.66546e+01   0.00000e+00 
   @DF-RKS iter   1:   -77.14599694739549   -4.91374e-01   2.04311e-02 DIIS
   @DF-RKS iter   2:   -77.09624146516524    4.97555e-02   2.30585e-02 DIIS
   @DF-RKS iter   3:   -77.33752873508269   -2.41287e-01   7.28584e-04 DIIS
   @DF-RKS iter   4:   -77.33777413553739   -2.45400e-04   6.35110e-05 DIIS
   @DF-RKS iter   5:   -77.33777596302173   -1.82748e-06   9.11937e-06 DIIS
   @DF-RKS iter   6:   -77.33777599505660   -3.20349e-08   6.09333e-07 DIIS
  Energy and wave function converged.


  ==> Post-Iterations <==

    Orbital Energies [Eh]
    ---------------------

    Doubly Occupied:                                                      

       1Ag   -10.211041     1B3u  -10.209097     2Ag    -0.757238  
       2B3u   -0.575141     3Ag    -0.501256     1B1u   -0.296562  
       1B2u   -0.296562  

    Virtual:                                                              

       4Ag     0.000644     1B1g    0.004690     1B2g    0.004690  
       3B3u    0.007857     2B1u    0.061606     2B2u    0.061606  
       5Ag     0.064312     4B3u    0.080580     6Ag     0.118568  
       2B1g    0.120017     2B2g    0.120017     5B3u    0.158103  
       7Ag     0.232393     6B3u    0.248426     3B1u    0.283153  
       3B2u    0.283153     8Ag     0.301070     1B3g    0.301070  
       3B1g    0.374606     3B2g    0.374606     7B3u    0.408170  
       9Ag     0.426587     1Au     0.466108     8B3u    0.466108  
      10Ag     0.471348     9B3u    0.570092     4B1u    0.596435  
       4B2u    0.596435     4B2g    0.671855     4B1g    0.671855  
       5B1u    0.673050     5B2u    0.673050    10B3u    0.697949  
      11Ag     0.772333    11B3u    0.955764     5B2g    0.998362  
       5B1g    0.998362    12Ag     1.165037    13Ag     1.326403  
       2B3g    1.326403    12B3u    1.386590     6B1u    1.409083  
       6B2u    1.409083    14Ag     1.463510    13B3u    1.626971  
       2Au     1.626971     6B2g    1.668759     6B1g    1.668759  
       7B1u    1.855299     7B2u    1.855299    14B3u    2.196532  
      15Ag     2.246407    15B3u    2.322493     7B2g    2.460837  
       7B1g    2.460837    16Ag     3.392533    16B3u    3.606983  

    Final Occupation by Irrep:
             Ag   B1g   B2g   B3g    Au   B1u   B2u   B3u 
    DOCC [     3,    0,    0,    0,    0,    1,    1,    2 ]

  @DF-RKS Final Energy:   -77.33777599505660

   => Energetics <=

    Nuclear Repulsion Energy =             24.3232181713792350
    One-Electron Energy =                -150.9511389966027082
    Two-Electron Energy =                  58.5621158156845780
    DFT Exchange-Correlation Energy =      -9.2719709855177062
    Empirical Dispersion Energy =           0.0000000000000000
    VV10 Nonlocal Energy =                  0.0000000000000000
    Total Energy =                        -77.3377759950566031

Computation Completed


Properties will be evaluated at   0.000000,   0.000000,   0.000000 [a0]

Properties computed using the SCF density matrix

  Nuclear Dipole Moment: [e a0]
     X:     0.0000      Y:     0.0000      Z:     0.0000

  Electronic Dipole Moment: [e a0]
     X:     0.0000      Y:     0.0000      Z:     0.0000

  Dipole Moment: [e a0]
     X:     0.0000      Y:     0.0000      Z:     0.0000     Total:     0.0000

  Dipole Moment: [D]
     X:     0.0000      Y:     0.0000      Z:     0.0000     Total:     0.0000


*** tstop() called on atlantis at Tue Apr 19 02:02:41 2022
Module time:
	user time   =       1.61 seconds =       0.03 minutes
	system time =       0.06 seconds =       0.00 minutes
	total time  =          2 seconds =       0.03 minutes
Total time:
	user time   =       1.61 seconds =       0.03 minutes
	system time =       0.06 seconds =       0.00 minutes
	total time  =          2 seconds =       0.03 minutes
gradient() will perform analytic gradient computation.

*** tstart() called on atlantis
*** at Tue Apr 19 02:02:41 2022

   => Loading Basis Set <=

    Name: AUG-CC-PVDZ
    Role: ORBITAL
    Keyword: BASIS
    atoms 1-2 entry C          line   178 file /home/akrom/software/anaconda3/envs/ffpenv/share/psi4/basis/aug-cc-pvdz.gbs 
    atoms 3-4 entry H          line    36 file /home/akrom/software/anaconda3/envs/ffpenv/share/psi4/basis/aug-cc-pvdz.gbs 


         ---------------------------------------------------------
                                   SCF
               by Justin Turney, Rob Parrish, Andy Simmonett
                          and Daniel G. A. Smith
                              RKS Reference
                        1 Threads,    500 MiB Core
         ---------------------------------------------------------

  ==> Geometry <==

    Molecular point group: d2h
    Full point group: D_inf_h

    Geometry (in Angstrom), charge = 0, multiplicity = 1:

       Center              X                  Y                   Z               Mass       
    ------------   -----------------  -----------------  -----------------  -----------------
         C           -0.614460000000    -0.000000000000     0.000000000000    12.000000000000
         C            0.614460000000     0.000000000000     0.000000000000    12.000000000000
         H           -1.689230000000    -0.000000000000     0.000000000000     1.007825032230
         H            1.689230000000     0.000000000000     0.000000000000     1.007825032230

  Running in d2h symmetry.

  Rotational constants: A = ************  B =      1.13802  C =      1.13802 [cm^-1]
  Rotational constants: A = ************  B =  34116.98697  C =  34116.98697 [MHz]
  Nuclear repulsion =   24.323218171379235

  Charge       = 0
  Multiplicity = 1
  Electrons    = 14
  Nalpha       = 7
  Nbeta        = 7

  ==> Algorithm <==

  SCF Algorithm Type is DF.
  DIIS enabled.
  MOM disabled.
  Fractional occupation disabled.
  Guess Type is SAD.
  Energy threshold   = 1.00e-08
  Density threshold  = 1.00e-08
  Integral threshold = 0.00e+00

  ==> Primary Basis <==

  Basis Set: AUG-CC-PVDZ
    Blend: AUG-CC-PVDZ
    Number of shells: 28
    Number of basis function: 64
    Number of Cartesian functions: 68
    Spherical Harmonics?: true
    Max angular momentum: 2

  ==> DFT Potential <==

   => Composite Functional: B3LYP <= 

    B3LYP Hyb-GGA Exchange-Correlation Functional

    P. J. Stephens, F. J. Devlin, C. F. Chabalowski, and M. J. Frisch, J. Phys. Chem. 98, 11623 (1994)

    Deriv               =              1
    GGA                 =           TRUE
    Meta                =          FALSE

    Exchange Hybrid     =           TRUE
    MP2 Hybrid          =          FALSE

   => Exchange Functionals <=

    0.0800   Slater exchange
    0.7200         Becke 88

   => Exact (HF) Exchange <=

    0.2000               HF 

   => Correlation Functionals <=

    0.1900   Vosko, Wilk & Nusair (VWN5_RPA)
    0.8100   Lee, Yang & Parr

   => Molecular Quadrature <=

    Radial Scheme          =       TREUTLER
    Pruning Scheme         =           FLAT
    Nuclear Scheme         =       TREUTLER

    BS radius alpha        =              1
    Pruning alpha          =              1
    Radial Points          =             75
    Spherical Points       =            302
    Total Points           =          90600
    Total Blocks           =            752
    Max Points             =            256
    Max Functions          =             64

   => Loading Basis Set <=

    Name: (AUG-CC-PVDZ AUX)
    Role: JKFIT
    Keyword: DF_BASIS_SCF
    atoms 1-2 entry C          line   154 file /home/akrom/software/anaconda3/envs/ffpenv/share/psi4/basis/aug-cc-pvdz-jkfit.gbs 
    atoms 3-4 entry H          line    70 file /home/akrom/software/anaconda3/envs/ffpenv/share/psi4/basis/aug-cc-pvdz-jkfit.gbs 

  ==> Pre-Iterations <==

   -------------------------------------------------------
    Irrep   Nso     Nmo     Nalpha   Nbeta   Ndocc  Nsocc
   -------------------------------------------------------
     Ag        16      16       0       0       0       0
     B1g        7       7       0       0       0       0
     B2g        7       7       0       0       0       0
     B3g        2       2       0       0       0       0
     Au         2       2       0       0       0       0
     B1u        7       7       0       0       0       0
     B2u        7       7       0       0       0       0
     B3u       16      16       0       0       0       0
   -------------------------------------------------------
    Total      64      64       7       7       7       0
   -------------------------------------------------------

  ==> Integral Setup <==

  DFHelper Memory: AOs need 0.008 GiB; user supplied 0.202 GiB. Using in-core AOs.

  ==> MemDFJK: Density-Fitted J/K Matrices <==

    J tasked:                   Yes
    K tasked:                   Yes
    wK tasked:                   No
    OpenMP threads:               1
    Memory [MiB]:               207
    Algorithm:                 Core
    Schwarz Cutoff:           1E-12
    Mask sparsity (%):       0.0000
    Fitting Condition:        1E-10

   => Auxiliary Basis Set <=

  Basis Set: (AUG-CC-PVDZ AUX)
    Blend: AUG-CC-PVDZ-JKFIT
    Number of shells: 80
    Number of basis function: 236
    Number of Cartesian functions: 272
    Spherical Harmonics?: true
    Max angular momentum: 3

  Cached 100.0% of DFT collocation blocks in 0.164 [GiB].

  Minimum eigenvalue in the overlap matrix is 3.8568108127E-05.
  Using Symmetric Orthogonalization.

  SCF Guess: Superposition of Atomic Densities via on-the-fly atomic UHF.

  ==> Iterations <==

                           Total Energy        Delta E     RMS |[F,P]|

   @DF-RKS iter SAD:   -76.65462294196939   -7.66546e+01   0.00000e+00 
   @DF-RKS iter   1:   -77.14599694739549   -4.91374e-01   2.04311e-02 DIIS
   @DF-RKS iter   2:   -77.09624146516524    4.97555e-02   2.30585e-02 DIIS
   @DF-RKS iter   3:   -77.33752873508269   -2.41287e-01   7.28584e-04 DIIS
   @DF-RKS iter   4:   -77.33777413553739   -2.45400e-04   6.35110e-05 DIIS
   @DF-RKS iter   5:   -77.33777596302173   -1.82748e-06   9.11937e-06 DIIS
   @DF-RKS iter   6:   -77.33777599505660   -3.20349e-08   6.09333e-07 DIIS
   @DF-RKS iter   7:   -77.33777599521937   -1.62771e-10   6.18011e-08 DIIS
   @DF-RKS iter   8:   -77.33777599522085   -1.47793e-12   4.12301e-09 DIIS
  Energy and wave function converged.


  ==> Post-Iterations <==

    Orbital Energies [Eh]
    ---------------------

    Doubly Occupied:                                                      

       1Ag   -10.211040     1B3u  -10.209096     2Ag    -0.757237  
       2B3u   -0.575140     3Ag    -0.501255     1B1u   -0.296561  
       1B2u   -0.296561  

    Virtual:                                                              

       4Ag     0.000644     1B1g    0.004690     1B2g    0.004690  
       3B3u    0.007857     2B1u    0.061607     2B2u    0.061607  
       5Ag     0.064312     4B3u    0.080581     6Ag     0.118568  
       2B1g    0.120018     2B2g    0.120018     5B3u    0.158104  
       7Ag     0.232393     6B3u    0.248426     3B1u    0.283154  
       3B2u    0.283154     8Ag     0.301070     1B3g    0.301070  
       3B1g    0.374607     3B2g    0.374607     7B3u    0.408170  
       9Ag     0.426588     1Au     0.466108     8B3u    0.466108  
      10Ag     0.471349     9B3u    0.570092     4B1u    0.596435  
       4B2u    0.596435     4B2g    0.671855     4B1g    0.671855  
       5B1u    0.673050     5B2u    0.673050    10B3u    0.697949  
      11Ag     0.772333    11B3u    0.955765     5B2g    0.998362  
       5B1g    0.998362    12Ag     1.165037    13Ag     1.326403  
       2B3g    1.326403    12B3u    1.386590     6B1u    1.409083  
       6B2u    1.409083    14Ag     1.463511    13B3u    1.626972  
       2Au     1.626972     6B2g    1.668759     6B1g    1.668759  
       7B1u    1.855300     7B2u    1.855300    14B3u    2.196533  
      15Ag     2.246407    15B3u    2.322494     7B2g    2.460837  
       7B1g    2.460837    16Ag     3.392534    16B3u    3.606984  

    Final Occupation by Irrep:
             Ag   B1g   B2g   B3g    Au   B1u   B2u   B3u 
    DOCC [     3,    0,    0,    0,    0,    1,    1,    2 ]

  @DF-RKS Final Energy:   -77.33777599522085

   => Energetics <=

    Nuclear Repulsion Energy =             24.3232181713792350
    One-Electron Energy =                -150.9510762133216986
    Two-Electron Energy =                  58.5620486963842311
    DFT Exchange-Correlation Energy =      -9.2719666496626161
    Empirical Dispersion Energy =           0.0000000000000000
    VV10 Nonlocal Energy =                  0.0000000000000000
    Total Energy =                        -77.3377759952208379

Computation Completed


Properties will be evaluated at   0.000000,   0.000000,   0.000000 [a0]

Properties computed using the SCF density matrix

  Nuclear Dipole Moment: [e a0]
     X:     0.0000      Y:     0.0000      Z:     0.0000

  Electronic Dipole Moment: [e a0]
     X:     0.0000      Y:     0.0000      Z:     0.0000

  Dipole Moment: [e a0]
     X:     0.0000      Y:     0.0000      Z:     0.0000     Total:     0.0000

  Dipole Moment: [D]
     X:     0.0000      Y:     0.0000      Z:     0.0000     Total:     0.0000


*** tstop() called on atlantis at Tue Apr 19 02:02:43 2022
Module time:
	user time   =       1.91 seconds =       0.03 minutes
	system time =       0.01 seconds =       0.00 minutes
	total time  =          2 seconds =       0.03 minutes
Total time:
	user time   =       3.53 seconds =       0.06 minutes
	system time =       0.07 seconds =       0.00 minutes
	total time  =          4 seconds =       0.07 minutes

*** tstart() called on atlantis
*** at Tue Apr 19 02:02:43 2022


         ------------------------------------------------------------
                                   SCF GRAD                          
                          Rob Parrish, Justin Turney,                
                       Andy Simmonett, and Alex Sokolov              
         ------------------------------------------------------------

  ==> Geometry <==

    Molecular point group: d2h
    Full point group: D_inf_h

    Geometry (in Angstrom), charge = 0, multiplicity = 1:

       Center              X                  Y                   Z               Mass       
    ------------   -----------------  -----------------  -----------------  -----------------
         C           -0.614460000000    -0.000000000000     0.000000000000    12.000000000000
         C            0.614460000000     0.000000000000     0.000000000000    12.000000000000
         H           -1.689230000000    -0.000000000000     0.000000000000     1.007825032230
         H            1.689230000000     0.000000000000     0.000000000000     1.007825032230

  Nuclear repulsion =   24.323218171379235

  ==> Basis Set <==

  Basis Set: AUG-CC-PVDZ
    Blend: AUG-CC-PVDZ
    Number of shells: 28
    Number of basis function: 64
    Number of Cartesian functions: 68
    Spherical Harmonics?: true
    Max angular momentum: 2

  ==> DFJKGrad: Density-Fitted SCF Gradients <==

    Gradient:                    1
    J tasked:                  Yes
    K tasked:                  Yes
    wK tasked:                  No
    OpenMP threads:              1
    Integrals threads:           1
    Memory [MiB]:              375
    Schwarz Cutoff:          0E+00
    Fitting Condition:       1E-10

   => Auxiliary Basis Set <=

  Basis Set: (AUG-CC-PVDZ AUX)
    Blend: AUG-CC-PVDZ-JKFIT
    Number of shells: 80
    Number of basis function: 236
    Number of Cartesian functions: 272
    Spherical Harmonics?: true
    Max angular momentum: 3

  ==> DFT Potential <==

   => Composite Functional: B3LYP <= 

    B3LYP Hyb-GGA Exchange-Correlation Functional

    P. J. Stephens, F. J. Devlin, C. F. Chabalowski, and M. J. Frisch, J. Phys. Chem. 98, 11623 (1994)

    Deriv               =              1
    GGA                 =           TRUE
    Meta                =          FALSE

    Exchange Hybrid     =           TRUE
    MP2 Hybrid          =          FALSE

   => Exchange Functionals <=

    0.0800   Slater exchange
    0.7200         Becke 88

   => Exact (HF) Exchange <=

    0.2000               HF 

   => Correlation Functionals <=

    0.1900   Vosko, Wilk & Nusair (VWN5_RPA)
    0.8100   Lee, Yang & Parr

   => Molecular Quadrature <=

    Radial Scheme          =       TREUTLER
    Pruning Scheme         =           FLAT
    Nuclear Scheme         =       TREUTLER

    BS radius alpha        =              1
    Pruning alpha          =              1
    Radial Points          =             75
    Spherical Points       =            302
    Total Points           =          90600
    Total Blocks           =            752
    Max Points             =            256
    Max Functions          =             64


  -Total Gradient:
     Atom            X                  Y                   Z
    ------   -----------------  -----------------  -----------------
       1       -0.035419172968    -0.000000000000     0.000000000000
       2        0.035419172968     0.000000000000     0.000000000000
       3       -0.002659886102    -0.000000000000     0.000000000000
       4        0.002659886102     0.000000000000     0.000000000000


*** tstop() called on atlantis at Tue Apr 19 02:02:43 2022
Module time:
	user time   =       0.56 seconds =       0.01 minutes
	system time =       0.01 seconds =       0.00 minutes
	total time  =          0 seconds =       0.00 minutes
Total time:
	user time   =       4.09 seconds =       0.07 minutes
	system time =       0.08 seconds =       0.00 minutes
	total time  =          4 seconds =       0.07 minutes

  Based on options and gradient (rms=1.45E-02), recommend projecting translations and not projecting rotations.
hessian() will perform frequency computation by finite difference of analytic gradients.

         ----------------------------------------------------------
                                   FINDIF
                     R. A. King and Jonathon Misiewicz
         ---------------------------------------------------------

  Using finite-differences of gradients to determine vibrational frequencies and 
  normal modes.  Resulting frequencies are only valid at stationary points.
    Generating geometries for use with 3-point formula.
    Displacement size will be 5.00e-03.
    Number of atoms is 4.
    Number of irreps is 8.
    Number of SALCs is 9.
    Translations projected? 1. Rotations projected? 0.
    Index of SALCs per irrep:
     1 :  0  1 
     2 :  2  3 
     3 :  4  5 
     4 : 
     5 : 
     6 :  6 
     7 :  7 
     8 :  8 
    Number of SALCs per irrep:
     Irrep 1: 2
     Irrep 2: 2
     Irrep 3: 2
     Irrep 4: 0
     Irrep 5: 0
     Irrep 6: 1
     Irrep 7: 1
     Irrep 8: 1
    Number of geometries (including reference) is 12.
    Number of displacements per irrep:
      Irrep 1: 4
      Irrep 2: 2
      Irrep 3: 2
      Irrep 4: 0
      Irrep 5: 0
      Irrep 6: 1
      Irrep 7: 1
      Irrep 8: 1

  //>>>>>>>>>>>>>>>>>>>>>>>>>>>>>>>>>>>//
  //    Loading displacement 1 of 12   //
  //<<<<<<<<<<<<<<<<<<<<<<<<<<<<<<<<<<<//
gradient() will perform analytic gradient computation.

*** tstart() called on atlantis
*** at Tue Apr 19 02:02:44 2022

   => Loading Basis Set <=

    Name: AUG-CC-PVDZ
    Role: ORBITAL
    Keyword: BASIS
    atoms 1-2 entry C          line   178 file /home/akrom/software/anaconda3/envs/ffpenv/share/psi4/basis/aug-cc-pvdz.gbs 
    atoms 3-4 entry H          line    36 file /home/akrom/software/anaconda3/envs/ffpenv/share/psi4/basis/aug-cc-pvdz.gbs 


         ---------------------------------------------------------
                                   SCF
               by Justin Turney, Rob Parrish, Andy Simmonett
                          and Daniel G. A. Smith
                              RKS Reference
                        1 Threads,    500 MiB Core
         ---------------------------------------------------------

  ==> Geometry <==

    Molecular point group: d2h
    Full point group: D_inf_h

    Geometry (in Angstrom), charge = 0, multiplicity = 1:

       Center              X                  Y                   Z               Mass       
    ------------   -----------------  -----------------  -----------------  -----------------
         C           -0.614460000000    -0.000000000000     0.000000000000    12.000000000000
         C            0.614460000000     0.000000000000     0.000000000000    12.000000000000
         H           -1.689230000000    -0.000000000000     0.000000000000     1.007825032230
         H            1.689230000000     0.000000000000     0.000000000000     1.007825032230

  Running in d2h symmetry.

  Rotational constants: A = ************  B =      1.13802  C =      1.13802 [cm^-1]
  Rotational constants: A = ************  B =  34116.98697  C =  34116.98697 [MHz]
  Nuclear repulsion =   24.323218171379235

  Charge       = 0
  Multiplicity = 1
  Electrons    = 14
  Nalpha       = 7
  Nbeta        = 7

  ==> Algorithm <==

  SCF Algorithm Type is DF.
  DIIS enabled.
  MOM disabled.
  Fractional occupation disabled.
  Guess Type is SAD.
  Energy threshold   = 1.00e-08
  Density threshold  = 1.00e-08
  Integral threshold = 0.00e+00

  ==> Primary Basis <==

  Basis Set: AUG-CC-PVDZ
    Blend: AUG-CC-PVDZ
    Number of shells: 28
    Number of basis function: 64
    Number of Cartesian functions: 68
    Spherical Harmonics?: true
    Max angular momentum: 2

  ==> DFT Potential <==

   => Composite Functional: B3LYP <= 

    B3LYP Hyb-GGA Exchange-Correlation Functional

    P. J. Stephens, F. J. Devlin, C. F. Chabalowski, and M. J. Frisch, J. Phys. Chem. 98, 11623 (1994)

    Deriv               =              1
    GGA                 =           TRUE
    Meta                =          FALSE

    Exchange Hybrid     =           TRUE
    MP2 Hybrid          =          FALSE

   => Exchange Functionals <=

    0.0800   Slater exchange
    0.7200         Becke 88

   => Exact (HF) Exchange <=

    0.2000               HF 

   => Correlation Functionals <=

    0.1900   Vosko, Wilk & Nusair (VWN5_RPA)
    0.8100   Lee, Yang & Parr

   => Molecular Quadrature <=

    Radial Scheme          =       TREUTLER
    Pruning Scheme         =           FLAT
    Nuclear Scheme         =       TREUTLER

    BS radius alpha        =              1
    Pruning alpha          =              1
    Radial Points          =             75
    Spherical Points       =            302
    Total Points           =          90600
    Total Blocks           =            752
    Max Points             =            256
    Max Functions          =             64

   => Loading Basis Set <=

    Name: (AUG-CC-PVDZ AUX)
    Role: JKFIT
    Keyword: DF_BASIS_SCF
    atoms 1-2 entry C          line   154 file /home/akrom/software/anaconda3/envs/ffpenv/share/psi4/basis/aug-cc-pvdz-jkfit.gbs 
    atoms 3-4 entry H          line    70 file /home/akrom/software/anaconda3/envs/ffpenv/share/psi4/basis/aug-cc-pvdz-jkfit.gbs 

  ==> Pre-Iterations <==

   -------------------------------------------------------
    Irrep   Nso     Nmo     Nalpha   Nbeta   Ndocc  Nsocc
   -------------------------------------------------------
     Ag        16      16       0       0       0       0
     B1g        7       7       0       0       0       0
     B2g        7       7       0       0       0       0
     B3g        2       2       0       0       0       0
     Au         2       2       0       0       0       0
     B1u        7       7       0       0       0       0
     B2u        7       7       0       0       0       0
     B3u       16      16       0       0       0       0
   -------------------------------------------------------
    Total      64      64       7       7       7       0
   -------------------------------------------------------

  ==> Integral Setup <==

  DFHelper Memory: AOs need 0.008 GiB; user supplied 0.202 GiB. Using in-core AOs.

  ==> MemDFJK: Density-Fitted J/K Matrices <==

    J tasked:                   Yes
    K tasked:                   Yes
    wK tasked:                   No
    OpenMP threads:               1
    Memory [MiB]:               207
    Algorithm:                 Core
    Schwarz Cutoff:           1E-12
    Mask sparsity (%):       0.0000
    Fitting Condition:        1E-10

   => Auxiliary Basis Set <=

  Basis Set: (AUG-CC-PVDZ AUX)
    Blend: AUG-CC-PVDZ-JKFIT
    Number of shells: 80
    Number of basis function: 236
    Number of Cartesian functions: 272
    Spherical Harmonics?: true
    Max angular momentum: 3

  Cached 100.0% of DFT collocation blocks in 0.164 [GiB].

  Minimum eigenvalue in the overlap matrix is 3.8568108127E-05.
  Using Symmetric Orthogonalization.

  SCF Guess: Superposition of Atomic Densities via on-the-fly atomic UHF.

  ==> Iterations <==

                           Total Energy        Delta E     RMS |[F,P]|

   @DF-RKS iter SAD:   -76.65462294196939   -7.66546e+01   0.00000e+00 
   @DF-RKS iter   1:   -77.14599694739549   -4.91374e-01   2.04311e-02 DIIS
   @DF-RKS iter   2:   -77.09624146516524    4.97555e-02   2.30585e-02 DIIS
   @DF-RKS iter   3:   -77.33752873508269   -2.41287e-01   7.28584e-04 DIIS
   @DF-RKS iter   4:   -77.33777413553739   -2.45400e-04   6.35110e-05 DIIS
   @DF-RKS iter   5:   -77.33777596302173   -1.82748e-06   9.11937e-06 DIIS
   @DF-RKS iter   6:   -77.33777599505660   -3.20349e-08   6.09333e-07 DIIS
   @DF-RKS iter   7:   -77.33777599521937   -1.62771e-10   6.18011e-08 DIIS
   @DF-RKS iter   8:   -77.33777599522085   -1.47793e-12   4.12301e-09 DIIS
  Energy and wave function converged.


  ==> Post-Iterations <==

    Orbital Energies [Eh]
    ---------------------

    Doubly Occupied:                                                      

       1Ag   -10.211040     1B3u  -10.209096     2Ag    -0.757237  
       2B3u   -0.575140     3Ag    -0.501255     1B1u   -0.296561  
       1B2u   -0.296561  

    Virtual:                                                              

       4Ag     0.000644     1B1g    0.004690     1B2g    0.004690  
       3B3u    0.007857     2B1u    0.061607     2B2u    0.061607  
       5Ag     0.064312     4B3u    0.080581     6Ag     0.118568  
       2B1g    0.120018     2B2g    0.120018     5B3u    0.158104  
       7Ag     0.232393     6B3u    0.248426     3B1u    0.283154  
       3B2u    0.283154     8Ag     0.301070     1B3g    0.301070  
       3B1g    0.374607     3B2g    0.374607     7B3u    0.408170  
       9Ag     0.426588     1Au     0.466108     8B3u    0.466108  
      10Ag     0.471349     9B3u    0.570092     4B1u    0.596435  
       4B2u    0.596435     4B2g    0.671855     4B1g    0.671855  
       5B1u    0.673050     5B2u    0.673050    10B3u    0.697949  
      11Ag     0.772333    11B3u    0.955765     5B2g    0.998362  
       5B1g    0.998362    12Ag     1.165037    13Ag     1.326403  
       2B3g    1.326403    12B3u    1.386590     6B1u    1.409083  
       6B2u    1.409083    14Ag     1.463511    13B3u    1.626972  
       2Au     1.626972     6B2g    1.668759     6B1g    1.668759  
       7B1u    1.855300     7B2u    1.855300    14B3u    2.196533  
      15Ag     2.246407    15B3u    2.322494     7B2g    2.460837  
       7B1g    2.460837    16Ag     3.392534    16B3u    3.606984  

    Final Occupation by Irrep:
             Ag   B1g   B2g   B3g    Au   B1u   B2u   B3u 
    DOCC [     3,    0,    0,    0,    0,    1,    1,    2 ]

  @DF-RKS Final Energy:   -77.33777599522085

   => Energetics <=

    Nuclear Repulsion Energy =             24.3232181713792350
    One-Electron Energy =                -150.9510762133216986
    Two-Electron Energy =                  58.5620486963842311
    DFT Exchange-Correlation Energy =      -9.2719666496626161
    Empirical Dispersion Energy =           0.0000000000000000
    VV10 Nonlocal Energy =                  0.0000000000000000
    Total Energy =                        -77.3377759952208379

Computation Completed


Properties will be evaluated at   0.000000,   0.000000,   0.000000 [a0]

Properties computed using the SCF density matrix

  Nuclear Dipole Moment: [e a0]
     X:     0.0000      Y:     0.0000      Z:     0.0000

  Electronic Dipole Moment: [e a0]
     X:     0.0000      Y:     0.0000      Z:     0.0000

  Dipole Moment: [e a0]
     X:     0.0000      Y:     0.0000      Z:     0.0000     Total:     0.0000

  Dipole Moment: [D]
     X:     0.0000      Y:     0.0000      Z:     0.0000     Total:     0.0000


*** tstop() called on atlantis at Tue Apr 19 02:02:46 2022
Module time:
	user time   =       1.90 seconds =       0.03 minutes
	system time =       0.03 seconds =       0.00 minutes
	total time  =          2 seconds =       0.03 minutes
Total time:
	user time   =       6.27 seconds =       0.10 minutes
	system time =       0.12 seconds =       0.00 minutes
	total time  =          7 seconds =       0.12 minutes

*** tstart() called on atlantis
*** at Tue Apr 19 02:02:46 2022


         ------------------------------------------------------------
                                   SCF GRAD                          
                          Rob Parrish, Justin Turney,                
                       Andy Simmonett, and Alex Sokolov              
         ------------------------------------------------------------

  ==> Geometry <==

    Molecular point group: d2h
    Full point group: D_inf_h

    Geometry (in Angstrom), charge = 0, multiplicity = 1:

       Center              X                  Y                   Z               Mass       
    ------------   -----------------  -----------------  -----------------  -----------------
         C           -0.614460000000    -0.000000000000     0.000000000000    12.000000000000
         C            0.614460000000     0.000000000000     0.000000000000    12.000000000000
         H           -1.689230000000    -0.000000000000     0.000000000000     1.007825032230
         H            1.689230000000     0.000000000000     0.000000000000     1.007825032230

  Nuclear repulsion =   24.323218171379235

  ==> Basis Set <==

  Basis Set: AUG-CC-PVDZ
    Blend: AUG-CC-PVDZ
    Number of shells: 28
    Number of basis function: 64
    Number of Cartesian functions: 68
    Spherical Harmonics?: true
    Max angular momentum: 2

  ==> DFJKGrad: Density-Fitted SCF Gradients <==

    Gradient:                    1
    J tasked:                  Yes
    K tasked:                  Yes
    wK tasked:                  No
    OpenMP threads:              1
    Integrals threads:           1
    Memory [MiB]:              375
    Schwarz Cutoff:          0E+00
    Fitting Condition:       1E-10

   => Auxiliary Basis Set <=

  Basis Set: (AUG-CC-PVDZ AUX)
    Blend: AUG-CC-PVDZ-JKFIT
    Number of shells: 80
    Number of basis function: 236
    Number of Cartesian functions: 272
    Spherical Harmonics?: true
    Max angular momentum: 3

  ==> DFT Potential <==

   => Composite Functional: B3LYP <= 

    B3LYP Hyb-GGA Exchange-Correlation Functional

    P. J. Stephens, F. J. Devlin, C. F. Chabalowski, and M. J. Frisch, J. Phys. Chem. 98, 11623 (1994)

    Deriv               =              1
    GGA                 =           TRUE
    Meta                =          FALSE

    Exchange Hybrid     =           TRUE
    MP2 Hybrid          =          FALSE

   => Exchange Functionals <=

    0.0800   Slater exchange
    0.7200         Becke 88

   => Exact (HF) Exchange <=

    0.2000               HF 

   => Correlation Functionals <=

    0.1900   Vosko, Wilk & Nusair (VWN5_RPA)
    0.8100   Lee, Yang & Parr

   => Molecular Quadrature <=

    Radial Scheme          =       TREUTLER
    Pruning Scheme         =           FLAT
    Nuclear Scheme         =       TREUTLER

    BS radius alpha        =              1
    Pruning alpha          =              1
    Radial Points          =             75
    Spherical Points       =            302
    Total Points           =          90600
    Total Blocks           =            752
    Max Points             =            256
    Max Functions          =             64


  -Total Gradient:
     Atom            X                  Y                   Z
    ------   -----------------  -----------------  -----------------
       1       -0.035419172968    -0.000000000000     0.000000000000
       2        0.035419172968     0.000000000000     0.000000000000
       3       -0.002659886102    -0.000000000000     0.000000000000
       4        0.002659886102     0.000000000000     0.000000000000


*** tstop() called on atlantis at Tue Apr 19 02:02:46 2022
Module time:
	user time   =       0.57 seconds =       0.01 minutes
	system time =       0.00 seconds =       0.00 minutes
	total time  =          0 seconds =       0.00 minutes
Total time:
	user time   =       6.84 seconds =       0.11 minutes
	system time =       0.12 seconds =       0.00 minutes
	total time  =          7 seconds =       0.12 minutes

  //>>>>>>>>>>>>>>>>>>>>>>>>>>>>>>>>>>>//
  //    Loading displacement 2 of 12   //
  //<<<<<<<<<<<<<<<<<<<<<<<<<<<<<<<<<<<//
gradient() will perform analytic gradient computation.

*** tstart() called on atlantis
*** at Tue Apr 19 02:02:46 2022

   => Loading Basis Set <=

    Name: AUG-CC-PVDZ
    Role: ORBITAL
    Keyword: BASIS
    atoms 1-2 entry C          line   178 file /home/akrom/software/anaconda3/envs/ffpenv/share/psi4/basis/aug-cc-pvdz.gbs 
    atoms 3-4 entry H          line    36 file /home/akrom/software/anaconda3/envs/ffpenv/share/psi4/basis/aug-cc-pvdz.gbs 


         ---------------------------------------------------------
                                   SCF
               by Justin Turney, Rob Parrish, Andy Simmonett
                          and Daniel G. A. Smith
                              RKS Reference
                        1 Threads,    500 MiB Core
         ---------------------------------------------------------

  ==> Geometry <==

    Molecular point group: d2h
    Full point group: D_inf_h

    Geometry (in Angstrom), charge = 0, multiplicity = 1:

       Center              X                  Y                   Z               Mass       
    ------------   -----------------  -----------------  -----------------  -----------------
         C           -0.615000089229    -0.000000000000     0.000000000000    12.000000000000
         C            0.615000089229     0.000000000000     0.000000000000    12.000000000000
         H           -1.689230000000    -0.000000000000     0.000000000000     1.007825032230
         H            1.689230000000     0.000000000000     0.000000000000     1.007825032230

  Running in d2h symmetry.

  Rotational constants: A = ************  B =      1.13680  C =      1.13680 [cm^-1]
  Rotational constants: A = ************  B =  34080.32226  C =  34080.32226 [MHz]
  Nuclear repulsion =   24.311929094340595

  Charge       = 0
  Multiplicity = 1
  Electrons    = 14
  Nalpha       = 7
  Nbeta        = 7

  ==> Algorithm <==

  SCF Algorithm Type is DF.
  DIIS enabled.
  MOM disabled.
  Fractional occupation disabled.
  Guess Type is SAD.
  Energy threshold   = 1.00e-08
  Density threshold  = 1.00e-08
  Integral threshold = 0.00e+00

  ==> Primary Basis <==

  Basis Set: AUG-CC-PVDZ
    Blend: AUG-CC-PVDZ
    Number of shells: 28
    Number of basis function: 64
    Number of Cartesian functions: 68
    Spherical Harmonics?: true
    Max angular momentum: 2

  ==> DFT Potential <==

   => Composite Functional: B3LYP <= 

    B3LYP Hyb-GGA Exchange-Correlation Functional

    P. J. Stephens, F. J. Devlin, C. F. Chabalowski, and M. J. Frisch, J. Phys. Chem. 98, 11623 (1994)

    Deriv               =              1
    GGA                 =           TRUE
    Meta                =          FALSE

    Exchange Hybrid     =           TRUE
    MP2 Hybrid          =          FALSE

   => Exchange Functionals <=

    0.0800   Slater exchange
    0.7200         Becke 88

   => Exact (HF) Exchange <=

    0.2000               HF 

   => Correlation Functionals <=

    0.1900   Vosko, Wilk & Nusair (VWN5_RPA)
    0.8100   Lee, Yang & Parr

   => Molecular Quadrature <=

    Radial Scheme          =       TREUTLER
    Pruning Scheme         =           FLAT
    Nuclear Scheme         =       TREUTLER

    BS radius alpha        =              1
    Pruning alpha          =              1
    Radial Points          =             75
    Spherical Points       =            302
    Total Points           =          90600
    Total Blocks           =            752
    Max Points             =            256
    Max Functions          =             64

   => Loading Basis Set <=

    Name: (AUG-CC-PVDZ AUX)
    Role: JKFIT
    Keyword: DF_BASIS_SCF
    atoms 1-2 entry C          line   154 file /home/akrom/software/anaconda3/envs/ffpenv/share/psi4/basis/aug-cc-pvdz-jkfit.gbs 
    atoms 3-4 entry H          line    70 file /home/akrom/software/anaconda3/envs/ffpenv/share/psi4/basis/aug-cc-pvdz-jkfit.gbs 

  ==> Pre-Iterations <==

   -------------------------------------------------------
    Irrep   Nso     Nmo     Nalpha   Nbeta   Ndocc  Nsocc
   -------------------------------------------------------
     Ag        16      16       0       0       0       0
     B1g        7       7       0       0       0       0
     B2g        7       7       0       0       0       0
     B3g        2       2       0       0       0       0
     Au         2       2       0       0       0       0
     B1u        7       7       0       0       0       0
     B2u        7       7       0       0       0       0
     B3u       16      16       0       0       0       0
   -------------------------------------------------------
    Total      64      64       7       7       7       0
   -------------------------------------------------------

  ==> Integral Setup <==

  DFHelper Memory: AOs need 0.008 GiB; user supplied 0.202 GiB. Using in-core AOs.

  ==> MemDFJK: Density-Fitted J/K Matrices <==

    J tasked:                   Yes
    K tasked:                   Yes
    wK tasked:                   No
    OpenMP threads:               1
    Memory [MiB]:               207
    Algorithm:                 Core
    Schwarz Cutoff:           1E-12
    Mask sparsity (%):       0.0000
    Fitting Condition:        1E-10

   => Auxiliary Basis Set <=

  Basis Set: (AUG-CC-PVDZ AUX)
    Blend: AUG-CC-PVDZ-JKFIT
    Number of shells: 80
    Number of basis function: 236
    Number of Cartesian functions: 272
    Spherical Harmonics?: true
    Max angular momentum: 3

  Cached 100.0% of DFT collocation blocks in 0.164 [GiB].

  Minimum eigenvalue in the overlap matrix is 3.8709994698E-05.
  Using Symmetric Orthogonalization.

  SCF Guess: Superposition of Atomic Densities via on-the-fly atomic UHF.

  ==> Iterations <==

                           Total Energy        Delta E     RMS |[F,P]|

   @DF-RKS iter SAD:   -76.65389736241757   -7.66539e+01   0.00000e+00 
   @DF-RKS iter   1:   -77.14644925970074   -4.92552e-01   2.04009e-02 DIIS
   @DF-RKS iter   2:   -77.09725150399471    4.91978e-02   2.30051e-02 DIIS
   @DF-RKS iter   3:   -77.33745491080801   -2.40203e-01   7.27245e-04 DIIS
   @DF-RKS iter   4:   -77.33769928511896   -2.44374e-04   6.38367e-05 DIIS
   @DF-RKS iter   5:   -77.33770112850810   -1.84339e-06   9.11496e-06 DIIS
   @DF-RKS iter   6:   -77.33770116051208   -3.20040e-08   6.05784e-07 DIIS
   @DF-RKS iter   7:   -77.33770116067308   -1.60995e-10   6.14673e-08 DIIS
   @DF-RKS iter   8:   -77.33770116067463   -1.54898e-12   4.10442e-09 DIIS
  Energy and wave function converged.


  ==> Post-Iterations <==

    Orbital Energies [Eh]
    ---------------------

    Doubly Occupied:                                                      

       1Ag   -10.211282     1B3u  -10.209356     2Ag    -0.757063  
       2B3u   -0.575439     3Ag    -0.501382     1B2u   -0.296431  
       1B1u   -0.296431  

    Virtual:                                                              

       4Ag     0.000630     1B1g    0.004436     1B2g    0.004436  
       3B3u    0.007859     2B2u    0.061617     2B1u    0.061617  
       5Ag     0.064358     4B3u    0.080585     6Ag     0.118548  
       2B2g    0.119900     2B1g    0.119900     5B3u    0.158037  
       7Ag     0.232541     6B3u    0.248352     3B2u    0.283147  
       3B1u    0.283147     8Ag     0.301029     1B3g    0.301029  
       3B1g    0.374553     3B2g    0.374553     7B3u    0.407918  
       9Ag     0.426574     1Au     0.466015     8B3u    0.466015  
      10Ag     0.471358     9B3u    0.570007     4B2u    0.596594  
       4B1u    0.596594     4B1g    0.671810     4B2g    0.671810  
       5B2u    0.672821     5B1u    0.672821    10B3u    0.697992  
      11Ag     0.772628    11B3u    0.954660     5B1g    0.998134  
       5B2g    0.998134    12Ag     1.165011    13Ag     1.326541  
       2B3g    1.326541    12B3u    1.386194     6B2u    1.408801  
       6B1u    1.408801    14Ag     1.463394    13B3u    1.626547  
       2Au     1.626547     6B1g    1.668700     6B2g    1.668700  
       7B2u    1.855153     7B1u    1.855153    14B3u    2.195389  
      15Ag     2.247040    15B3u    2.323771     7B1g    2.460677  
       7B2g    2.460677    16Ag     3.390077    16B3u    3.607206  

    Final Occupation by Irrep:
             Ag   B1g   B2g   B3g    Au   B1u   B2u   B3u 
    DOCC [     3,    0,    0,    0,    0,    1,    1,    2 ]

  @DF-RKS Final Energy:   -77.33770116067463

   => Energetics <=

    Nuclear Repulsion Energy =             24.3119290943405950
    One-Electron Energy =                -150.9277111492603467
    Two-Electron Energy =                  58.5495392142538265
    DFT Exchange-Correlation Energy =      -9.2714583200087244
    Empirical Dispersion Energy =           0.0000000000000000
    VV10 Nonlocal Energy =                  0.0000000000000000
    Total Energy =                        -77.3377011606746407

Computation Completed


Properties will be evaluated at   0.000000,   0.000000,   0.000000 [a0]

Properties computed using the SCF density matrix

  Nuclear Dipole Moment: [e a0]
     X:     0.0000      Y:     0.0000      Z:     0.0000

  Electronic Dipole Moment: [e a0]
     X:     0.0000      Y:     0.0000      Z:     0.0000

  Dipole Moment: [e a0]
     X:     0.0000      Y:     0.0000      Z:     0.0000     Total:     0.0000

  Dipole Moment: [D]
     X:     0.0000      Y:     0.0000      Z:     0.0000     Total:     0.0000


*** tstop() called on atlantis at Tue Apr 19 02:02:48 2022
Module time:
	user time   =       1.90 seconds =       0.03 minutes
	system time =       0.02 seconds =       0.00 minutes
	total time  =          2 seconds =       0.03 minutes
Total time:
	user time   =       8.75 seconds =       0.15 minutes
	system time =       0.14 seconds =       0.00 minutes
	total time  =          9 seconds =       0.15 minutes

*** tstart() called on atlantis
*** at Tue Apr 19 02:02:48 2022


         ------------------------------------------------------------
                                   SCF GRAD                          
                          Rob Parrish, Justin Turney,                
                       Andy Simmonett, and Alex Sokolov              
         ------------------------------------------------------------

  ==> Geometry <==

    Molecular point group: d2h
    Full point group: D_inf_h

    Geometry (in Angstrom), charge = 0, multiplicity = 1:

       Center              X                  Y                   Z               Mass       
    ------------   -----------------  -----------------  -----------------  -----------------
         C           -0.615000089229    -0.000000000000     0.000000000000    12.000000000000
         C            0.615000089229     0.000000000000     0.000000000000    12.000000000000
         H           -1.689230000000    -0.000000000000     0.000000000000     1.007825032230
         H            1.689230000000     0.000000000000     0.000000000000     1.007825032230

  Nuclear repulsion =   24.311929094340595

  ==> Basis Set <==

  Basis Set: AUG-CC-PVDZ
    Blend: AUG-CC-PVDZ
    Number of shells: 28
    Number of basis function: 64
    Number of Cartesian functions: 68
    Spherical Harmonics?: true
    Max angular momentum: 2

  ==> DFJKGrad: Density-Fitted SCF Gradients <==

    Gradient:                    1
    J tasked:                  Yes
    K tasked:                  Yes
    wK tasked:                  No
    OpenMP threads:              1
    Integrals threads:           1
    Memory [MiB]:              375
    Schwarz Cutoff:          0E+00
    Fitting Condition:       1E-10

   => Auxiliary Basis Set <=

  Basis Set: (AUG-CC-PVDZ AUX)
    Blend: AUG-CC-PVDZ-JKFIT
    Number of shells: 80
    Number of basis function: 236
    Number of Cartesian functions: 272
    Spherical Harmonics?: true
    Max angular momentum: 3

  ==> DFT Potential <==

   => Composite Functional: B3LYP <= 

    B3LYP Hyb-GGA Exchange-Correlation Functional

    P. J. Stephens, F. J. Devlin, C. F. Chabalowski, and M. J. Frisch, J. Phys. Chem. 98, 11623 (1994)

    Deriv               =              1
    GGA                 =           TRUE
    Meta                =          FALSE

    Exchange Hybrid     =           TRUE
    MP2 Hybrid          =          FALSE

   => Exchange Functionals <=

    0.0800   Slater exchange
    0.7200         Becke 88

   => Exact (HF) Exchange <=

    0.2000               HF 

   => Correlation Functionals <=

    0.1900   Vosko, Wilk & Nusair (VWN5_RPA)
    0.8100   Lee, Yang & Parr

   => Molecular Quadrature <=

    Radial Scheme          =       TREUTLER
    Pruning Scheme         =           FLAT
    Nuclear Scheme         =       TREUTLER

    BS radius alpha        =              1
    Pruning alpha          =              1
    Radial Points          =             75
    Spherical Points       =            302
    Total Points           =          90600
    Total Blocks           =            752
    Max Points             =            256
    Max Functions          =             64


  -Total Gradient:
     Atom            X                  Y                   Z
    ------   -----------------  -----------------  -----------------
       1       -0.037895905507    -0.000000000000    -0.000000000000
       2        0.037895905507     0.000000000000     0.000000000000
       3       -0.002229560456    -0.000000000000     0.000000000000
       4        0.002229560456     0.000000000000     0.000000000000


*** tstop() called on atlantis at Tue Apr 19 02:02:49 2022
Module time:
	user time   =       0.56 seconds =       0.01 minutes
	system time =       0.00 seconds =       0.00 minutes
	total time  =          1 seconds =       0.02 minutes
Total time:
	user time   =       9.32 seconds =       0.16 minutes
	system time =       0.14 seconds =       0.00 minutes
	total time  =         10 seconds =       0.17 minutes

  //>>>>>>>>>>>>>>>>>>>>>>>>>>>>>>>>>>>//
  //    Loading displacement 3 of 12   //
  //<<<<<<<<<<<<<<<<<<<<<<<<<<<<<<<<<<<//
gradient() will perform analytic gradient computation.

*** tstart() called on atlantis
*** at Tue Apr 19 02:02:49 2022

   => Loading Basis Set <=

    Name: AUG-CC-PVDZ
    Role: ORBITAL
    Keyword: BASIS
    atoms 1-2 entry C          line   178 file /home/akrom/software/anaconda3/envs/ffpenv/share/psi4/basis/aug-cc-pvdz.gbs 
    atoms 3-4 entry H          line    36 file /home/akrom/software/anaconda3/envs/ffpenv/share/psi4/basis/aug-cc-pvdz.gbs 


         ---------------------------------------------------------
                                   SCF
               by Justin Turney, Rob Parrish, Andy Simmonett
                          and Daniel G. A. Smith
                              RKS Reference
                        1 Threads,    500 MiB Core
         ---------------------------------------------------------

  ==> Geometry <==

    Molecular point group: d2h
    Full point group: D_inf_h

    Geometry (in Angstrom), charge = 0, multiplicity = 1:

       Center              X                  Y                   Z               Mass       
    ------------   -----------------  -----------------  -----------------  -----------------
         C           -0.613919910771    -0.000000000000     0.000000000000    12.000000000000
         C            0.613919910771     0.000000000000     0.000000000000    12.000000000000
         H           -1.689230000000    -0.000000000000     0.000000000000     1.007825032230
         H            1.689230000000     0.000000000000     0.000000000000     1.007825032230

  Running in d2h symmetry.

  Rotational constants: A = ************  B =      1.13924  C =      1.13924 [cm^-1]
  Rotational constants: A = ************  B =  34153.69835  C =  34153.69835 [MHz]
  Nuclear repulsion =   24.334534488106961

  Charge       = 0
  Multiplicity = 1
  Electrons    = 14
  Nalpha       = 7
  Nbeta        = 7

  ==> Algorithm <==

  SCF Algorithm Type is DF.
  DIIS enabled.
  MOM disabled.
  Fractional occupation disabled.
  Guess Type is SAD.
  Energy threshold   = 1.00e-08
  Density threshold  = 1.00e-08
  Integral threshold = 0.00e+00

  ==> Primary Basis <==

  Basis Set: AUG-CC-PVDZ
    Blend: AUG-CC-PVDZ
    Number of shells: 28
    Number of basis function: 64
    Number of Cartesian functions: 68
    Spherical Harmonics?: true
    Max angular momentum: 2

  ==> DFT Potential <==

   => Composite Functional: B3LYP <= 

    B3LYP Hyb-GGA Exchange-Correlation Functional

    P. J. Stephens, F. J. Devlin, C. F. Chabalowski, and M. J. Frisch, J. Phys. Chem. 98, 11623 (1994)

    Deriv               =              1
    GGA                 =           TRUE
    Meta                =          FALSE

    Exchange Hybrid     =           TRUE
    MP2 Hybrid          =          FALSE

   => Exchange Functionals <=

    0.0800   Slater exchange
    0.7200         Becke 88

   => Exact (HF) Exchange <=

    0.2000               HF 

   => Correlation Functionals <=

    0.1900   Vosko, Wilk & Nusair (VWN5_RPA)
    0.8100   Lee, Yang & Parr

   => Molecular Quadrature <=

    Radial Scheme          =       TREUTLER
    Pruning Scheme         =           FLAT
    Nuclear Scheme         =       TREUTLER

    BS radius alpha        =              1
    Pruning alpha          =              1
    Radial Points          =             75
    Spherical Points       =            302
    Total Points           =          90600
    Total Blocks           =            752
    Max Points             =            256
    Max Functions          =             64

   => Loading Basis Set <=

    Name: (AUG-CC-PVDZ AUX)
    Role: JKFIT
    Keyword: DF_BASIS_SCF
    atoms 1-2 entry C          line   154 file /home/akrom/software/anaconda3/envs/ffpenv/share/psi4/basis/aug-cc-pvdz-jkfit.gbs 
    atoms 3-4 entry H          line    70 file /home/akrom/software/anaconda3/envs/ffpenv/share/psi4/basis/aug-cc-pvdz-jkfit.gbs 

  ==> Pre-Iterations <==

   -------------------------------------------------------
    Irrep   Nso     Nmo     Nalpha   Nbeta   Ndocc  Nsocc
   -------------------------------------------------------
     Ag        16      16       0       0       0       0
     B1g        7       7       0       0       0       0
     B2g        7       7       0       0       0       0
     B3g        2       2       0       0       0       0
     Au         2       2       0       0       0       0
     B1u        7       7       0       0       0       0
     B2u        7       7       0       0       0       0
     B3u       16      16       0       0       0       0
   -------------------------------------------------------
    Total      64      64       7       7       7       0
   -------------------------------------------------------

  ==> Integral Setup <==

  DFHelper Memory: AOs need 0.008 GiB; user supplied 0.202 GiB. Using in-core AOs.

  ==> MemDFJK: Density-Fitted J/K Matrices <==

    J tasked:                   Yes
    K tasked:                   Yes
    wK tasked:                   No
    OpenMP threads:               1
    Memory [MiB]:               207
    Algorithm:                 Core
    Schwarz Cutoff:           1E-12
    Mask sparsity (%):       0.0000
    Fitting Condition:        1E-10

   => Auxiliary Basis Set <=

  Basis Set: (AUG-CC-PVDZ AUX)
    Blend: AUG-CC-PVDZ-JKFIT
    Number of shells: 80
    Number of basis function: 236
    Number of Cartesian functions: 272
    Spherical Harmonics?: true
    Max angular momentum: 3

  Cached 100.0% of DFT collocation blocks in 0.164 [GiB].

  Minimum eigenvalue in the overlap matrix is 3.8426868966E-05.
  Using Symmetric Orthogonalization.

  SCF Guess: Superposition of Atomic Densities via on-the-fly atomic UHF.

  ==> Iterations <==

                           Total Energy        Delta E     RMS |[F,P]|

   @DF-RKS iter SAD:   -76.65534683101845   -7.66553e+01   0.00000e+00 
   @DF-RKS iter   1:   -77.14553768639894   -4.90191e-01   2.04613e-02 DIIS
   @DF-RKS iter   2:   -77.09522084943430    5.03168e-02   2.31120e-02 DIIS
   @DF-RKS iter   3:   -77.33759748347116   -2.42377e-01   7.29932e-04 DIIS
   @DF-RKS iter   4:   -77.33784391853348   -2.46435e-04   6.31853e-05 DIIS
   @DF-RKS iter   5:   -77.33784573018764   -1.81165e-06   9.12317e-06 DIIS
   @DF-RKS iter   6:   -77.33784576224956   -3.20619e-08   6.12900e-07 DIIS
   @DF-RKS iter   7:   -77.33784576241418   -1.64619e-10   6.21350e-08 DIIS
   @DF-RKS iter   8:   -77.33784576241568   -1.50635e-12   4.14149e-09 DIIS
  Energy and wave function converged.


  ==> Post-Iterations <==

    Orbital Energies [Eh]
    ---------------------

    Doubly Occupied:                                                      

       1Ag   -10.210799     1B3u  -10.208837     2Ag    -0.757411  
       2B3u   -0.574841     3Ag    -0.501128     1B2u   -0.296692  
       1B1u   -0.296692  

    Virtual:                                                              

       4Ag     0.000658     1B2g    0.004945     1B1g    0.004945  
       3B3u    0.007855     2B2u    0.061596     2B1u    0.061596  
       5Ag     0.064267     4B3u    0.080576     6Ag     0.118588  
       2B2g    0.120136     2B1g    0.120136     5B3u    0.158170  
       7Ag     0.232246     6B3u    0.248500     3B1u    0.283161  
       3B2u    0.283161     8Ag     0.301112     1B3g    0.301112  
       3B2g    0.374661     3B1g    0.374661     7B3u    0.408422  
       9Ag     0.426601     1Au     0.466202     8B3u    0.466202  
      10Ag     0.471339     9B3u    0.570177     4B1u    0.596276  
       4B2u    0.596276     4B2g    0.671900     4B1g    0.671900  
       5B1u    0.673279     5B2u    0.673279    10B3u    0.697906  
      11Ag     0.772039    11B3u    0.956874     5B2g    0.998589  
       5B1g    0.998589    12Ag     1.165062    13Ag     1.326265  
       2B3g    1.326265    12B3u    1.386988     6B1u    1.409366  
       6B2u    1.409366    14Ag     1.463627    13B3u    1.627397  
       2Au     1.627397     6B2g    1.668819     6B1g    1.668819  
       7B1u    1.855448     7B2u    1.855448    14B3u    2.197672  
      15Ag     2.245773    15B3u    2.321224     7B2g    2.460998  
       7B1g    2.460998    16Ag     3.394998    16B3u    3.606789  

    Final Occupation by Irrep:
             Ag   B1g   B2g   B3g    Au   B1u   B2u   B3u 
    DOCC [     3,    0,    0,    0,    0,    1,    1,    2 ]

  @DF-RKS Final Energy:   -77.33784576241568

   => Energetics <=

    Nuclear Repulsion Energy =             24.3345344881069607
    One-Electron Energy =                -150.9744837546132317
    Two-Electron Energy =                  58.5745804002303672
    DFT Exchange-Correlation Energy =      -9.2724768961397821
    Empirical Dispersion Energy =           0.0000000000000000
    VV10 Nonlocal Energy =                  0.0000000000000000
    Total Energy =                        -77.3378457624156965

Computation Completed


Properties will be evaluated at   0.000000,   0.000000,   0.000000 [a0]

Properties computed using the SCF density matrix

  Nuclear Dipole Moment: [e a0]
     X:     0.0000      Y:     0.0000      Z:     0.0000

  Electronic Dipole Moment: [e a0]
     X:     0.0000      Y:     0.0000      Z:     0.0000

  Dipole Moment: [e a0]
     X:     0.0000      Y:     0.0000      Z:     0.0000     Total:     0.0000

  Dipole Moment: [D]
     X:     0.0000      Y:     0.0000      Z:     0.0000     Total:     0.0000


*** tstop() called on atlantis at Tue Apr 19 02:02:51 2022
Module time:
	user time   =       1.92 seconds =       0.03 minutes
	system time =       0.02 seconds =       0.00 minutes
	total time  =          2 seconds =       0.03 minutes
Total time:
	user time   =      11.24 seconds =       0.19 minutes
	system time =       0.16 seconds =       0.00 minutes
	total time  =         12 seconds =       0.20 minutes

*** tstart() called on atlantis
*** at Tue Apr 19 02:02:51 2022


         ------------------------------------------------------------
                                   SCF GRAD                          
                          Rob Parrish, Justin Turney,                
                       Andy Simmonett, and Alex Sokolov              
         ------------------------------------------------------------

  ==> Geometry <==

    Molecular point group: d2h
    Full point group: D_inf_h

    Geometry (in Angstrom), charge = 0, multiplicity = 1:

       Center              X                  Y                   Z               Mass       
    ------------   -----------------  -----------------  -----------------  -----------------
         C           -0.613919910771    -0.000000000000     0.000000000000    12.000000000000
         C            0.613919910771     0.000000000000     0.000000000000    12.000000000000
         H           -1.689230000000    -0.000000000000     0.000000000000     1.007825032230
         H            1.689230000000     0.000000000000     0.000000000000     1.007825032230

  Nuclear repulsion =   24.334534488106961

  ==> Basis Set <==

  Basis Set: AUG-CC-PVDZ
    Blend: AUG-CC-PVDZ
    Number of shells: 28
    Number of basis function: 64
    Number of Cartesian functions: 68
    Spherical Harmonics?: true
    Max angular momentum: 2

  ==> DFJKGrad: Density-Fitted SCF Gradients <==

    Gradient:                    1
    J tasked:                  Yes
    K tasked:                  Yes
    wK tasked:                  No
    OpenMP threads:              1
    Integrals threads:           1
    Memory [MiB]:              375
    Schwarz Cutoff:          0E+00
    Fitting Condition:       1E-10

   => Auxiliary Basis Set <=

  Basis Set: (AUG-CC-PVDZ AUX)
    Blend: AUG-CC-PVDZ-JKFIT
    Number of shells: 80
    Number of basis function: 236
    Number of Cartesian functions: 272
    Spherical Harmonics?: true
    Max angular momentum: 3

  ==> DFT Potential <==

   => Composite Functional: B3LYP <= 

    B3LYP Hyb-GGA Exchange-Correlation Functional

    P. J. Stephens, F. J. Devlin, C. F. Chabalowski, and M. J. Frisch, J. Phys. Chem. 98, 11623 (1994)

    Deriv               =              1
    GGA                 =           TRUE
    Meta                =          FALSE

    Exchange Hybrid     =           TRUE
    MP2 Hybrid          =          FALSE

   => Exchange Functionals <=

    0.0800   Slater exchange
    0.7200         Becke 88

   => Exact (HF) Exchange <=

    0.2000               HF 

   => Correlation Functionals <=

    0.1900   Vosko, Wilk & Nusair (VWN5_RPA)
    0.8100   Lee, Yang & Parr

   => Molecular Quadrature <=

    Radial Scheme          =       TREUTLER
    Pruning Scheme         =           FLAT
    Nuclear Scheme         =       TREUTLER

    BS radius alpha        =              1
    Pruning alpha          =              1
    Radial Points          =             75
    Spherical Points       =            302
    Total Points           =          90600
    Total Blocks           =            752
    Max Points             =            256
    Max Functions          =             64


  -Total Gradient:
     Atom            X                  Y                   Z
    ------   -----------------  -----------------  -----------------
       1       -0.032931109208    -0.000000000000     0.000000000000
       2        0.032931109208     0.000000000000     0.000000000000
       3       -0.003088880683    -0.000000000000    -0.000000000000
       4        0.003088880683     0.000000000000    -0.000000000000


*** tstop() called on atlantis at Tue Apr 19 02:02:51 2022
Module time:
	user time   =       0.58 seconds =       0.01 minutes
	system time =       0.00 seconds =       0.00 minutes
	total time  =          0 seconds =       0.00 minutes
Total time:
	user time   =      11.82 seconds =       0.20 minutes
	system time =       0.16 seconds =       0.00 minutes
	total time  =         12 seconds =       0.20 minutes

  //>>>>>>>>>>>>>>>>>>>>>>>>>>>>>>>>>>>//
  //    Loading displacement 4 of 12   //
  //<<<<<<<<<<<<<<<<<<<<<<<<<<<<<<<<<<<//
gradient() will perform analytic gradient computation.

*** tstart() called on atlantis
*** at Tue Apr 19 02:02:51 2022

   => Loading Basis Set <=

    Name: AUG-CC-PVDZ
    Role: ORBITAL
    Keyword: BASIS
    atoms 1-2 entry C          line   178 file /home/akrom/software/anaconda3/envs/ffpenv/share/psi4/basis/aug-cc-pvdz.gbs 
    atoms 3-4 entry H          line    36 file /home/akrom/software/anaconda3/envs/ffpenv/share/psi4/basis/aug-cc-pvdz.gbs 


         ---------------------------------------------------------
                                   SCF
               by Justin Turney, Rob Parrish, Andy Simmonett
                          and Daniel G. A. Smith
                              RKS Reference
                        1 Threads,    500 MiB Core
         ---------------------------------------------------------

  ==> Geometry <==

    Molecular point group: d2h
    Full point group: D_inf_h

    Geometry (in Angstrom), charge = 0, multiplicity = 1:

       Center              X                  Y                   Z               Mass       
    ------------   -----------------  -----------------  -----------------  -----------------
         C           -0.614460000000    -0.000000000000     0.000000000000    12.000000000000
         C            0.614460000000     0.000000000000     0.000000000000    12.000000000000
         H           -1.691093646632    -0.000000000000     0.000000000000     1.007825032230
         H            1.691093646632     0.000000000000     0.000000000000     1.007825032230

  Running in d2h symmetry.

  Rotational constants: A = ************  B =      1.13705  C =      1.13705 [cm^-1]
  Rotational constants: A = ************  B =  34087.76638  C =  34087.76638 [MHz]
  Nuclear repulsion =   24.310590060340044

  Charge       = 0
  Multiplicity = 1
  Electrons    = 14
  Nalpha       = 7
  Nbeta        = 7

  ==> Algorithm <==

  SCF Algorithm Type is DF.
  DIIS enabled.
  MOM disabled.
  Fractional occupation disabled.
  Guess Type is SAD.
  Energy threshold   = 1.00e-08
  Density threshold  = 1.00e-08
  Integral threshold = 0.00e+00

  ==> Primary Basis <==

  Basis Set: AUG-CC-PVDZ
    Blend: AUG-CC-PVDZ
    Number of shells: 28
    Number of basis function: 64
    Number of Cartesian functions: 68
    Spherical Harmonics?: true
    Max angular momentum: 2

  ==> DFT Potential <==

   => Composite Functional: B3LYP <= 

    B3LYP Hyb-GGA Exchange-Correlation Functional

    P. J. Stephens, F. J. Devlin, C. F. Chabalowski, and M. J. Frisch, J. Phys. Chem. 98, 11623 (1994)

    Deriv               =              1
    GGA                 =           TRUE
    Meta                =          FALSE

    Exchange Hybrid     =           TRUE
    MP2 Hybrid          =          FALSE

   => Exchange Functionals <=

    0.0800   Slater exchange
    0.7200         Becke 88

   => Exact (HF) Exchange <=

    0.2000               HF 

   => Correlation Functionals <=

    0.1900   Vosko, Wilk & Nusair (VWN5_RPA)
    0.8100   Lee, Yang & Parr

   => Molecular Quadrature <=

    Radial Scheme          =       TREUTLER
    Pruning Scheme         =           FLAT
    Nuclear Scheme         =       TREUTLER

    BS radius alpha        =              1
    Pruning alpha          =              1
    Radial Points          =             75
    Spherical Points       =            302
    Total Points           =          90600
    Total Blocks           =            752
    Max Points             =            256
    Max Functions          =             64

   => Loading Basis Set <=

    Name: (AUG-CC-PVDZ AUX)
    Role: JKFIT
    Keyword: DF_BASIS_SCF
    atoms 1-2 entry C          line   154 file /home/akrom/software/anaconda3/envs/ffpenv/share/psi4/basis/aug-cc-pvdz-jkfit.gbs 
    atoms 3-4 entry H          line    70 file /home/akrom/software/anaconda3/envs/ffpenv/share/psi4/basis/aug-cc-pvdz-jkfit.gbs 

  ==> Pre-Iterations <==

   -------------------------------------------------------
    Irrep   Nso     Nmo     Nalpha   Nbeta   Ndocc  Nsocc
   -------------------------------------------------------
     Ag        16      16       0       0       0       0
     B1g        7       7       0       0       0       0
     B2g        7       7       0       0       0       0
     B3g        2       2       0       0       0       0
     Au         2       2       0       0       0       0
     B1u        7       7       0       0       0       0
     B2u        7       7       0       0       0       0
     B3u       16      16       0       0       0       0
   -------------------------------------------------------
    Total      64      64       7       7       7       0
   -------------------------------------------------------

  ==> Integral Setup <==

  DFHelper Memory: AOs need 0.008 GiB; user supplied 0.202 GiB. Using in-core AOs.

  ==> MemDFJK: Density-Fitted J/K Matrices <==

    J tasked:                   Yes
    K tasked:                   Yes
    wK tasked:                   No
    OpenMP threads:               1
    Memory [MiB]:               207
    Algorithm:                 Core
    Schwarz Cutoff:           1E-12
    Mask sparsity (%):       0.0000
    Fitting Condition:        1E-10

   => Auxiliary Basis Set <=

  Basis Set: (AUG-CC-PVDZ AUX)
    Blend: AUG-CC-PVDZ-JKFIT
    Number of shells: 80
    Number of basis function: 236
    Number of Cartesian functions: 272
    Spherical Harmonics?: true
    Max angular momentum: 3

  Cached 100.0% of DFT collocation blocks in 0.164 [GiB].

  Minimum eigenvalue in the overlap matrix is 3.8587094821E-05.
  Using Symmetric Orthogonalization.

  SCF Guess: Superposition of Atomic Densities via on-the-fly atomic UHF.

  ==> Iterations <==

                           Total Energy        Delta E     RMS |[F,P]|

   @DF-RKS iter SAD:   -76.65418100769013   -7.66542e+01   0.00000e+00 
   @DF-RKS iter   1:   -77.14576567003570   -4.91585e-01   2.04401e-02 DIIS
   @DF-RKS iter   2:   -77.09512337044347    5.06423e-02   2.31050e-02 DIIS
   @DF-RKS iter   3:   -77.33750412882877   -2.42381e-01   7.29340e-04 DIIS
   @DF-RKS iter   4:   -77.33775044444791   -2.46316e-04   6.31425e-05 DIIS
   @DF-RKS iter   5:   -77.33775225569156   -1.81124e-06   9.12270e-06 DIIS
   @DF-RKS iter   6:   -77.33775228776472   -3.20732e-08   6.14824e-07 DIIS
   @DF-RKS iter   7:   -77.33775228793061   -1.65898e-10   6.22869e-08 DIIS
   @DF-RKS iter   8:   -77.33775228793209   -1.47793e-12   4.14897e-09 DIIS
  Energy and wave function converged.


  ==> Post-Iterations <==

    Orbital Energies [Eh]
    ---------------------

    Doubly Occupied:                                                      

       1Ag   -10.211162     1B3u  -10.209217     2Ag    -0.757145  
       2B3u   -0.574596     3Ag    -0.500814     1B2u   -0.296525  
       1B1u   -0.296525  

    Virtual:                                                              

       4Ag     0.000647     1B1g    0.004721     1B2g    0.004721  
       3B3u    0.007750     2B2u    0.061608     2B1u    0.061608  
       5Ag     0.064140     4B3u    0.080337     6Ag     0.118575  
       2B1g    0.120033     2B2g    0.120033     5B3u    0.157788  
       7Ag     0.231904     6B3u    0.248357     3B2u    0.282991  
       3B1u    0.282991     8Ag     0.301099     1B3g    0.301099  
       3B1g    0.374460     3B2g    0.374460     7B3u    0.408236  
       9Ag     0.426554     1Au     0.466123     8B3u    0.466123  
      10Ag     0.471175     9B3u    0.569766     4B2u    0.596318  
       4B1u    0.596318     4B1g    0.671480     4B2g    0.671480  
       5B2u    0.672986     5B1u    0.672986    10B3u    0.697815  
      11Ag     0.771606    11B3u    0.955416     5B1g    0.998421  
       5B2g    0.998421    12Ag     1.164304    13Ag     1.326441  
       2B3g    1.326441    12B3u    1.386490     6B2u    1.408982  
       6B1u    1.408982    14Ag     1.463896    13B3u    1.627017  
       2Au     1.627017     6B1g    1.668084     6B2g    1.668084  
       7B2u    1.853941     7B1u    1.853941    14B3u    2.194742  
      15Ag     2.242386    15B3u    2.320681     7B1g    2.458607  
       7B2g    2.458607    16Ag     3.390008    16B3u    3.602146  

    Final Occupation by Irrep:
             Ag   B1g   B2g   B3g    Au   B1u   B2u   B3u 
    DOCC [     3,    0,    0,    0,    0,    1,    1,    2 ]

  @DF-RKS Final Energy:   -77.33775228793209

   => Energetics <=

    Nuclear Repulsion Energy =             24.3105900603400436
    One-Electron Energy =                -150.9283447498755777
    Two-Electron Energy =                  58.5508848938934463
    DFT Exchange-Correlation Energy =      -9.2708824922900135
    Empirical Dispersion Energy =           0.0000000000000000
    VV10 Nonlocal Energy =                  0.0000000000000000
    Total Energy =                        -77.3377522879320907

Computation Completed


Properties will be evaluated at   0.000000,   0.000000,   0.000000 [a0]

Properties computed using the SCF density matrix

  Nuclear Dipole Moment: [e a0]
     X:     0.0000      Y:     0.0000      Z:     0.0000

  Electronic Dipole Moment: [e a0]
     X:     0.0000      Y:     0.0000      Z:     0.0000

  Dipole Moment: [e a0]
     X:     0.0000      Y:     0.0000      Z:     0.0000     Total:     0.0000

  Dipole Moment: [D]
     X:     0.0000      Y:     0.0000      Z:     0.0000     Total:     0.0000


*** tstop() called on atlantis at Tue Apr 19 02:02:53 2022
Module time:
	user time   =       1.93 seconds =       0.03 minutes
	system time =       0.02 seconds =       0.00 minutes
	total time  =          2 seconds =       0.03 minutes
Total time:
	user time   =      13.75 seconds =       0.23 minutes
	system time =       0.18 seconds =       0.00 minutes
	total time  =         14 seconds =       0.23 minutes

*** tstart() called on atlantis
*** at Tue Apr 19 02:02:53 2022


         ------------------------------------------------------------
                                   SCF GRAD                          
                          Rob Parrish, Justin Turney,                
                       Andy Simmonett, and Alex Sokolov              
         ------------------------------------------------------------

  ==> Geometry <==

    Molecular point group: d2h
    Full point group: D_inf_h

    Geometry (in Angstrom), charge = 0, multiplicity = 1:

       Center              X                  Y                   Z               Mass       
    ------------   -----------------  -----------------  -----------------  -----------------
         C           -0.614460000000    -0.000000000000     0.000000000000    12.000000000000
         C            0.614460000000     0.000000000000     0.000000000000    12.000000000000
         H           -1.691093646632    -0.000000000000     0.000000000000     1.007825032230
         H            1.691093646632     0.000000000000     0.000000000000     1.007825032230

  Nuclear repulsion =   24.310590060340044

  ==> Basis Set <==

  Basis Set: AUG-CC-PVDZ
    Blend: AUG-CC-PVDZ
    Number of shells: 28
    Number of basis function: 64
    Number of Cartesian functions: 68
    Spherical Harmonics?: true
    Max angular momentum: 2

  ==> DFJKGrad: Density-Fitted SCF Gradients <==

    Gradient:                    1
[...]
    Irrep   Nso     Nmo     Nalpha   Nbeta   Ndocc  Nsocc
   -------------------------------------------------------
     A1        32      32       0       0       0       0
     A2         4       4       0       0       0       0
     B1        14      14       0       0       0       0
     B2        14      14       0       0       0       0
   -------------------------------------------------------
    Total      64      64       7       7       7       0
   -------------------------------------------------------

  ==> Integral Setup <==

  DFHelper Memory: AOs need 0.008 GiB; user supplied 0.202 GiB. Using in-core AOs.

  ==> MemDFJK: Density-Fitted J/K Matrices <==

    J tasked:                   Yes
    K tasked:                   Yes
    wK tasked:                   No
    OpenMP threads:               1
    Memory [MiB]:               207
    Algorithm:                 Core
    Schwarz Cutoff:           1E-12
    Mask sparsity (%):       0.0000
    Fitting Condition:        1E-10

   => Auxiliary Basis Set <=

  Basis Set: (AUG-CC-PVDZ AUX)
    Blend: AUG-CC-PVDZ-JKFIT
    Number of shells: 80
    Number of basis function: 236
    Number of Cartesian functions: 272
    Spherical Harmonics?: true
    Max angular momentum: 3

  Cached 100.0% of DFT collocation blocks in 0.164 [GiB].

  Minimum eigenvalue in the overlap matrix is 3.8568667600E-05.
  Using Symmetric Orthogonalization.

  SCF Guess: Superposition of Atomic Densities via on-the-fly atomic UHF.

  ==> Iterations <==

                           Total Energy        Delta E     RMS |[F,P]|

   @DF-RKS iter SAD:   -76.65461896275639   -7.66546e+01   0.00000e+00 
   @DF-RKS iter   1:   -77.14598797809916   -4.91369e-01   1.44471e-02 DIIS
   @DF-RKS iter   2:   -77.09621964504825    4.97683e-02   1.63053e-02 DIIS
   @DF-RKS iter   3:   -77.33751899327305   -2.41299e-01   5.20487e-04 DIIS
   @DF-RKS iter   4:   -77.33774339997490   -2.24407e-04   1.88005e-04 DIIS
   @DF-RKS iter   5:   -77.33774057203351    2.82794e-06   1.99050e-04 DIIS
   @DF-RKS iter   6:   -77.33777056439821   -2.99924e-05   5.19808e-06 DIIS
   @DF-RKS iter   7:   -77.33777058501022   -2.06120e-08   3.13692e-07 DIIS
   @DF-RKS iter   8:   -77.33777058509601   -8.57909e-11   3.22501e-08 DIIS
   @DF-RKS iter   9:   -77.33777058509678   -7.67386e-13   2.23150e-09 DIIS
  Energy and wave function converged.


  ==> Post-Iterations <==

    Orbital Energies [Eh]
    ---------------------

    Doubly Occupied:                                                      

       1A1   -10.211053     2A1   -10.209084     3A1    -0.757237  
       4A1    -0.575144     5A1    -0.501252     1B1    -0.296561  
       1B2    -0.296561  

    Virtual:                                                              

       6A1     0.000644     2B1     0.004690     2B2     0.004690  
       7A1     0.007857     3B1     0.061607     3B2     0.061607  
       8A1     0.064310     9A1     0.080580    10A1     0.118568  
       4B2     0.120018     4B1     0.120018    11A1     0.158102  
      12A1     0.232396    13A1     0.248426     5B2     0.283153  
       5B1     0.283153    14A1     0.301070     1A2     0.301070  
       6B2     0.374607     6B1     0.374607    15A1     0.408170  
      16A1     0.426587     2A2     0.466108    17A1     0.466108  
      18A1     0.471349    19A1     0.570093     7B1     0.596434  
       7B2     0.596434     8B1     0.671803     8B2     0.671803  
       9B1     0.673103     9B2     0.673103    20A1     0.697949  
      21A1     0.772334    22A1     0.955765    10B1     0.998361  
      10B2     0.998361    23A1     1.165037    24A1     1.326403  
       3A2     1.326403    25A1     1.386586    11B1     1.409084  
      11B2     1.409084    26A1     1.463519    27A1     1.626972  
       4A2     1.626972    12B1     1.668761    12B2     1.668761  
      13B1     1.855301    13B2     1.855301    28A1     2.196377  
      29A1     2.246470    30A1     2.322602    14B1     2.460841  
      14B2     2.460841    31A1     3.392472    32A1     3.607065  

    Final Occupation by Irrep:
             A1    A2    B1    B2 
    DOCC [     5,    0,    1,    1 ]

  @DF-RKS Final Energy:   -77.33777058509678

   => Energetics <=

    Nuclear Repulsion Energy =             24.3232393838559098
    One-Electron Energy =                -150.9511046293488619
    Two-Electron Energy =                  58.5620631010677286
    DFT Exchange-Correlation Energy =      -9.2719684406715572
    Empirical Dispersion Energy =           0.0000000000000000
    VV10 Nonlocal Energy =                  0.0000000000000000
    Total Energy =                        -77.3377705850967772

Computation Completed


Properties will be evaluated at   0.000000,   0.000000,   0.000000 [a0]

Properties computed using the SCF density matrix

  Nuclear Dipole Moment: [e a0]
     X:     0.0034      Y:     0.0000      Z:     0.0000

  Electronic Dipole Moment: [e a0]
     X:    -0.0017      Y:     0.0000      Z:     0.0000

  Dipole Moment: [e a0]
     X:     0.0016      Y:     0.0000      Z:     0.0000     Total:     0.0016

  Dipole Moment: [D]
     X:     0.0041      Y:     0.0000      Z:     0.0000     Total:     0.0041


*** tstop() called on atlantis at Tue Apr 19 02:03:14 2022
Module time:
	user time   =       2.06 seconds =       0.03 minutes
	system time =       0.00 seconds =       0.00 minutes
	total time  =          3 seconds =       0.05 minutes
Total time:
	user time   =      33.90 seconds =       0.56 minutes
	system time =       0.28 seconds =       0.00 minutes
	total time  =         35 seconds =       0.58 minutes

*** tstart() called on atlantis
*** at Tue Apr 19 02:03:14 2022


         ------------------------------------------------------------
                                   SCF GRAD                          
                          Rob Parrish, Justin Turney,                
                       Andy Simmonett, and Alex Sokolov              
         ------------------------------------------------------------

  ==> Geometry <==

    Molecular point group: c2v
    Full point group: C_inf_v

    Geometry (in Angstrom), charge = 0, multiplicity = 1:

       Center              X                  Y                   Z               Mass       
    ------------   -----------------  -----------------  -----------------  -----------------
         C           -0.614610333491     0.000000000000     0.000000000000    12.000000000000
         C            0.614309666509     0.000000000000     0.000000000000    12.000000000000
         H           -1.687440004874     0.000000000000     0.000000000000     1.007825032230
         H            1.691019995126     0.000000000000     0.000000000000     1.007825032230

  Nuclear repulsion =   24.323239383855910

  ==> Basis Set <==

  Basis Set: AUG-CC-PVDZ
    Blend: AUG-CC-PVDZ
    Number of shells: 28
    Number of basis function: 64
    Number of Cartesian functions: 68
    Spherical Harmonics?: true
    Max angular momentum: 2

  ==> DFJKGrad: Density-Fitted SCF Gradients <==

    Gradient:                    1
    J tasked:                  Yes
    K tasked:                  Yes
    wK tasked:                  No
    OpenMP threads:              1
    Integrals threads:           1
    Memory [MiB]:              375
    Schwarz Cutoff:          0E+00
    Fitting Condition:       1E-10

   => Auxiliary Basis Set <=

  Basis Set: (AUG-CC-PVDZ AUX)
    Blend: AUG-CC-PVDZ-JKFIT
    Number of shells: 80
    Number of basis function: 236
    Number of Cartesian functions: 272
    Spherical Harmonics?: true
    Max angular momentum: 3

  ==> DFT Potential <==

   => Composite Functional: B3LYP <= 

    B3LYP Hyb-GGA Exchange-Correlation Functional

    P. J. Stephens, F. J. Devlin, C. F. Chabalowski, and M. J. Frisch, J. Phys. Chem. 98, 11623 (1994)

    Deriv               =              1
    GGA                 =           TRUE
    Meta                =          FALSE

    Exchange Hybrid     =           TRUE
    MP2 Hybrid          =          FALSE

   => Exchange Functionals <=

    0.0800   Slater exchange
    0.7200         Becke 88

   => Exact (HF) Exchange <=

    0.2000               HF 

   => Correlation Functionals <=

    0.1900   Vosko, Wilk & Nusair (VWN5_RPA)
    0.8100   Lee, Yang & Parr

   => Molecular Quadrature <=

    Radial Scheme          =       TREUTLER
    Pruning Scheme         =           FLAT
    Nuclear Scheme         =       TREUTLER

    BS radius alpha        =              1
    Pruning alpha          =              1
    Radial Points          =             75
    Spherical Points       =            302
    Total Points           =          90600
    Total Blocks           =            752
    Max Points             =            256
    Max Functions          =             64


  -Total Gradient:
     Atom            X                  Y                   Z
    ------   -----------------  -----------------  -----------------
       1       -0.036903027949     0.000000000000     0.000000000000
       2        0.033952186313     0.000000000000     0.000000000000
       3       -0.001176258143     0.000000000000     0.000000000000
       4        0.004127122039     0.000000000000     0.000000000000


*** tstop() called on atlantis at Tue Apr 19 02:03:14 2022
Module time:
	user time   =       0.59 seconds =       0.01 minutes
	system time =       0.00 seconds =       0.00 minutes
	total time  =          0 seconds =       0.00 minutes
Total time:
	user time   =      34.49 seconds =       0.57 minutes
	system time =       0.28 seconds =       0.00 minutes
	total time  =         35 seconds =       0.58 minutes

         ----------------------------------------------------------
                                   FINDIF
                     R. A. King and Jonathon Misiewicz
         ---------------------------------------------------------

  Computing second-derivative from gradients using projected, 
  symmetry-adapted, cartesian coordinates.

  12 gradients passed in, including the reference geometry.
  Generating complete list of displacements from unique ones.

    Operation 3 takes plus displacements of irrep B1g to minus ones.
    Operation 2 takes plus displacements of irrep B2g to minus ones.
    Operation 3 takes plus displacements of irrep B1u to minus ones.
    Operation 2 takes plus displacements of irrep B2u to minus ones.
    Operation 2 takes plus displacements of irrep B3u to minus ones.

-------------------------------------------------------------


  ==> Harmonic Vibrational Analysis <==

  non-mass-weighted Hessian:       Symmetric? True   Hermitian? True   Lin Dep Dim?  3 (0)
  projection of translations (True) and rotations (False) removed 3 degrees of freedom (5)
  total projector:                 Symmetric? True   Hermitian? True   Lin Dep Dim?  3 (3)
  mass-weighted Hessian:           Symmetric? True   Hermitian? True   Lin Dep Dim?  3 (0)
  pre-proj  low-frequency mode:    0.0000i [cm^-1]
  pre-proj  low-frequency mode:    0.0000i [cm^-1]
  pre-proj  low-frequency mode:    0.0000  [cm^-1]
  pre-proj  low-frequency mode:  218.6192  [cm^-1]
  pre-proj  low-frequency mode:  218.6192  [cm^-1]
  pre-proj  all modes:['0.0000i' '0.0000i' '0.0000' '218.6192' '218.6192' '567.1142' '567.1144'
 '740.1319' '740.1323' '1957.2454' '3381.7836' '3473.5169']
  projected mass-weighted Hessian: Symmetric? True   Hermitian? True   Lin Dep Dim?  3 (3)
  post-proj low-frequency mode:    0.0000i [cm^-1] (TR)
  post-proj low-frequency mode:    0.0000  [cm^-1] (TR)
  post-proj low-frequency mode:    0.0000  [cm^-1] (TR)
  post-proj low-frequency mode:  218.6192  [cm^-1] (V)
  post-proj low-frequency mode:  218.6192  [cm^-1] (V)
  post-proj  all modes:['0.0000i' '0.0000' '0.0000' '218.6192' '218.6192' '567.1142' '567.1144'
 '740.1319' '740.1323' '1957.2454' '3381.7836' '3473.5169']

  Note that "Vibration"s include 2 un-projected rotation-like modes.
  Vibration                       4                   5                   6           
  Freq [cm^-1]                 218.6192            218.6192            567.1142       
  Irrep                          B2g                 B1g                 B1g          
  Reduced mass [u]              1.9654              1.9654              1.7644        
  Force const [mDyne/A]         0.0553              0.0553              0.3343        
  Turning point v=0 [a0]        0.5294              0.5294              0.3469        
  RMS dev v=0 [a0 u^1/2]        0.5248              0.5248              0.3258        
  Char temp [K]                314.5444            314.5444            815.9510       
  ----------------------------------------------------------------------------------
      1   C               -0.00  0.00  0.21    0.00  0.21 -0.00   -0.00 -0.19 -0.00   
      2   C               -0.00 -0.00 -0.21    0.00 -0.21  0.00   -0.00  0.19  0.00   
      3   H               -0.00  0.00  0.68    0.00  0.68 -0.00   -0.00  0.68  0.00   
      4   H               -0.00 -0.00 -0.68    0.00 -0.68  0.00   -0.00 -0.68 -0.00   

  Vibration                       7                   8                   9           
  Freq [cm^-1]                 567.1144            740.1319            740.1323       
  Irrep                          B2g                 B1u                 B2u          
  Reduced mass [u]              1.7644              1.0848              1.0848        
  Force const [mDyne/A]         0.3343              0.3501              0.3501        
  Turning point v=0 [a0]        0.3469              0.3872              0.3872        
  RMS dev v=0 [a0 u^1/2]        0.3258              0.2852              0.2852        
  Char temp [K]                815.9513           1064.8851           1064.8856       
  ----------------------------------------------------------------------------------
      1   C                0.00  0.00 -0.19    0.00  0.00 -0.06   -0.00 -0.06 -0.00   
      2   C                0.00 -0.00  0.19    0.00  0.00 -0.06   -0.00 -0.06 -0.00   
      3   H                0.00 -0.00  0.68    0.00 -0.00  0.70   -0.00  0.70  0.00   
      4   H                0.00  0.00 -0.68    0.00 -0.00  0.70   -0.00  0.70  0.00   

  Vibration                       10                  11                  12          
  Freq [cm^-1]                1957.2454           3381.7836           3473.5169       
  Irrep                           Ag                 B3u                  Ag          
  Reduced mass [u]              3.9734              1.0848              1.2137        
  Force const [mDyne/A]         8.9682              7.3097              8.6281        
  Turning point v=0 [a0]        0.1244              0.1812              0.1690        
  RMS dev v=0 [a0 u^1/2]        0.1754              0.1334              0.1316        
  Char temp [K]               2816.0403           4865.6337           4997.6174       
  ----------------------------------------------------------------------------------
      1   C                0.37  0.00  0.00   -0.06  0.00  0.00   -0.10  0.00 -0.00   
      2   C               -0.37 -0.00 -0.00   -0.06 -0.00 -0.00    0.10 -0.00  0.00   
      3   H                0.60 -0.00 -0.00    0.70 -0.00 -0.00    0.70 -0.00  0.00   
      4   H               -0.60 -0.00 -0.00    0.70 -0.00  0.00   -0.70  0.00 -0.00   

  ==> Thermochemistry Components <==

  Entropy, S
    Electronic S            0.000 [cal/(mol K)]        0.000 [J/(mol K)]       0.00000000 [mEh/K] (multiplicity = 1)
    Translational S        35.704 [cal/(mol K)]      149.387 [J/(mol K)]       0.05689862 [mEh/K] (mol. weight = 26.0157 [u], P = 101325.00 [Pa])
    Rotational S           10.952 [cal/(mol K)]       45.824 [J/(mol K)]       0.01745345 [mEh/K] (symmetry no. = 2)
    Vibrational S           5.486 [cal/(mol K)]       22.954 [J/(mol K)]       0.00874275 [mEh/K]
  Total S                  52.143 [cal/(mol K)]      218.165 [J/(mol K)]       0.08309481 [mEh/K]
  Correction S              0.000 [cal/(mol K)]        0.000 [J/(mol K)]       0.00000000 [mEh/K]

  Constant volume heat capacity, Cv
    Electronic Cv           0.000 [cal/(mol K)]        0.000 [J/(mol K)]       0.00000000 [mEh/K]
    Translational Cv        2.981 [cal/(mol K)]       12.472 [J/(mol K)]       0.00475022 [mEh/K]
    Rotational Cv           1.987 [cal/(mol K)]        8.314 [J/(mol K)]       0.00316681 [mEh/K]
    Vibrational Cv          7.353 [cal/(mol K)]       30.765 [J/(mol K)]       0.01171790 [mEh/K]
  Total Cv                 12.321 [cal/(mol K)]       51.551 [J/(mol K)]       0.01963493 [mEh/K]
  Correction Cv             0.000 [cal/(mol K)]        0.000 [J/(mol K)]       0.00000000 [mEh/K]

  Constant pressure heat capacity, Cp
    Electronic Cp           0.000 [cal/(mol K)]        0.000 [J/(mol K)]       0.00000000 [mEh/K]
    Translational Cp        4.968 [cal/(mol K)]       20.786 [J/(mol K)]       0.00791703 [mEh/K]
    Rotational Cp           1.987 [cal/(mol K)]        8.314 [J/(mol K)]       0.00316681 [mEh/K]
    Vibrational Cp          7.353 [cal/(mol K)]       30.765 [J/(mol K)]       0.01171790 [mEh/K]
  Total Cp                 14.308 [cal/(mol K)]       59.866 [J/(mol K)]       0.02280174 [mEh/K]
  Correction Cp             0.000 [cal/(mol K)]        0.000 [J/(mol K)]       0.00000000 [mEh/K]

  ==> Thermochemistry Energy Analysis <==

  Raw electronic energy, E0
  Total E0, Electronic energy at well bottom at 0 [K]                  -77.33777600 [Eh]

  Zero-point energy, ZPE_vib = Sum_i nu_i / 2
    Electronic ZPE          0.000 [kcal/mol]        0.000 [kJ/mol]       0.00000000 [Eh]
    Translational ZPE       0.000 [kcal/mol]        0.000 [kJ/mol]       0.00000000 [Eh]
    Rotational ZPE          0.000 [kcal/mol]        0.000 [kJ/mol]       0.00000000 [Eh]
    Vibrational ZPE        16.961 [kcal/mol]       70.964 [kJ/mol]       0.02702881 [Eh]        5932.138 [cm^-1]
  Correction ZPE           16.961 [kcal/mol]       70.964 [kJ/mol]       0.02702881 [Eh]        5932.138 [cm^-1]
  Total ZPE, Electronic energy at 0 [K]                                -77.31074718 [Eh]

  Thermal Energy, E (includes ZPE)
    Electronic E            0.000 [kcal/mol]        0.000 [kJ/mol]       0.00000000 [Eh]
    Translational E         0.889 [kcal/mol]        3.718 [kJ/mol]       0.00141628 [Eh]
    Rotational E            0.592 [kcal/mol]        2.479 [kJ/mol]       0.00094418 [Eh]
    Vibrational E          17.976 [kcal/mol]       75.212 [kJ/mol]       0.02864682 [Eh]
  Correction E             19.457 [kcal/mol]       81.410 [kJ/mol]       0.03100728 [Eh]
  Total E, Electronic energy at  298.15 [K]                            -77.30676871 [Eh]

  Enthalpy, H_trans = E_trans + k_B * T
    Electronic H            0.000 [kcal/mol]        0.000 [kJ/mol]       0.00000000 [Eh]
    Translational H         1.481 [kcal/mol]        6.197 [kJ/mol]       0.00236046 [Eh]
    Rotational H            0.592 [kcal/mol]        2.479 [kJ/mol]       0.00094418 [Eh]
    Vibrational H          17.976 [kcal/mol]       75.212 [kJ/mol]       0.02864682 [Eh]
  Correction H             20.050 [kcal/mol]       83.889 [kJ/mol]       0.03195147 [Eh]
  Total H, Enthalpy at  298.15 [K]                                     -77.30582453 [Eh]

  Gibbs free energy, G = H - T * S
    Electronic G            0.000 [kcal/mol]        0.000 [kJ/mol]       0.00000000 [Eh]
    Translational G        -9.164 [kcal/mol]      -38.342 [kJ/mol]      -0.01460386 [Eh]
    Rotational G           -2.673 [kcal/mol]      -11.183 [kJ/mol]      -0.00425956 [Eh]
    Vibrational G          16.340 [kcal/mol]       68.368 [kJ/mol]       0.02604017 [Eh]
  Correction G              4.503 [kcal/mol]       18.843 [kJ/mol]       0.00717675 [Eh]
  Total G, Free enthalpy at  298.15 [K]                                -77.33059925 [Eh]

    Psi4 stopped on: Tuesday, 19 April 2022 02:03AM
    Psi4 wall time for execution: 0:00:35.00

*** Psi4 exiting successfully. Buy a developer a beer!
