
    -----------------------------------------------------------------------
          Psi4: An Open-Source Ab Initio Electronic Structure Package
                               Psi4 1.3.2 release

                         Git: Rev {HEAD} ecbda83 


    R. M. Parrish, L. A. Burns, D. G. A. Smith, A. C. Simmonett,
    A. E. DePrince III, E. G. Hohenstein, U. Bozkaya, A. Yu. Sokolov,
    R. Di Remigio, R. M. Richard, J. F. Gonthier, A. M. James,
    H. R. McAlexander, A. Kumar, M. Saitow, X. Wang, B. P. Pritchard,
    P. Verma, H. F. Schaefer III, K. Patkowski, R. A. King, E. F. Valeev,
    F. A. Evangelista, J. M. Turney, T. D. Crawford, and C. D. Sherrill,
    J. Chem. Theory Comput. 13(7) pp 3185--3197 (2017).
    (doi: 10.1021/acs.jctc.7b00174)


                         Additional Contributions by
    P. Kraus, H. Kruse, M. H. Lechner, M. C. Schieber, R. A. Shaw,
    A. Alenaizan, R. Galvelis, Z. L. Glick, S. Lehtola, and J. P. Misiewicz

    -----------------------------------------------------------------------


    Psi4 started on: Tuesday, 19 April 2022 03:47PM

    Process ID: 5229
    Host:       atlantis
    PSIDATADIR: /home/akrom/software/anaconda3/envs/ffpenv/share/psi4
    Memory:     500.0 MiB
    Threads:    1
    
  ==> Input File <==

--------------------------------------------------------------------------
set basis  aug-cc-pVDZ
molecule {
0 1
   C        0.32153        0.81326        0.00000
   C       -0.86505       -0.12817        0.00000
   C        0.54353       -0.68508        0.00000
   H        0.53795        1.36069       -0.92039
   H        0.53795        1.36069        0.92039
   H       -1.44742       -0.21449        0.92034
   H       -1.44742       -0.21449       -0.92034
   H        0.90937       -1.14629       -0.92037
   H        0.90937       -1.14629        0.92037
}
energy('CCSD')
frequencies('CCSD')
--------------------------------------------------------------------------

*** tstart() called on atlantis
*** at Tue Apr 19 15:47:48 2022

   => Loading Basis Set <=

    Name: AUG-CC-PVDZ
    Role: ORBITAL
    Keyword: BASIS
    atoms 1-3 entry C          line   178 file /home/akrom/software/anaconda3/envs/ffpenv/share/psi4/basis/aug-cc-pvdz.gbs 
    atoms 4-9 entry H          line    36 file /home/akrom/software/anaconda3/envs/ffpenv/share/psi4/basis/aug-cc-pvdz.gbs 


         ---------------------------------------------------------
                                   SCF
               by Justin Turney, Rob Parrish, Andy Simmonett
                          and Daniel G. A. Smith
                              RHF Reference
                        1 Threads,    500 MiB Core
         ---------------------------------------------------------

  ==> Geometry <==

    Molecular point group: cs
    Full point group: Cs

    Geometry (in Angstrom), charge = 0, multiplicity = 1:

       Center              X                  Y                   Z               Mass       
    ------------   -----------------  -----------------  -----------------  -----------------
         C            0.321531939855     0.813261460475     0.000000000000    12.000000000000
         C           -0.865048060145    -0.128168539525     0.000000000000    12.000000000000
         C            0.543531939855    -0.685078539525     0.000000000000    12.000000000000
         H            0.537951939855     1.360691460475    -0.920390000000     1.007825032230
         H            0.537951939855     1.360691460475     0.920390000000     1.007825032230
         H           -1.447418060145    -0.214488539525     0.920340000000     1.007825032230
         H           -1.447418060145    -0.214488539525    -0.920340000000     1.007825032230
         H            0.909371939855    -1.146288539525    -0.920370000000     1.007825032230
         H            0.909371939855    -1.146288539525     0.920370000000     1.007825032230

  Running in cs symmetry.

  Rotational constants: A =      0.66472  B =      0.66470  C =      0.41647 [cm^-1]
  Rotational constants: A =  19927.70596  B =  19927.20236  C =  12485.44714 [MHz]
  Nuclear repulsion =   75.281464809014025

  Charge       = 0
  Multiplicity = 1
  Electrons    = 24
  Nalpha       = 12
  Nbeta        = 12

  ==> Algorithm <==

  SCF Algorithm Type is PK.
  DIIS enabled.
  MOM disabled.
  Fractional occupation disabled.
  Guess Type is SAD.
  Energy threshold   = 1.00e-08
  Density threshold  = 1.00e-08
  Integral threshold = 0.00e+00

  ==> Primary Basis <==

  Basis Set: AUG-CC-PVDZ
    Blend: AUG-CC-PVDZ
    Number of shells: 57
    Number of basis function: 123
    Number of Cartesian functions: 129
    Spherical Harmonics?: true
    Max angular momentum: 2

  ==> Pre-Iterations <==

   -------------------------------------------------------
    Irrep   Nso     Nmo     Nalpha   Nbeta   Ndocc  Nsocc
   -------------------------------------------------------
     A'        75      75       0       0       0       0
     A"        48      48       0       0       0       0
   -------------------------------------------------------
    Total     123     123      12      12      12       0
   -------------------------------------------------------

  ==> Integral Setup <==

  Using integral reordering PK algorithm.
  Sizing the integral batches needed.
  Building batch lookup table.
   Calculation information:
      Number of atoms:                   9
      Number of AO shells:              57
      Number of primitives:            117
      Number of atomic orbitals:       129
      Number of basis functions:       123

      Integral cutoff                 1.00e-12
      Number of threads:                 1

	Batch   1 pq = [       0,    7626] index = [             0,29081751] size =     29081751
  Task number: 3
  Buffer size: 11059200
  Buffer per thread: 2
  We computed 1430147 shell quartets total.
  Whereas there are 1367031 unique shell quartets.
     4.62 percent of shell quartets recomputed by reordering.

  ==> DiskJK: Disk-Based J/K Matrices <==

    J tasked:                  Yes
    K tasked:                  Yes
    wK tasked:                  No
    Memory [MiB]:              375
    Schwarz Cutoff:          1E-12

    OpenMP threads:              1

  Minimum eigenvalue in the overlap matrix is 1.0790838778E-04.
  Using Symmetric Orthogonalization.

  SCF Guess: Superposition of Atomic Densities via on-the-fly atomic UHF.

  ==> Iterations <==

                        Total Energy        Delta E     RMS |[F,P]|

   @RHF iter SAD:  -116.61777344184348   -1.16618e+02   0.00000e+00 
   @RHF iter   1:  -116.94408528542122   -3.26312e-01   5.08846e-03 DIIS
   @RHF iter   2:  -117.04248241544899   -9.83971e-02   2.52281e-03 DIIS
   @RHF iter   3:  -117.06934199749604   -2.68596e-02   3.77034e-04 DIIS
   @RHF iter   4:  -117.07050042521278   -1.15843e-03   4.73071e-05 DIIS
   @RHF iter   5:  -117.07052800774474   -2.75825e-05   1.07658e-05 DIIS
   @RHF iter   6:  -117.07052956226599   -1.55452e-06   1.81226e-06 DIIS
   @RHF iter   7:  -117.07052960718491   -4.49189e-08   2.45776e-07 DIIS
   @RHF iter   8:  -117.07052960795396   -7.69049e-10   3.20264e-08 DIIS
   @RHF iter   9:  -117.07052960796371   -9.74865e-12   5.90680e-09 DIIS
  Energy and wave function converged.


  ==> Post-Iterations <==

    Orbital Energies [Eh]
    ---------------------

    Doubly Occupied:                                                      

       1Ap   -11.233011     2Ap   -11.232049     3Ap   -11.232044  
       4Ap    -1.127115     5Ap    -0.814576     6Ap    -0.814570  
       1App   -0.662565     7Ap    -0.621808     2App   -0.509407  
       3App   -0.509392     8Ap    -0.416614     9Ap    -0.416606  

    Virtual:                                                              

      10Ap     0.040962     4App    0.048334    11Ap     0.051563  
      12Ap     0.051563     5App    0.074060     6App    0.074062  
      13Ap     0.118182    14Ap     0.119337    15Ap     0.119340  
      16Ap     0.154594    17Ap     0.154598    18Ap     0.159143  
       7App    0.169706    19Ap     0.186757     8App    0.198723  
       9App    0.198726    20Ap     0.220973    21Ap     0.220979  
      10App    0.296658    22Ap     0.297483    23Ap     0.314964  
      11App    0.338228    12App    0.338231    24Ap     0.369889  
      25Ap     0.369897    26Ap     0.376821    27Ap     0.441909  
      28Ap     0.441913    29Ap     0.455554    30Ap     0.455565  
      13App    0.470115    14App    0.470445    15App    0.477840  
      16App    0.477844    17App    0.543141    18App    0.543158  
      31Ap     0.551219    19App    0.578109    32Ap     0.609072  
      20App    0.610298    33Ap     0.611502    34Ap     0.611512  
      35Ap     0.612622    36Ap     0.643662    37Ap     0.643668  
      21App    0.682394    22App    0.682402    38Ap     0.702642  
      39Ap     0.702656    40Ap     0.728155    23App    0.740830  
      24App    0.740833    41Ap     0.781725    42Ap     0.781737  
      43Ap     0.790132    44Ap     0.825155    45Ap     0.825161  
      25App    0.902649    26App    0.902664    46Ap     0.965746  
      27App    0.975800    47Ap     1.152777    48Ap     1.152800  
      28App    1.195569    49Ap     1.223341    50Ap     1.223352  
      29App    1.232942    30App    1.232946    31App    1.309711  
      51Ap     1.391198    52Ap     1.535774    53Ap     1.632184  
      32App    1.633695    33App    1.633712    54Ap     1.673831  
      55Ap     1.673860    34App    1.789413    35App    1.789443  
      56Ap     1.873135    57Ap     1.873143    58Ap     1.896318  
      36App    1.960033    59Ap     1.991636    60Ap     1.991640  
      37App    1.996674    38App    2.042157    39App    2.077425  
      40App    2.077453    61Ap     2.195631    62Ap     2.195649  
      63Ap     2.225648    41App    2.314375    42App    2.314406  
      64Ap     2.317036    65Ap     2.317056    66Ap     2.329623  
      67Ap     2.558708    43App    2.600982    44App    2.601035  
      68Ap     2.608229    69Ap     2.641634    70Ap     2.641637  
      45App    2.772849    71Ap     2.821576    72Ap     2.821586  
      46App    2.923472    73Ap     3.055543    74Ap     3.138963  
      75Ap     3.139063    47App    3.237762    48App    3.237796  

    Final Occupation by Irrep:
             Ap   App 
    DOCC [     9,    3 ]

  @RHF Final Energy:  -117.07052960796371

   => Energetics <=

    Nuclear Repulsion Energy =             75.2814648090140253
    One-Electron Energy =                -305.5244757242714400
    Two-Electron Energy =                 113.1724813072936939
    Total Energy =                       -117.0705296079637066

Computation Completed


Properties will be evaluated at   0.000000,   0.000000,   0.000000 [a0]

Properties computed using the SCF density matrix

  Nuclear Dipole Moment: [e a0]
     X:    -0.0002      Y:    -0.0002      Z:     0.0000

  Electronic Dipole Moment: [e a0]
     X:     0.0002      Y:     0.0001      Z:     0.0000

  Dipole Moment: [e a0]
     X:    -0.0000      Y:    -0.0000      Z:     0.0000     Total:     0.0000

  Dipole Moment: [D]
     X:    -0.0001      Y:    -0.0001      Z:     0.0000     Total:     0.0001


*** tstop() called on atlantis at Tue Apr 19 15:47:53 2022
Module time:
	user time   =       3.60 seconds =       0.06 minutes
	system time =       1.63 seconds =       0.03 minutes
	total time  =          5 seconds =       0.08 minutes
Total time:
	user time   =       3.60 seconds =       0.06 minutes
	system time =       1.63 seconds =       0.03 minutes
	total time  =          5 seconds =       0.08 minutes
 MINTS: Wrapper to libmints.
   by Justin Turney

   Calculation information:
      Number of threads:                 1
      Number of atoms:                   9
      Number of AO shells:              57
      Number of SO shells:              42
      Number of primitives:            117
      Number of atomic orbitals:       129
      Number of basis functions:       123

      Number of irreps:                  2
      Integral cutoff                 0.00e+00
      Number of functions per irrep: [  75   48 ]

 OEINTS: Overlap, kinetic, potential, dipole, and quadrupole integrals
         stored in file 35.

      Computing two-electron integrals...done
      Computed 14547177 non-zero two-electron integrals.
        Stored in file 33.


*** tstart() called on atlantis
*** at Tue Apr 19 15:47:54 2022


	Wfn Parameters:
	--------------------
	Wavefunction         = CCSD
	Number of irreps     = 2
	Number of MOs        = 123
	Number of active MOs = 123
	AO-Basis             = NONE
	Semicanonical        = false
	Reference            = RHF
	Print Level          = 1

	IRREP	# MOs	# FZDC	# DOCC	# SOCC	# VIRT	# FZVR
	-----	-----	------	------	------	------	------
	 Ap	   75	    0	    9	    0	    66	    0
	 App	   48	    0	    3	    0	    45	    0
	Transforming integrals...
	IWL integrals will be deleted.
	(OO|OO)...
	Presorting SO-basis two-electron integrals.
	Sorting File: SO Ints (nn|nn) nbuckets = 1
	Transforming the one-electron integrals and constructing Fock matrices
	Starting first half-transformation.
	Sorting half-transformed integrals.
	First half integral transformation complete.
	Starting second half-transformation.
	Two-electron integral transformation complete.
	(OO|OV)...
	Starting second half-transformation.
	Two-electron integral transformation complete.
	(OO|VV)...
	Starting second half-transformation.
	Two-electron integral transformation complete.
	(OV|OO)...
	Starting first half-transformation.
	Sorting half-transformed integrals.
	First half integral transformation complete.
	Starting second half-transformation.
	Two-electron integral transformation complete.
	(OV|OV)...
	Starting second half-transformation.
	Two-electron integral transformation complete.
	(OV|VV)...
	Starting second half-transformation.
	Two-electron integral transformation complete.
	(VV|OO)...
	Starting first half-transformation.
	Sorting half-transformed integrals.
	First half integral transformation complete.
	Starting second half-transformation.
	Two-electron integral transformation complete.
	(VV|OV)...
	Starting second half-transformation.
	Two-electron integral transformation complete.
	(VV|VV)...
	Starting second half-transformation.
	Two-electron integral transformation complete.
	Frozen core energy     =      0.00000000000000

	Size of irrep 0 of <ab|cd> integrals:     40.717 (MW) /    325.737 (MB)
	Size of irrep 1 of <ab|cd> integrals:     35.284 (MW) /    282.269 (MB)
	Total:                                    76.001 (MW) /    608.006 (MB)

	Size of irrep 0 of <ia|bc> integrals:      4.652 (MW) /     37.214 (MB)
	Size of irrep 1 of <ia|bc> integrals:      3.582 (MW) /     28.655 (MB)
	Total:                                     8.234 (MW) /     65.869 (MB)

	Size of irrep 0 of tijab amplitudes:       0.574 (MW) /      4.594 (MB)
	Size of irrep 1 of tijab amplitudes:       0.321 (MW) /      2.566 (MB)
	Total:                                     0.895 (MW) /      7.160 (MB)

	Nuclear Rep. energy          =     75.28146480901403
	SCF energy                   =   -117.07052960796371
	One-electron energy          =   -305.52447645676096
	Two-electron energy          =    113.17248203978248
	Reference energy             =   -117.07052960796445

*** tstop() called on atlantis at Tue Apr 19 15:48:02 2022
Module time:
	user time   =       5.15 seconds =       0.09 minutes
	system time =       2.18 seconds =       0.04 minutes
	total time  =          8 seconds =       0.13 minutes
Total time:
	user time   =      10.05 seconds =       0.17 minutes
	system time =       3.89 seconds =       0.06 minutes
	total time  =         14 seconds =       0.23 minutes
            **************************
            *                        *
            *        CCENERGY        *
            *                        *
            **************************

    Nuclear Rep. energy (wfn)     =   75.281464809014025
    SCF energy          (wfn)     = -117.070529607963707
    Reference energy    (file100) = -117.070529607964446

    Input parameters:
    -----------------
    Wave function   =     CCSD
    Reference wfn   =     RHF
    Brueckner       =     No
    Memory (Mbytes) =     524.3
    Maxiter         =     50
    R_Convergence   =     1.0e-07
    E_Convergence   =     1.0e-06
    Restart         =     Yes
    DIIS            =     Yes
    AO Basis        =     NONE
    ABCD            =     NEW
    Cache Level     =     2
    Cache Type      =     LOW
    Print Level     =     1
    Num. of threads =     1
    # Amps to Print =     10
    Print MP2 Amps? =     No
    Analyze T2 Amps =     No
    Print Pair Ener =     No
    Local CC        =     No
    SCS-MP2         =     False
    SCSN-MP2        =     False
    SCS-CCSD        =     False

MP2 correlation energy -0.4488990160187130
                Solving CC Amplitude Equations
                ------------------------------
  Iter             Energy              RMS        T1Diag      D1Diag    New D1Diag    D2Diag
  ----     ---------------------    ---------   ----------  ----------  ----------   --------
     0        -0.448899016018713    0.000e+00    0.000000    0.000000    0.000000    0.136365
     1        -0.472506058863430    5.848e-02    0.005532    0.012871    0.012871    0.143536
     2        -0.485080720020739    1.870e-02    0.006260    0.014283    0.014283    0.150238
     3        -0.486288899472122    5.245e-03    0.006730    0.015471    0.015471    0.151538
     4        -0.486322848067622    1.454e-03    0.006761    0.015580    0.015580    0.151915
     5        -0.486360343541933    4.059e-04    0.006764    0.015574    0.015574    0.152011
     6        -0.486364244807685    1.155e-04    0.006764    0.015569    0.015569    0.152023
     7        -0.486363749794990    2.958e-05    0.006763    0.015566    0.015566    0.152023
     8        -0.486364206397065    8.095e-06    0.006763    0.015565    0.015565    0.152023
     9        -0.486364289616494    2.397e-06    0.006763    0.015565    0.015565    0.152023
    10        -0.486364210279360    7.794e-07    0.006763    0.015564    0.015564    0.152023
    11        -0.486364218617524    2.796e-07    0.006763    0.015564    0.015564    0.152023
    12        -0.486364214076498    7.561e-08    0.006763    0.015564    0.015564    0.152023

    Iterations converged.


    Largest TIA Amplitudes:
              9  72         0.0107274980
              9  81         0.0076540346
              6  12        -0.0055672924
              7  20         0.0055621216
              8  19        -0.0055616799
              7  40        -0.0055510842
              8  39         0.0055510270
              7  46        -0.0053700304
              8  47        -0.0053692283
              9  82         0.0052660070

    Largest TIjAb Amplitudes:
      7   7  13  13        -0.0372047404
      8   8  13  13        -0.0372040049
      7   7  13  22         0.0207292851
      7   7  22  13         0.0207292851
      8   8  13  22         0.0207134738
      8   8  22  13         0.0207134738
      7   7  22  22        -0.0133415011
      8   8  22  22        -0.0133230768
     10  10  72  72        -0.0131747930
     11  11  72  72        -0.0131747708

    SCF energy       (wfn)                    = -117.070529607963707
    Reference energy (file100)                = -117.070529607964446

    Opposite-spin MP2 correlation energy      =   -0.344185042045840
    Same-spin MP2 correlation energy          =   -0.104713973972873
    MP2 correlation energy                    =   -0.448899016018713
      * MP2 total energy                      = -117.519428623983160

    Opposite-spin CCSD correlation energy     =   -0.389318134125907
    Same-spin CCSD correlation energy         =   -0.097046079950591
    CCSD correlation energy                   =   -0.486364214076498
      * CCSD total energy                     = -117.556893822040948

gradient() will perform analytic gradient computation.

*** tstart() called on atlantis
*** at Tue Apr 19 15:48:11 2022

   => Loading Basis Set <=

    Name: AUG-CC-PVDZ
    Role: ORBITAL
    Keyword: BASIS
    atoms 1-3 entry C          line   178 file /home/akrom/software/anaconda3/envs/ffpenv/share/psi4/basis/aug-cc-pvdz.gbs 
    atoms 4-9 entry H          line    36 file /home/akrom/software/anaconda3/envs/ffpenv/share/psi4/basis/aug-cc-pvdz.gbs 


         ---------------------------------------------------------
                                   SCF
               by Justin Turney, Rob Parrish, Andy Simmonett
                          and Daniel G. A. Smith
                              RHF Reference
                        1 Threads,    500 MiB Core
         ---------------------------------------------------------

  ==> Geometry <==

    Molecular point group: cs
    Full point group: Cs

    Geometry (in Angstrom), charge = 0, multiplicity = 1:

       Center              X                  Y                   Z               Mass       
    ------------   -----------------  -----------------  -----------------  -----------------
         C            0.321531939855     0.813261460475     0.000000000000    12.000000000000
         C           -0.865048060145    -0.128168539525     0.000000000000    12.000000000000
         C            0.543531939855    -0.685078539525     0.000000000000    12.000000000000
         H            0.537951939855     1.360691460475    -0.920390000000     1.007825032230
         H            0.537951939855     1.360691460475     0.920390000000     1.007825032230
         H           -1.447418060145    -0.214488539525     0.920340000000     1.007825032230
         H           -1.447418060145    -0.214488539525    -0.920340000000     1.007825032230
         H            0.909371939855    -1.146288539525    -0.920370000000     1.007825032230
         H            0.909371939855    -1.146288539525     0.920370000000     1.007825032230

  Running in cs symmetry.

  Rotational constants: A =      0.66472  B =      0.66470  C =      0.41647 [cm^-1]
  Rotational constants: A =  19927.70596  B =  19927.20236  C =  12485.44714 [MHz]
  Nuclear repulsion =   75.281464809014025

  Charge       = 0
  Multiplicity = 1
  Electrons    = 24
  Nalpha       = 12
  Nbeta        = 12

  ==> Algorithm <==

  SCF Algorithm Type is PK.
  DIIS enabled.
  MOM disabled.
  Fractional occupation disabled.
  Guess Type is SAD.
  Energy threshold   = 1.00e-10
  Density threshold  = 1.00e-10
  Integral threshold = 0.00e+00

  ==> Primary Basis <==

  Basis Set: AUG-CC-PVDZ
    Blend: AUG-CC-PVDZ
    Number of shells: 57
    Number of basis function: 123
    Number of Cartesian functions: 129
    Spherical Harmonics?: true
    Max angular momentum: 2

  ==> Pre-Iterations <==

   -------------------------------------------------------
    Irrep   Nso     Nmo     Nalpha   Nbeta   Ndocc  Nsocc
   -------------------------------------------------------
     A'        75      75       0       0       0       0
     A"        48      48       0       0       0       0
   -------------------------------------------------------
    Total     123     123      12      12      12       0
   -------------------------------------------------------

  ==> Integral Setup <==

  Using integral reordering PK algorithm.
  Sizing the integral batches needed.
  Building batch lookup table.
   Calculation information:
      Number of atoms:                   9
      Number of AO shells:              57
      Number of primitives:            117
      Number of atomic orbitals:       129
      Number of basis functions:       123

      Integral cutoff                 1.00e-12
      Number of threads:                 1

	Batch   1 pq = [       0,    7626] index = [             0,29081751] size =     29081751
  Task number: 3
  Buffer size: 11059200
  Buffer per thread: 2
  We computed 1430147 shell quartets total.
  Whereas there are 1367031 unique shell quartets.
     4.62 percent of shell quartets recomputed by reordering.

  ==> DiskJK: Disk-Based J/K Matrices <==

    J tasked:                  Yes
    K tasked:                  Yes
    wK tasked:                  No
    Memory [MiB]:              375
    Schwarz Cutoff:          1E-12

    OpenMP threads:              1

  Minimum eigenvalue in the overlap matrix is 1.0790838778E-04.
  Using Symmetric Orthogonalization.

  SCF Guess: Superposition of Atomic Densities via on-the-fly atomic UHF.

  ==> Iterations <==

                        Total Energy        Delta E     RMS |[F,P]|

   @RHF iter SAD:  -116.61777344184348   -1.16618e+02   0.00000e+00 
   @RHF iter   1:  -116.94408528542104   -3.26312e-01   5.08846e-03 DIIS
   @RHF iter   2:  -117.04248241544866   -9.83971e-02   2.52281e-03 DIIS
   @RHF iter   3:  -117.06934199749624   -2.68596e-02   3.77034e-04 DIIS
   @RHF iter   4:  -117.07050042521256   -1.15843e-03   4.73071e-05 DIIS
   @RHF iter   5:  -117.07052800774467   -2.75825e-05   1.07658e-05 DIIS
   @RHF iter   6:  -117.07052956226579   -1.55452e-06   1.81226e-06 DIIS
   @RHF iter   7:  -117.07052960718502   -4.49192e-08   2.45776e-07 DIIS
   @RHF iter   8:  -117.07052960795325   -7.68225e-10   3.20264e-08 DIIS
   @RHF iter   9:  -117.07052960796372   -1.04734e-11   5.90680e-09 DIIS
   @RHF iter  10:  -117.07052960796427   -5.54223e-13   9.92405e-10 DIIS
   @RHF iter  11:  -117.07052960796405    2.27374e-13   3.61622e-10 DIIS
   @RHF iter  12:  -117.07052960796415   -9.94760e-14   2.92720e-11 DIIS
  Energy and wave function converged.


  ==> Post-Iterations <==

    Orbital Energies [Eh]
    ---------------------

    Doubly Occupied:                                                      

       1Ap   -11.233011     2Ap   -11.232049     3Ap   -11.232044  
       4Ap    -1.127115     5Ap    -0.814576     6Ap    -0.814570  
       1App   -0.662565     7Ap    -0.621808     2App   -0.509407  
       3App   -0.509392     8Ap    -0.416614     9Ap    -0.416606  

    Virtual:                                                              

      10Ap     0.040962     4App    0.048334    11Ap     0.051563  
      12Ap     0.051563     5App    0.074060     6App    0.074062  
      13Ap     0.118182    14Ap     0.119337    15Ap     0.119340  
      16Ap     0.154594    17Ap     0.154598    18Ap     0.159143  
       7App    0.169706    19Ap     0.186757     8App    0.198723  
       9App    0.198726    20Ap     0.220973    21Ap     0.220979  
      10App    0.296658    22Ap     0.297483    23Ap     0.314964  
      11App    0.338228    12App    0.338231    24Ap     0.369889  
      25Ap     0.369897    26Ap     0.376821    27Ap     0.441909  
      28Ap     0.441913    29Ap     0.455554    30Ap     0.455565  
      13App    0.470115    14App    0.470445    15App    0.477840  
      16App    0.477844    17App    0.543141    18App    0.543158  
      31Ap     0.551219    19App    0.578109    32Ap     0.609072  
      20App    0.610298    33Ap     0.611502    34Ap     0.611512  
      35Ap     0.612622    36Ap     0.643662    37Ap     0.643668  
      21App    0.682394    22App    0.682402    38Ap     0.702642  
      39Ap     0.702656    40Ap     0.728155    23App    0.740830  
      24App    0.740833    41Ap     0.781725    42Ap     0.781737  
      43Ap     0.790132    44Ap     0.825155    45Ap     0.825161  
      25App    0.902649    26App    0.902664    46Ap     0.965746  
      27App    0.975800    47Ap     1.152777    48Ap     1.152800  
      28App    1.195569    49Ap     1.223341    50Ap     1.223352  
      29App    1.232942    30App    1.232946    31App    1.309711  
      51Ap     1.391198    52Ap     1.535774    53Ap     1.632184  
      32App    1.633695    33App    1.633712    54Ap     1.673831  
      55Ap     1.673860    34App    1.789413    35App    1.789443  
      56Ap     1.873135    57Ap     1.873143    58Ap     1.896318  
      36App    1.960033    59Ap     1.991636    60Ap     1.991640  
      37App    1.996674    38App    2.042157    39App    2.077425  
      40App    2.077453    61Ap     2.195631    62Ap     2.195649  
      63Ap     2.225648    41App    2.314375    42App    2.314406  
      64Ap     2.317036    65Ap     2.317056    66Ap     2.329623  
      67Ap     2.558708    43App    2.600982    44App    2.601035  
      68Ap     2.608229    69Ap     2.641634    70Ap     2.641637  
      45App    2.772849    71Ap     2.821576    72Ap     2.821586  
      46App    2.923472    73Ap     3.055543    74Ap     3.138963  
      75Ap     3.139063    47App    3.237762    48App    3.237796  

    Final Occupation by Irrep:
             Ap   App 
    DOCC [     9,    3 ]

  @RHF Final Energy:  -117.07052960796415

   => Energetics <=

    Nuclear Repulsion Energy =             75.2814648090140253
    One-Electron Energy =                -305.5244763902059617
    Two-Electron Energy =                 113.1724819732277751
    Total Energy =                       -117.0705296079641471

Computation Completed


Properties will be evaluated at   0.000000,   0.000000,   0.000000 [a0]

Properties computed using the SCF density matrix

  Nuclear Dipole Moment: [e a0]
     X:    -0.0002      Y:    -0.0002      Z:     0.0000

  Electronic Dipole Moment: [e a0]
     X:     0.0002      Y:     0.0001      Z:     0.0000

  Dipole Moment: [e a0]
     X:    -0.0000      Y:    -0.0000      Z:     0.0000     Total:     0.0000

  Dipole Moment: [D]
     X:    -0.0001      Y:    -0.0001      Z:     0.0000     Total:     0.0001


*** tstop() called on atlantis at Tue Apr 19 15:48:16 2022
Module time:
	user time   =       3.72 seconds =       0.06 minutes
	system time =       1.89 seconds =       0.03 minutes
	total time  =          5 seconds =       0.08 minutes
Total time:
	user time   =      19.94 seconds =       0.33 minutes
	system time =       8.66 seconds =       0.14 minutes
	total time  =         28 seconds =       0.47 minutes
 MINTS: Wrapper to libmints.
   by Justin Turney

   Calculation information:
      Number of threads:                 1
      Number of atoms:                   9
      Number of AO shells:              57
      Number of SO shells:              42
      Number of primitives:            117
      Number of atomic orbitals:       129
      Number of basis functions:       123

      Number of irreps:                  2
      Integral cutoff                 0.00e+00
      Number of functions per irrep: [  75   48 ]

 OEINTS: Overlap, kinetic, potential, dipole, and quadrupole integrals
         stored in file 35.

      Computing two-electron integrals...done
      Computed 14547062 non-zero two-electron integrals.
        Stored in file 33.


*** tstart() called on atlantis
*** at Tue Apr 19 15:48:18 2022


	Wfn Parameters:
	--------------------
	Wavefunction         = CCSD
	Number of irreps     = 2
	Number of MOs        = 123
	Number of active MOs = 123
	AO-Basis             = NONE
	Semicanonical        = false
	Reference            = RHF
	Print Level          = 1

	IRREP	# MOs	# FZDC	# DOCC	# SOCC	# VIRT	# FZVR
	-----	-----	------	------	------	------	------
	 Ap	   75	    0	    9	    0	    66	    0
	 App	   48	    0	    3	    0	    45	    0
	Transforming integrals...
	IWL integrals will be deleted.
	(OO|OO)...
	Presorting SO-basis two-electron integrals.
	Sorting File: SO Ints (nn|nn) nbuckets = 1
	Transforming the one-electron integrals and constructing Fock matrices
	Starting first half-transformation.
	Sorting half-transformed integrals.
	First half integral transformation complete.
	Starting second half-transformation.
	Two-electron integral transformation complete.
	(OO|OV)...
	Starting second half-transformation.
	Two-electron integral transformation complete.
	(OO|VV)...
	Starting second half-transformation.
	Two-electron integral transformation complete.
	(OV|OO)...
	Starting first half-transformation.
	Sorting half-transformed integrals.
	First half integral transformation complete.
	Starting second half-transformation.
	Two-electron integral transformation complete.
	(OV|OV)...
	Starting second half-transformation.
	Two-electron integral transformation complete.
	(OV|VV)...
	Starting second half-transformation.
	Two-electron integral transformation complete.
	(VV|OO)...
	Starting first half-transformation.
	Sorting half-transformed integrals.
	First half integral transformation complete.
	Starting second half-transformation.
	Two-electron integral transformation complete.
	(VV|OV)...
	Starting second half-transformation.
	Two-electron integral transformation complete.
	(VV|VV)...
	Starting second half-transformation.
	Two-electron integral transformation complete.
	Frozen core energy     =      0.00000000000000

	Size of irrep 0 of <ab|cd> integrals:     40.717 (MW) /    325.737 (MB)
	Size of irrep 1 of <ab|cd> integrals:     35.284 (MW) /    282.269 (MB)
	Total:                                    76.001 (MW) /    608.006 (MB)

	Size of irrep 0 of <ia|bc> integrals:      4.652 (MW) /     37.214 (MB)
	Size of irrep 1 of <ia|bc> integrals:      3.582 (MW) /     28.655 (MB)
	Total:                                     8.234 (MW) /     65.869 (MB)

	Size of irrep 0 of tijab amplitudes:       0.574 (MW) /      4.594 (MB)
	Size of irrep 1 of tijab amplitudes:       0.321 (MW) /      2.566 (MB)
	Total:                                     0.895 (MW) /      7.160 (MB)

	Nuclear Rep. energy          =     75.28146480901403
	SCF energy                   =   -117.07052960796415
	One-electron energy          =   -305.52447639164359
	Two-electron energy          =    113.17248197466554
	Reference energy             =   -117.07052960796402

*** tstop() called on atlantis at Tue Apr 19 15:48:25 2022
Module time:
	user time   =       5.35 seconds =       0.09 minutes
	system time =       1.55 seconds =       0.03 minutes
	total time  =          7 seconds =       0.12 minutes
Total time:
	user time   =      26.65 seconds =       0.44 minutes
	system time =      10.24 seconds =       0.17 minutes
	total time  =         37 seconds =       0.62 minutes
            **************************
            *                        *
            *        CCENERGY        *
            *                        *
            **************************

    Nuclear Rep. energy (wfn)     =   75.281464809014025
    SCF energy          (wfn)     = -117.070529607964147
    Reference energy    (file100) = -117.070529607964019

    Input parameters:
    -----------------
    Wave function   =     CCSD
    Reference wfn   =     RHF
    Brueckner       =     No
    Memory (Mbytes) =     524.3
    Maxiter         =     50
    R_Convergence   =     1.0e-07
    E_Convergence   =     1.0e-08
    Restart         =     Yes
    DIIS            =     Yes
    AO Basis        =     NONE
    ABCD            =     NEW
    Cache Level     =     2
    Cache Type      =     LOW
    Print Level     =     1
    Num. of threads =     1
    # Amps to Print =     10
    Print MP2 Amps? =     No
    Analyze T2 Amps =     No
    Print Pair Ener =     No
    Local CC        =     No
    SCS-MP2         =     False
    SCSN-MP2        =     False
    SCS-CCSD        =     False

    Using old T1 amplitudes.
    Using old T2 amplitudes.

MP2 correlation energy -0.4488990136269878
                Solving CC Amplitude Equations
                ------------------------------
  Iter             Energy              RMS        T1Diag      D1Diag    New D1Diag    D2Diag
  ----     ---------------------    ---------   ----------  ----------  ----------   --------
     0        -0.486364010795188    0.000e+00    0.006763    0.015564    0.015564    0.152023
     1        -0.486364204853837    2.901e-04    0.006763    0.015564    0.015564    0.152023
     2        -0.486364206219119    4.749e-05    0.006763    0.015564    0.015564    0.152023
     3        -0.486364209583258    1.027e-05    0.006763    0.015564    0.015564    0.152023
     4        -0.486364210095898    3.287e-06    0.006763    0.015564    0.015564    0.152023
     5        -0.486364210043640    8.238e-07    0.006763    0.015564    0.015564    0.152023
     6        -0.486364210067200    2.410e-07    0.006763    0.015564    0.015564    0.152023
     7        -0.486364210065267    6.474e-08    0.006763    0.015564    0.015564    0.152023

    Iterations converged.


    Largest TIA Amplitudes:
              9  72         0.0107274979
              9  81         0.0076540337
              6  12        -0.0055672925
              7  20         0.0055613722
              8  19        -0.0055609301
              7  40        -0.0055501775
              8  39         0.0055501203
              7  46        -0.0053704226
              8  47        -0.0053696208
              9  82         0.0052660083

    Largest TIjAb Amplitudes:
      7   7  13  13        -0.0372047360
      8   8  13  13        -0.0372040040
      7   7  13  22         0.0207292713
      7   7  22  13         0.0207292713
      8   8  13  22         0.0207134859
      8   8  22  13         0.0207134859
      7   7  22  22        -0.0133414864
      8   8  22  22        -0.0133230912
     10  10  72  72        -0.0131747907
     11  11  72  72        -0.0131747701

    SCF energy       (wfn)                    = -117.070529607964147
    Reference energy (file100)                = -117.070529607964019

    Opposite-spin MP2 correlation energy      =   -0.344185039894787
    Same-spin MP2 correlation energy          =   -0.104713973732201
    MP2 correlation energy                    =   -0.448899013626988
      * MP2 total energy                      = -117.519428621591004

    Opposite-spin CCSD correlation energy     =   -0.389318128528071
    Same-spin CCSD correlation energy         =   -0.097046081537196
    CCSD correlation energy                   =   -0.486364210065267
      * CCSD total energy                     = -117.556893818029280


			**************************
			*                        *
			*         CCHBAR         *
			*                        *
			**************************


			**************************
			*        CCLAMBDA        *
			**************************


	Nuclear Rep. energy (wfn)     =   75.281464809014025
	Reference           (wfn)     =                    0
	SCF energy          (wfn)     = -117.070529607964147
	Reference energy    (CC_INFO) = -117.070529607964019
	CCSD energy         (CC_INFO) =   -0.486364210065267
	Total CCSD energy   (CC_INFO) = -117.556893818029280

	Input parameters:
	-----------------
	Maxiter           =     50
	Convergence       = 1.0e-07
	Restart           =     No
	Cache Level       =     2
	Model III         =     No
	DIIS              =     Yes
	AO Basis          =     No
	ABCD              =     NEW
	Local CC          =     No
	Parameters for left-handed eigenvectors:
	    Irr   Root  Ground-State?    EOM energy        R0
	  1   0     0        Yes       0.0000000000   1.0000000000
	Labels for eigenvector 1:
	LIA 0 -1, Lia 0 -1, LIJAB 0 -1, Lijab 0 -1, LIjAb 0 -1, 2LIjAb - LIjbA 0 -1
	Symmetry of left-hand state: Ap
	Symmetry of left-hand eigenvector: Ap

	          Solving Lambda Equations
	          ------------------------
	Iter     PseudoEnergy or Norm         RMS  
	----     ---------------------     --------
	   0        -0.486375927633279    0.000e+00
	   1        -0.473756742180587    1.341e-02
	   2        -0.472140483076288    3.169e-03
	   3        -0.471872321081954    9.259e-04
	   4        -0.471890999041457    2.221e-04
	   5        -0.471895084745304    7.093e-05
	   6        -0.471894132049375    2.139e-05
	   7        -0.471894242750912    6.969e-06
	   8        -0.471894283018149    2.055e-06
	   9        -0.471894280257005    5.932e-07
	  10        -0.471894286807683    1.606e-07
	  11        -0.471894283329500    4.385e-08

	Largest LIA Amplitudes:
	          9  72         0.0082762365
	          9  81         0.0055865891
	          7  46        -0.0045988975
	          8  47        -0.0045981856
	          8  39         0.0044163508
	          7  40        -0.0044163443
	          9  82         0.0043248003
	          8  51        -0.0042128810
	          7  52         0.0042127858
	          6  12        -0.0041416430

	Largest LIjAb Amplitudes:
	  7   7  13  13        -0.0353019998
	  8   8  13  13        -0.0353012897
	  7   7  13  22         0.0197160642
	  7   7  22  13         0.0197160642
	  8   8  13  22         0.0197010375
	  8   8  22  13         0.0197010375
	  7   7  22  22        -0.0127353425
	  8   8  22  22        -0.0127177823
	 10  10  72  72        -0.0126877789
	 11  11  72  72        -0.0126877519

	Iterations converged.

	Overlap <L|e^T> =        0.81564541406

			**************************
			*                        *
			*        CCDENSITY       *
			*                        *
			**************************


	Input parameters:
	-----------------
	Wave function    =   CCSD
	Reference wfn    =   RHF
	Dertype          = 1
	Tolerance        = 1.0e-14
	Cache Level      = 2
	AO Basis         = No
	OPDM Only        = No
	Relax OPDM       = Yes
	Compute Xi       = No
	Use Zeta         = No
	Xi connected     = Yes
	Compute NO       = No

	Nuclear Rep. energy (wfn)     =   75.281464809014025
	SCF energy          (wfn)     = -117.070529607964147
	Reference energy    (file100) = -117.070529607964019
	CCSD energy         (CC_INFO) =   -0.486364210065267
	Total CCSD energy   (CC_INFO) = -117.556893818029280
	Number of States = 1

	Ground?  State     EOM Energy       R0
	  Yes     0 Ap    0.0000000000   1.00000000

	Virial Theorem Data:
	--------------------
	Kinetic energy (ref)   =  116.815323617822500
	Kinetic energy (corr)  =    0.437950237984510
	Kinetic energy (total) =  117.253273855807009
	-V/T (ref)             =    2.002184696170311
	-V/T (corr)            =    2.110546742259035
	-V/T (total)           =    2.002589436970397

	DPD File4 Cache Listing:

Cache Label            DPD File symm  pq  rs  use acc clean    pri lock size(kB)
--------------------------------------------------------------------------------
--------------------------------------------------------------------------------
Total cached:      0.0 kB; MRU =    380; LRU =    280
#LRU deletions =     20; #Low-priority deletions =      0
Core max size:   524288.0 kB
Core used:       325788.3 kB
Core available:  198499.7 kB
Core cached:          0.0 kB
Locked cached:        0.0 kB
Most recent entry  = 380
Least recent entry = 280
dpd_block_matrix: n = 6381  m = 6381
Error in: dpd_block_matrix: No memory left.
