
    -----------------------------------------------------------------------
          Psi4: An Open-Source Ab Initio Electronic Structure Package
                               Psi4 1.3.2 release

                         Git: Rev {HEAD} ecbda83 


    R. M. Parrish, L. A. Burns, D. G. A. Smith, A. C. Simmonett,
    A. E. DePrince III, E. G. Hohenstein, U. Bozkaya, A. Yu. Sokolov,
    R. Di Remigio, R. M. Richard, J. F. Gonthier, A. M. James,
    H. R. McAlexander, A. Kumar, M. Saitow, X. Wang, B. P. Pritchard,
    P. Verma, H. F. Schaefer III, K. Patkowski, R. A. King, E. F. Valeev,
    F. A. Evangelista, J. M. Turney, T. D. Crawford, and C. D. Sherrill,
    J. Chem. Theory Comput. 13(7) pp 3185--3197 (2017).
    (doi: 10.1021/acs.jctc.7b00174)


                         Additional Contributions by
    P. Kraus, H. Kruse, M. H. Lechner, M. C. Schieber, R. A. Shaw,
    A. Alenaizan, R. Galvelis, Z. L. Glick, S. Lehtola, and J. P. Misiewicz

    -----------------------------------------------------------------------


    Psi4 started on: Tuesday, 19 April 2022 01:44AM

    Process ID: 25806
    Host:       atlantis
    PSIDATADIR: /home/akrom/software/anaconda3/envs/ffpenv/share/psi4
    Memory:     500.0 MiB
    Threads:    1
    
  ==> Input File <==

--------------------------------------------------------------------------
set basis  aug-cc-pVTZ
molecule {
0 1
   C       -0.61446        0.00000        0.00000
   C        0.61446        0.00000        0.00000
   H       -1.68923        0.00000        0.00000
   H        1.68923        0.00000        0.00000
}
energy('MP2')
frequencies('MP2')
--------------------------------------------------------------------------
    SCF Algorithm Type (re)set to DF.

*** tstart() called on atlantis
*** at Tue Apr 19 01:44:29 2022

   => Loading Basis Set <=

    Name: AUG-CC-PVTZ
    Role: ORBITAL
    Keyword: BASIS
    atoms 1-2 entry C          line   235 file /home/akrom/software/anaconda3/envs/ffpenv/share/psi4/basis/aug-cc-pvtz.gbs 
    atoms 3-4 entry H          line    36 file /home/akrom/software/anaconda3/envs/ffpenv/share/psi4/basis/aug-cc-pvtz.gbs 


         ---------------------------------------------------------
                                   SCF
               by Justin Turney, Rob Parrish, Andy Simmonett
                          and Daniel G. A. Smith
                              RHF Reference
                        1 Threads,    500 MiB Core
         ---------------------------------------------------------

  ==> Geometry <==

    Molecular point group: d2h
    Full point group: D_inf_h

    Geometry (in Angstrom), charge = 0, multiplicity = 1:

       Center              X                  Y                   Z               Mass       
    ------------   -----------------  -----------------  -----------------  -----------------
         C           -0.614460000000    -0.000000000000     0.000000000000    12.000000000000
         C            0.614460000000     0.000000000000     0.000000000000    12.000000000000
         H           -1.689230000000    -0.000000000000     0.000000000000     1.007825032230
         H            1.689230000000     0.000000000000     0.000000000000     1.007825032230

  Running in d2h symmetry.

  Rotational constants: A = ************  B =      1.13802  C =      1.13802 [cm^-1]
  Rotational constants: A = ************  B =  34116.98697  C =  34116.98697 [MHz]
  Nuclear repulsion =   24.323218171379235

  Charge       = 0
  Multiplicity = 1
  Electrons    = 14
  Nalpha       = 7
  Nbeta        = 7

  ==> Algorithm <==

  SCF Algorithm Type is DF.
  DIIS enabled.
  MOM disabled.
  Fractional occupation disabled.
  Guess Type is SAD.
  Energy threshold   = 1.00e-08
  Density threshold  = 1.00e-08
  Integral threshold = 0.00e+00

  ==> Primary Basis <==

  Basis Set: AUG-CC-PVTZ
    Blend: AUG-CC-PVTZ
    Number of shells: 46
    Number of basis function: 138
    Number of Cartesian functions: 160
    Spherical Harmonics?: true
    Max angular momentum: 3

   => Loading Basis Set <=

    Name: (AUG-CC-PVTZ AUX)
    Role: JKFIT
    Keyword: DF_BASIS_SCF
    atoms 1-2 entry C          line   162 file /home/akrom/software/anaconda3/envs/ffpenv/share/psi4/basis/aug-cc-pvtz-jkfit.gbs 
    atoms 3-4 entry H          line    70 file /home/akrom/software/anaconda3/envs/ffpenv/share/psi4/basis/aug-cc-pvtz-jkfit.gbs 

  ==> Pre-Iterations <==

   -------------------------------------------------------
    Irrep   Nso     Nmo     Nalpha   Nbeta   Ndocc  Nsocc
   -------------------------------------------------------
     Ag        30      30       0       0       0       0
     B1g       16      16       0       0       0       0
     B2g       16      16       0       0       0       0
     B3g        7       7       0       0       0       0
     Au         7       7       0       0       0       0
     B1u       16      16       0       0       0       0
     B2u       16      16       0       0       0       0
     B3u       30      30       0       0       0       0
   -------------------------------------------------------
    Total     138     138       7       7       7       0
   -------------------------------------------------------

  ==> Integral Setup <==

  DFHelper Memory: AOs need 0.047 GiB; user supplied 0.366 GiB. Using in-core AOs.

  ==> MemDFJK: Density-Fitted J/K Matrices <==

    J tasked:                   Yes
    K tasked:                   Yes
    wK tasked:                   No
    OpenMP threads:               1
    Memory [MiB]:               375
    Algorithm:                 Core
    Schwarz Cutoff:           1E-12
    Mask sparsity (%):       0.0420
    Fitting Condition:        1E-10

   => Auxiliary Basis Set <=

  Basis Set: (AUG-CC-PVTZ AUX)
    Blend: AUG-CC-PVTZ-JKFIT
    Number of shells: 88
    Number of basis function: 300
    Number of Cartesian functions: 372
    Spherical Harmonics?: true
    Max angular momentum: 4

  Minimum eigenvalue in the overlap matrix is 9.1550632594E-06.
  Using Symmetric Orthogonalization.

  SCF Guess: Superposition of Atomic Densities via on-the-fly atomic UHF.

  ==> Iterations <==

                           Total Energy        Delta E     RMS |[F,P]|

   @DF-RHF iter SAD:   -75.85137118630655   -7.58514e+01   0.00000e+00 
   @DF-RHF iter   1:   -76.79956036564043   -9.48189e-01   5.54849e-03 DIIS
   @DF-RHF iter   2:   -76.84014496003456   -4.05846e-02   1.94973e-03 DIIS
   @DF-RHF iter   3:   -76.84559766635655   -5.45271e-03   2.24846e-04 DIIS
   @DF-RHF iter   4:   -76.84575243485136   -1.54768e-04   2.52926e-05 DIIS
   @DF-RHF iter   5:   -76.84575458183231   -2.14698e-06   4.07950e-06 DIIS
   @DF-RHF iter   6:   -76.84575463810947   -5.62772e-08   7.38342e-07 DIIS
   @DF-RHF iter   7:   -76.84575464015563   -2.04616e-09   1.26571e-07 DIIS
   @DF-RHF iter   8:   -76.84575464023095   -7.53175e-11   1.27431e-08 DIIS
   @DF-RHF iter   9:   -76.84575464023160   -6.53699e-13   1.45199e-09 DIIS
  Energy and wave function converged.


  ==> Post-Iterations <==

    Orbital Energies [Eh]
    ---------------------

    Doubly Occupied:                                                      

       1Ag   -11.253582     1B3u  -11.250330     2Ag    -1.022834  
       2B3u   -0.767057     3Ag    -0.676898     1B1u   -0.405335  
       1B2u   -0.405335  

    Virtual:                                                              

       4Ag     0.030947     3B3u    0.032437     1B1g    0.091836  
       1B2g    0.091836     2B1u    0.096398     2B2u    0.096398  
       5Ag     0.107472     4B3u    0.110718     6Ag     0.143083  
       2B1g    0.185709     2B2g    0.185709     5B3u    0.225360  
       6B3u    0.256536     3B2u    0.275640     3B1u    0.275640  
       7Ag     0.280943     1B3g    0.300265     8Ag     0.300265  
       9Ag     0.377084     3B2g    0.384507     3B1g    0.384507  
       7B3u    0.399556     1Au     0.399556    10Ag     0.412637  
       8B3u    0.412950     4B1g    0.423818     4B2g    0.423818  
       4B2u    0.493019     4B1u    0.493019     9B3u    0.509801  
      10B3u    0.586117     5B2u    0.598104     5B1u    0.598104  
      11Ag     0.658648     5B1g    0.842495     5B2g    0.842495  
      12Ag     0.886636     2B3g    0.893251    13Ag     0.893251  
      11B3u    0.899851     6B1u    0.933760     6B2u    0.933760  
      14Ag     0.981516     3B3g    1.006387    15Ag     1.006387  
      12B3u    1.024713     2Au     1.024713     6B1g    1.027004  
       6B2g    1.027004    13B3u    1.028834     7B1u    1.052091  
       7B2u    1.052091    16Ag     1.137419     8B2u    1.175788  
       8B1u    1.175788    14B3u    1.193961     3Au     1.193961  
      15B3u    1.199053     7B1g    1.293965     7B2g    1.293965  
      16B3u    1.347760     8B1g    1.387561     8B2g    1.387561  
       9B2u    1.574427     9B1u    1.574427     4B3g    1.626890  
      17Ag     1.626890     9B1g    1.763383     9B2g    1.763383  
      18Ag     1.776384    10B2u    1.899737    10B1u    1.899737  
      17B3u    1.931374    18B3u    2.019255     4Au     2.019255  
      19Ag     2.022236    19B3u    2.147063    20Ag     2.206309  
      10B1g    2.344213    10B2g    2.344213    20B3u    2.789273  
      11B1u    2.804534    11B2u    2.804534    21Ag     3.006900  
      21B3u    3.088163     5B3g    3.179933    22Ag     3.179933  
      11B1g    3.194660    11B2g    3.194660    12B2u    3.315516  
      12B1u    3.315516    13B2u    3.369499    13B1u    3.369499  
      22B3u    3.446899     5Au     3.446899    23Ag     3.566191  
       6B3g    3.566191    24Ag     3.595342    12B1g    3.687653  
      12B2g    3.687653    25Ag     3.720712    14B2u    3.782149  
      14B1u    3.782149    13B1g    3.855984    13B2g    3.855984  
      23B3u    3.870619    24B3u    4.086547     6Au     4.086547  
      26Ag     4.146694     7B3g    4.146694    25B3u    4.315780  
      26B3u    4.632695     7Au     4.632695    27Ag     4.637104  
      15B2u    4.746933    15B1u    4.746933    14B1g    4.758669  
      14B2g    4.758669    15B1g    4.979582    15B2g    4.979582  
      27B3u    5.256231    28Ag     5.371839    16B2u    5.768353  
      16B1u    5.768353    28B3u    6.163929    29B3u    6.686617  
      16B1g    6.729164    16B2g    6.729164    29Ag     6.895249  
      30Ag    13.446464    30B3u   18.919517  

    Final Occupation by Irrep:
             Ag   B1g   B2g   B3g    Au   B1u   B2u   B3u 
    DOCC [     3,    0,    0,    0,    0,    1,    1,    2 ]

  @DF-RHF Final Energy:   -76.84575464023160

   => Energetics <=

    Nuclear Repulsion Energy =             24.3232181713792350
    One-Electron Energy =                -150.7752015293806380
    Two-Electron Energy =                  49.6062287177698025
    Total Energy =                        -76.8457546402316041

Computation Completed


Properties will be evaluated at   0.000000,   0.000000,   0.000000 [a0]

Properties computed using the SCF density matrix

  Nuclear Dipole Moment: [e a0]
     X:     0.0000      Y:     0.0000      Z:     0.0000

  Electronic Dipole Moment: [e a0]
     X:     0.0000      Y:     0.0000      Z:     0.0000

  Dipole Moment: [e a0]
     X:     0.0000      Y:     0.0000      Z:     0.0000     Total:     0.0000

  Dipole Moment: [D]
     X:     0.0000      Y:     0.0000      Z:     0.0000     Total:     0.0000


*** tstop() called on atlantis at Tue Apr 19 01:44:30 2022
Module time:
	user time   =       0.76 seconds =       0.01 minutes
	system time =       0.03 seconds =       0.00 minutes
	total time  =          1 seconds =       0.02 minutes
Total time:
	user time   =       0.76 seconds =       0.01 minutes
	system time =       0.03 seconds =       0.00 minutes
	total time  =          1 seconds =       0.02 minutes

*** tstart() called on atlantis
*** at Tue Apr 19 01:44:30 2022


  //>>>>>>>>>>>>>>>>>>>>>>>>>>>>>>>>>>>//
  //               DFMP2               //
  //<<<<<<<<<<<<<<<<<<<<<<<<<<<<<<<<<<<//

   => Loading Basis Set <=

    Name: (AUG-CC-PVTZ AUX)
    Role: RIFIT
    Keyword: DF_BASIS_MP2
    atoms 1-2 entry C          line   148 file /home/akrom/software/anaconda3/envs/ffpenv/share/psi4/basis/aug-cc-pvtz-ri.gbs 
    atoms 3-4 entry H          line    30 file /home/akrom/software/anaconda3/envs/ffpenv/share/psi4/basis/aug-cc-pvtz-ri.gbs 

	 --------------------------------------------------------
	                          DF-MP2                         
	      2nd-Order Density-Fitted Moller-Plesset Theory     
	              RMP2 Wavefunction,   1 Threads             
	                                                         
	        Rob Parrish, Justin Turney, Andy Simmonett,      
	           Ed Hohenstein, and C. David Sherrill          
	 --------------------------------------------------------

   => Auxiliary Basis Set <=

  Basis Set: (AUG-CC-PVTZ AUX)
    Blend: AUG-CC-PVTZ-RI
    Number of shells: 84
    Number of basis function: 304
    Number of Cartesian functions: 382
    Spherical Harmonics?: true
    Max angular momentum: 4

	 --------------------------------------------------------
	                 NBF =   138, NAUX =   304
	 --------------------------------------------------------
	   CLASS    FOCC     OCC    AOCC    AVIR     VIR    FVIR
	   PAIRS       0       7       7     131     131       0
	 --------------------------------------------------------

	-----------------------------------------------------------
	 ==================> DF-MP2 Energies <==================== 
	-----------------------------------------------------------
	 Reference Energy          =     -76.8457546402316041 [Eh]
	 Singles Energy            =      -0.0000000000000000 [Eh]
	 Same-Spin Energy          =      -0.0780700796021517 [Eh]
	 Opposite-Spin Energy      =      -0.2729332903983637 [Eh]
	 Correlation Energy        =      -0.3510033700005154 [Eh]
	 Total Energy              =     -77.1967580102321165 [Eh]
	-----------------------------------------------------------
	 ================> DF-SCS-MP2 Energies <================== 
	-----------------------------------------------------------
	 SCS Same-Spin Scale       =       0.3333333333333333 [-]
	 SCS Opposite-Spin Scale   =       1.2000000000000000 [-]
	 SCS Same-Spin Energy      =      -0.0260233598673839 [Eh]
	 SCS Opposite-Spin Energy  =      -0.3275199484780364 [Eh]
	 SCS Correlation Energy    =      -0.3535433083454203 [Eh]
	 SCS Total Energy          =     -77.1992979485770263 [Eh]
	-----------------------------------------------------------


*** tstop() called on atlantis at Tue Apr 19 01:44:30 2022
Module time:
	user time   =       0.23 seconds =       0.00 minutes
	system time =       0.01 seconds =       0.00 minutes
	total time  =          0 seconds =       0.00 minutes
Total time:
	user time   =       0.99 seconds =       0.02 minutes
	system time =       0.04 seconds =       0.00 minutes
	total time  =          1 seconds =       0.02 minutes
gradient() will perform analytic gradient computation.
    SCF Algorithm Type (re)set to DF.

*** tstart() called on atlantis
*** at Tue Apr 19 01:44:30 2022

   => Loading Basis Set <=

    Name: AUG-CC-PVTZ
    Role: ORBITAL
    Keyword: BASIS
    atoms 1-2 entry C          line   235 file /home/akrom/software/anaconda3/envs/ffpenv/share/psi4/basis/aug-cc-pvtz.gbs 
    atoms 3-4 entry H          line    36 file /home/akrom/software/anaconda3/envs/ffpenv/share/psi4/basis/aug-cc-pvtz.gbs 


         ---------------------------------------------------------
                                   SCF
               by Justin Turney, Rob Parrish, Andy Simmonett
                          and Daniel G. A. Smith
                              RHF Reference
                        1 Threads,    500 MiB Core
         ---------------------------------------------------------

  ==> Geometry <==

    Molecular point group: d2h
    Full point group: D_inf_h

    Geometry (in Angstrom), charge = 0, multiplicity = 1:

       Center              X                  Y                   Z               Mass       
    ------------   -----------------  -----------------  -----------------  -----------------
         C           -0.614460000000    -0.000000000000     0.000000000000    12.000000000000
         C            0.614460000000     0.000000000000     0.000000000000    12.000000000000
         H           -1.689230000000    -0.000000000000     0.000000000000     1.007825032230
         H            1.689230000000     0.000000000000     0.000000000000     1.007825032230

  Running in d2h symmetry.

  Rotational constants: A = ************  B =      1.13802  C =      1.13802 [cm^-1]
  Rotational constants: A = ************  B =  34116.98697  C =  34116.98697 [MHz]
  Nuclear repulsion =   24.323218171379235

  Charge       = 0
  Multiplicity = 1
  Electrons    = 14
  Nalpha       = 7
  Nbeta        = 7

  ==> Algorithm <==

  SCF Algorithm Type is DF.
  DIIS enabled.
  MOM disabled.
  Fractional occupation disabled.
  Guess Type is SAD.
  Energy threshold   = 1.00e-10
  Density threshold  = 1.00e-10
  Integral threshold = 0.00e+00

  ==> Primary Basis <==

  Basis Set: AUG-CC-PVTZ
    Blend: AUG-CC-PVTZ
    Number of shells: 46
    Number of basis function: 138
    Number of Cartesian functions: 160
    Spherical Harmonics?: true
    Max angular momentum: 3

   => Loading Basis Set <=

    Name: (AUG-CC-PVTZ AUX)
    Role: JKFIT
    Keyword: DF_BASIS_SCF
    atoms 1-2 entry C          line   162 file /home/akrom/software/anaconda3/envs/ffpenv/share/psi4/basis/aug-cc-pvtz-jkfit.gbs 
    atoms 3-4 entry H          line    70 file /home/akrom/software/anaconda3/envs/ffpenv/share/psi4/basis/aug-cc-pvtz-jkfit.gbs 

  ==> Pre-Iterations <==

   -------------------------------------------------------
    Irrep   Nso     Nmo     Nalpha   Nbeta   Ndocc  Nsocc
   -------------------------------------------------------
     Ag        30      30       0       0       0       0
     B1g       16      16       0       0       0       0
     B2g       16      16       0       0       0       0
     B3g        7       7       0       0       0       0
     Au         7       7       0       0       0       0
     B1u       16      16       0       0       0       0
     B2u       16      16       0       0       0       0
     B3u       30      30       0       0       0       0
   -------------------------------------------------------
    Total     138     138       7       7       7       0
   -------------------------------------------------------

  ==> Integral Setup <==

  DFHelper Memory: AOs need 0.047 GiB; user supplied 0.366 GiB. Using in-core AOs.

  ==> MemDFJK: Density-Fitted J/K Matrices <==

    J tasked:                   Yes
    K tasked:                   Yes
    wK tasked:                   No
    OpenMP threads:               1
    Memory [MiB]:               375
    Algorithm:                 Core
    Schwarz Cutoff:           1E-12
    Mask sparsity (%):       0.0420
    Fitting Condition:        1E-10

   => Auxiliary Basis Set <=

  Basis Set: (AUG-CC-PVTZ AUX)
    Blend: AUG-CC-PVTZ-JKFIT
    Number of shells: 88
    Number of basis function: 300
    Number of Cartesian functions: 372
    Spherical Harmonics?: true
    Max angular momentum: 4

  Minimum eigenvalue in the overlap matrix is 9.1550632594E-06.
  Using Symmetric Orthogonalization.

  SCF Guess: Superposition of Atomic Densities via on-the-fly atomic UHF.

  ==> Iterations <==

                           Total Energy        Delta E     RMS |[F,P]|

   @DF-RHF iter SAD:   -75.85137118630655   -7.58514e+01   0.00000e+00 
   @DF-RHF iter   1:   -76.79956036564043   -9.48189e-01   5.54849e-03 DIIS
   @DF-RHF iter   2:   -76.84014496003456   -4.05846e-02   1.94973e-03 DIIS
   @DF-RHF iter   3:   -76.84559766635655   -5.45271e-03   2.24846e-04 DIIS
   @DF-RHF iter   4:   -76.84575243485136   -1.54768e-04   2.52926e-05 DIIS
   @DF-RHF iter   5:   -76.84575458183231   -2.14698e-06   4.07950e-06 DIIS
   @DF-RHF iter   6:   -76.84575463810947   -5.62772e-08   7.38342e-07 DIIS
   @DF-RHF iter   7:   -76.84575464015563   -2.04616e-09   1.26571e-07 DIIS
   @DF-RHF iter   8:   -76.84575464023095   -7.53175e-11   1.27431e-08 DIIS
   @DF-RHF iter   9:   -76.84575464023160   -6.53699e-13   1.45199e-09 DIIS
   @DF-RHF iter  10:   -76.84575464023160    0.00000e+00   2.10095e-10 DIIS
   @DF-RHF iter  11:   -76.84575464023152    8.52651e-14   1.32462e-11 DIIS
  Energy and wave function converged.


  ==> Post-Iterations <==

    Orbital Energies [Eh]
    ---------------------

    Doubly Occupied:                                                      

       1Ag   -11.253582     1B3u  -11.250330     2Ag    -1.022834  
       2B3u   -0.767057     3Ag    -0.676898     1B1u   -0.405335  
       1B2u   -0.405335  

    Virtual:                                                              

       4Ag     0.030947     3B3u    0.032437     1B1g    0.091836  
       1B2g    0.091836     2B1u    0.096398     2B2u    0.096398  
       5Ag     0.107472     4B3u    0.110718     6Ag     0.143083  
       2B1g    0.185709     2B2g    0.185709     5B3u    0.225360  
       6B3u    0.256536     3B2u    0.275640     3B1u    0.275640  
       7Ag     0.280943     1B3g    0.300265     8Ag     0.300265  
       9Ag     0.377084     3B2g    0.384507     3B1g    0.384507  
       7B3u    0.399556     1Au     0.399556    10Ag     0.412637  
       8B3u    0.412950     4B1g    0.423818     4B2g    0.423818  
       4B2u    0.493019     4B1u    0.493019     9B3u    0.509801  
      10B3u    0.586117     5B2u    0.598104     5B1u    0.598104  
      11Ag     0.658648     5B1g    0.842495     5B2g    0.842495  
      12Ag     0.886636     2B3g    0.893251    13Ag     0.893251  
      11B3u    0.899851     6B1u    0.933760     6B2u    0.933760  
      14Ag     0.981516     3B3g    1.006387    15Ag     1.006387  
      12B3u    1.024713     2Au     1.024713     6B1g    1.027004  
       6B2g    1.027004    13B3u    1.028834     7B1u    1.052091  
       7B2u    1.052091    16Ag     1.137419     8B2u    1.175788  
       8B1u    1.175788    14B3u    1.193961     3Au     1.193961  
      15B3u    1.199053     7B1g    1.293965     7B2g    1.293965  
      16B3u    1.347760     8B1g    1.387561     8B2g    1.387561  
       9B2u    1.574427     9B1u    1.574427     4B3g    1.626890  
      17Ag     1.626890     9B1g    1.763383     9B2g    1.763383  
      18Ag     1.776384    10B2u    1.899737    10B1u    1.899737  
      17B3u    1.931374    18B3u    2.019255     4Au     2.019255  
      19Ag     2.022236    19B3u    2.147063    20Ag     2.206309  
      10B1g    2.344213    10B2g    2.344213    20B3u    2.789273  
      11B1u    2.804534    11B2u    2.804534    21Ag     3.006900  
      21B3u    3.088163     5B3g    3.179933    22Ag     3.179933  
      11B1g    3.194660    11B2g    3.194660    12B2u    3.315516  
      12B1u    3.315516    13B2u    3.369499    13B1u    3.369499  
      22B3u    3.446899     5Au     3.446899    23Ag     3.566191  
       6B3g    3.566191    24Ag     3.595342    12B1g    3.687653  
      12B2g    3.687653    25Ag     3.720712    14B2u    3.782149  
      14B1u    3.782149    13B1g    3.855984    13B2g    3.855984  
      23B3u    3.870619    24B3u    4.086547     6Au     4.086547  
      26Ag     4.146694     7B3g    4.146694    25B3u    4.315780  
      26B3u    4.632695     7Au     4.632695    27Ag     4.637104  
      15B2u    4.746933    15B1u    4.746933    14B1g    4.758669  
      14B2g    4.758669    15B1g    4.979582    15B2g    4.979582  
      27B3u    5.256231    28Ag     5.371839    16B2u    5.768353  
      16B1u    5.768353    28B3u    6.163929    29B3u    6.686617  
      16B1g    6.729164    16B2g    6.729164    29Ag     6.895249  
      30Ag    13.446464    30B3u   18.919517  

    Final Occupation by Irrep:
             Ag   B1g   B2g   B3g    Au   B1u   B2u   B3u 
    DOCC [     3,    0,    0,    0,    0,    1,    1,    2 ]

  @DF-RHF Final Energy:   -76.84575464023152

   => Energetics <=

    Nuclear Repulsion Energy =             24.3232181713792350
    One-Electron Energy =                -150.7752016917730202
    Two-Electron Energy =                  49.6062288801622699
    Total Energy =                        -76.8457546402315188

Computation Completed


Properties will be evaluated at   0.000000,   0.000000,   0.000000 [a0]

Properties computed using the SCF density matrix

  Nuclear Dipole Moment: [e a0]
     X:     0.0000      Y:     0.0000      Z:     0.0000

  Electronic Dipole Moment: [e a0]
     X:     0.0000      Y:     0.0000      Z:     0.0000

  Dipole Moment: [e a0]
     X:     0.0000      Y:     0.0000      Z:     0.0000     Total:     0.0000

  Dipole Moment: [D]
     X:     0.0000      Y:     0.0000      Z:     0.0000     Total:     0.0000


*** tstop() called on atlantis at Tue Apr 19 01:44:31 2022
Module time:
	user time   =       0.77 seconds =       0.01 minutes
	system time =       0.03 seconds =       0.00 minutes
	total time  =          1 seconds =       0.02 minutes
Total time:
	user time   =       1.76 seconds =       0.03 minutes
	system time =       0.07 seconds =       0.00 minutes
	total time  =          2 seconds =       0.03 minutes

*** tstart() called on atlantis
*** at Tue Apr 19 01:44:31 2022


  //>>>>>>>>>>>>>>>>>>>>>>>>>>>>>>>>>>>//
  //               DFMP2               //
  //<<<<<<<<<<<<<<<<<<<<<<<<<<<<<<<<<<<//

   => Loading Basis Set <=

    Name: (AUG-CC-PVTZ AUX)
    Role: RIFIT
    Keyword: DF_BASIS_MP2
    atoms 1-2 entry C          line   148 file /home/akrom/software/anaconda3/envs/ffpenv/share/psi4/basis/aug-cc-pvtz-ri.gbs 
    atoms 3-4 entry H          line    30 file /home/akrom/software/anaconda3/envs/ffpenv/share/psi4/basis/aug-cc-pvtz-ri.gbs 

	 --------------------------------------------------------
	                          DF-MP2                         
	      2nd-Order Density-Fitted Moller-Plesset Theory     
	              RMP2 Wavefunction,   1 Threads             
	                                                         
	        Rob Parrish, Justin Turney, Andy Simmonett,      
	           Ed Hohenstein, and C. David Sherrill          
	 --------------------------------------------------------

   => Auxiliary Basis Set <=

  Basis Set: (AUG-CC-PVTZ AUX)
    Blend: AUG-CC-PVTZ-RI
    Number of shells: 84
    Number of basis function: 304
    Number of Cartesian functions: 382
    Spherical Harmonics?: true
    Max angular momentum: 4

	 --------------------------------------------------------
	                 NBF =   138, NAUX =   304
	 --------------------------------------------------------
	   CLASS    FOCC     OCC    AOCC    AVIR     VIR    FVIR
	   PAIRS       0       7       7     131     131       0
	 --------------------------------------------------------

  DFHelper Memory: AOs need 0.047 GiB; user supplied 0.366 GiB. Using in-core AOs.


         ------------------------------------------------------------
                                     CPHF                           
                                  Rob Parrish                       
         ------------------------------------------------------------

  ==> Geometry <==

    Molecular point group: d2h
    Full point group: D_inf_h

    Geometry (in Angstrom), charge = 0, multiplicity = 1:

       Center              X                  Y                   Z               Mass       
    ------------   -----------------  -----------------  -----------------  -----------------
         C           -0.614460000000    -0.000000000000     0.000000000000    12.000000000000
         C            0.614460000000     0.000000000000     0.000000000000    12.000000000000
         H           -1.689230000000    -0.000000000000     0.000000000000     1.007825032230
         H            1.689230000000     0.000000000000     0.000000000000     1.007825032230

  Nuclear repulsion =   24.323218171379235
  Reference energy  =  -76.845754640231519

  ==> Basis Set <==

  Basis Set: AUG-CC-PVTZ
    Blend: AUG-CC-PVTZ
    Number of shells: 46
    Number of basis function: 138
    Number of Cartesian functions: 160
    Spherical Harmonics?: true
    Max angular momentum: 3

  ==> CGRSolver (by Rob Parrish) <==

   Number of roots    =         1
   Preconditioning    =    JACOBI
   Convergence cutoff =     1E-06
   Maximum iterations =       100

  ==> CPHFRHamiltonian (by Rob Parrish) <== 

  ==> MemDFJK: Density-Fitted J/K Matrices <==

    J tasked:                   Yes
    K tasked:                   Yes
    wK tasked:                   No
    OpenMP threads:               1
    Memory [MiB]:               375
    Algorithm:                 Core
    Schwarz Cutoff:           1E-12
    Mask sparsity (%):       0.0420
    Fitting Condition:        1E-10

   => Auxiliary Basis Set <=

  Basis Set: (AUG-CC-PVTZ AUX)
    Blend: AUG-CC-PVTZ-JKFIT
    Number of shells: 88
    Number of basis function: 300
    Number of Cartesian functions: 372
    Spherical Harmonics?: true
    Max angular momentum: 4

  ==> CPHF Iterations <==

  => Iterations <=

             Iter  Converged  Remaining    Residual
  CGR           1          0          1   6.265E-02
  CGR           2          0          1   1.248E-02
  CGR           3          0          1   2.276E-03
  CGR           4          0          1   2.731E-04
  CGR           5          0          1   3.904E-05
  CGR           6          0          1   3.077E-06
  CGR           7          1          0   2.963E-07

    CGRSolver converged.

  ==> DFCorrGrad: Density-Fitted Correlated Gradients <==

    OpenMP threads:              1
    Integrals threads:           1
    Memory [GiB]:            0.366
    Schwarz Cutoff:          0E+00
    Fitting Condition:       1E-10

   => Auxiliary Basis Set <=

  Basis Set: (AUG-CC-PVTZ AUX)
    Blend: AUG-CC-PVTZ-JKFIT
    Number of shells: 88
    Number of basis function: 300
    Number of Cartesian functions: 372
    Spherical Harmonics?: true
    Max angular momentum: 4

	-----------------------------------------------------------
	 ==================> DF-MP2 Energies <==================== 
	-----------------------------------------------------------
	 Reference Energy          =     -76.8457546402315188 [Eh]
	 Singles Energy            =      -0.0000000000000000 [Eh]
	 Same-Spin Energy          =      -0.0780700794911452 [Eh]
	 Opposite-Spin Energy      =      -0.2729332903034816 [Eh]
	 Correlation Energy        =      -0.3510033697946268 [Eh]
	 Total Energy              =     -77.1967580100261443 [Eh]
	-----------------------------------------------------------
	 ================> DF-SCS-MP2 Energies <================== 
	-----------------------------------------------------------
	 SCS Same-Spin Scale       =       0.3333333333333333 [-]
	 SCS Opposite-Spin Scale   =       1.2000000000000000 [-]
	 SCS Same-Spin Energy      =      -0.0260233598303817 [Eh]
	 SCS Opposite-Spin Energy  =      -0.3275199483641779 [Eh]
	 SCS Correlation Energy    =      -0.3535433081945596 [Eh]
	 SCS Total Energy          =     -77.1992979484260786 [Eh]
	-----------------------------------------------------------


  -Total Gradient:
     Atom            X                  Y                   Z
    ------   -----------------  -----------------  -----------------
       1       -0.022922212597    -0.000000000000     0.000000000000
       2        0.022922212597     0.000000000000     0.000000000000
       3       -0.013811155089    -0.000000000000     0.000000000000
       4        0.013811155089     0.000000000000     0.000000000000


*** tstop() called on atlantis at Tue Apr 19 01:44:34 2022
Module time:
	user time   =       2.66 seconds =       0.04 minutes
	system time =       0.12 seconds =       0.00 minutes
	total time  =          3 seconds =       0.05 minutes
Total time:
	user time   =       4.43 seconds =       0.07 minutes
	system time =       0.19 seconds =       0.00 minutes
	total time  =          5 seconds =       0.08 minutes

  Based on options and gradient (rms=1.09E-02), recommend projecting translations and not projecting rotations.
hessian() will perform frequency computation by finite difference of analytic gradients.

         ----------------------------------------------------------
                                   FINDIF
                     R. A. King and Jonathon Misiewicz
         ---------------------------------------------------------

  Using finite-differences of gradients to determine vibrational frequencies and 
  normal modes.  Resulting frequencies are only valid at stationary points.
    Generating geometries for use with 3-point formula.
    Displacement size will be 5.00e-03.
    Number of atoms is 4.
    Number of irreps is 8.
    Number of SALCs is 9.
    Translations projected? 1. Rotations projected? 0.
    Index of SALCs per irrep:
     1 :  0  1 
     2 :  2  3 
     3 :  4  5 
     4 : 
     5 : 
     6 :  6 
     7 :  7 
     8 :  8 
    Number of SALCs per irrep:
     Irrep 1: 2
     Irrep 2: 2
     Irrep 3: 2
     Irrep 4: 0
     Irrep 5: 0
     Irrep 6: 1
     Irrep 7: 1
     Irrep 8: 1
    Number of geometries (including reference) is 12.
    Number of displacements per irrep:
      Irrep 1: 4
      Irrep 2: 2
      Irrep 3: 2
      Irrep 4: 0
      Irrep 5: 0
      Irrep 6: 1
      Irrep 7: 1
      Irrep 8: 1

  //>>>>>>>>>>>>>>>>>>>>>>>>>>>>>>>>>>>//
  //    Loading displacement 1 of 12   //
  //<<<<<<<<<<<<<<<<<<<<<<<<<<<<<<<<<<<//
gradient() will perform analytic gradient computation.
    SCF Algorithm Type (re)set to DF.

*** tstart() called on atlantis
*** at Tue Apr 19 01:44:34 2022

   => Loading Basis Set <=

    Name: AUG-CC-PVTZ
    Role: ORBITAL
    Keyword: BASIS
    atoms 1-2 entry C          line   235 file /home/akrom/software/anaconda3/envs/ffpenv/share/psi4/basis/aug-cc-pvtz.gbs 
    atoms 3-4 entry H          line    36 file /home/akrom/software/anaconda3/envs/ffpenv/share/psi4/basis/aug-cc-pvtz.gbs 


         ---------------------------------------------------------
                                   SCF
               by Justin Turney, Rob Parrish, Andy Simmonett
                          and Daniel G. A. Smith
                              RHF Reference
                        1 Threads,    500 MiB Core
         ---------------------------------------------------------

  ==> Geometry <==

    Molecular point group: d2h
    Full point group: D_inf_h

    Geometry (in Angstrom), charge = 0, multiplicity = 1:

       Center              X                  Y                   Z               Mass       
    ------------   -----------------  -----------------  -----------------  -----------------
         C           -0.614460000000    -0.000000000000     0.000000000000    12.000000000000
         C            0.614460000000     0.000000000000     0.000000000000    12.000000000000
         H           -1.689230000000    -0.000000000000     0.000000000000     1.007825032230
         H            1.689230000000     0.000000000000     0.000000000000     1.007825032230

  Running in d2h symmetry.

  Rotational constants: A = ************  B =      1.13802  C =      1.13802 [cm^-1]
  Rotational constants: A = ************  B =  34116.98697  C =  34116.98697 [MHz]
  Nuclear repulsion =   24.323218171379235

  Charge       = 0
  Multiplicity = 1
  Electrons    = 14
  Nalpha       = 7
  Nbeta        = 7

  ==> Algorithm <==

  SCF Algorithm Type is DF.
  DIIS enabled.
  MOM disabled.
  Fractional occupation disabled.
  Guess Type is SAD.
  Energy threshold   = 1.00e-10
  Density threshold  = 1.00e-10
  Integral threshold = 0.00e+00

  ==> Primary Basis <==

  Basis Set: AUG-CC-PVTZ
    Blend: AUG-CC-PVTZ
    Number of shells: 46
    Number of basis function: 138
    Number of Cartesian functions: 160
    Spherical Harmonics?: true
    Max angular momentum: 3

   => Loading Basis Set <=

    Name: (AUG-CC-PVTZ AUX)
    Role: JKFIT
    Keyword: DF_BASIS_SCF
    atoms 1-2 entry C          line   162 file /home/akrom/software/anaconda3/envs/ffpenv/share/psi4/basis/aug-cc-pvtz-jkfit.gbs 
    atoms 3-4 entry H          line    70 file /home/akrom/software/anaconda3/envs/ffpenv/share/psi4/basis/aug-cc-pvtz-jkfit.gbs 

  ==> Pre-Iterations <==

   -------------------------------------------------------
    Irrep   Nso     Nmo     Nalpha   Nbeta   Ndocc  Nsocc
   -------------------------------------------------------
     Ag        30      30       0       0       0       0
     B1g       16      16       0       0       0       0
     B2g       16      16       0       0       0       0
     B3g        7       7       0       0       0       0
     Au         7       7       0       0       0       0
     B1u       16      16       0       0       0       0
     B2u       16      16       0       0       0       0
     B3u       30      30       0       0       0       0
   -------------------------------------------------------
    Total     138     138       7       7       7       0
   -------------------------------------------------------

  ==> Integral Setup <==

  DFHelper Memory: AOs need 0.047 GiB; user supplied 0.366 GiB. Using in-core AOs.

  ==> MemDFJK: Density-Fitted J/K Matrices <==

    J tasked:                   Yes
    K tasked:                   Yes
    wK tasked:                   No
    OpenMP threads:               1
    Memory [MiB]:               375
    Algorithm:                 Core
    Schwarz Cutoff:           1E-12
    Mask sparsity (%):       0.0420
    Fitting Condition:        1E-10

   => Auxiliary Basis Set <=

  Basis Set: (AUG-CC-PVTZ AUX)
    Blend: AUG-CC-PVTZ-JKFIT
    Number of shells: 88
    Number of basis function: 300
    Number of Cartesian functions: 372
    Spherical Harmonics?: true
    Max angular momentum: 4

  Minimum eigenvalue in the overlap matrix is 9.1550632594E-06.
  Using Symmetric Orthogonalization.

  SCF Guess: Superposition of Atomic Densities via on-the-fly atomic UHF.

  ==> Iterations <==

                           Total Energy        Delta E     RMS |[F,P]|

   @DF-RHF iter SAD:   -75.85137118630655   -7.58514e+01   0.00000e+00 
   @DF-RHF iter   1:   -76.79956036564043   -9.48189e-01   5.54849e-03 DIIS
   @DF-RHF iter   2:   -76.84014496003456   -4.05846e-02   1.94973e-03 DIIS
   @DF-RHF iter   3:   -76.84559766635655   -5.45271e-03   2.24846e-04 DIIS
   @DF-RHF iter   4:   -76.84575243485136   -1.54768e-04   2.52926e-05 DIIS
   @DF-RHF iter   5:   -76.84575458183231   -2.14698e-06   4.07950e-06 DIIS
   @DF-RHF iter   6:   -76.84575463810947   -5.62772e-08   7.38342e-07 DIIS
   @DF-RHF iter   7:   -76.84575464015563   -2.04616e-09   1.26571e-07 DIIS
   @DF-RHF iter   8:   -76.84575464023095   -7.53175e-11   1.27431e-08 DIIS
   @DF-RHF iter   9:   -76.84575464023160   -6.53699e-13   1.45199e-09 DIIS
   @DF-RHF iter  10:   -76.84575464023160    0.00000e+00   2.10095e-10 DIIS
   @DF-RHF iter  11:   -76.84575464023152    8.52651e-14   1.32462e-11 DIIS
  Energy and wave function converged.


  ==> Post-Iterations <==

    Orbital Energies [Eh]
    ---------------------

    Doubly Occupied:                                                      

       1Ag   -11.253582     1B3u  -11.250330     2Ag    -1.022834  
       2B3u   -0.767057     3Ag    -0.676898     1B1u   -0.405335  
       1B2u   -0.405335  

    Virtual:                                                              

       4Ag     0.030947     3B3u    0.032437     1B1g    0.091836  
       1B2g    0.091836     2B1u    0.096398     2B2u    0.096398  
       5Ag     0.107472     4B3u    0.110718     6Ag     0.143083  
       2B1g    0.185709     2B2g    0.185709     5B3u    0.225360  
       6B3u    0.256536     3B2u    0.275640     3B1u    0.275640  
       7Ag     0.280943     1B3g    0.300265     8Ag     0.300265  
       9Ag     0.377084     3B2g    0.384507     3B1g    0.384507  
       7B3u    0.399556     1Au     0.399556    10Ag     0.412637  
       8B3u    0.412950     4B1g    0.423818     4B2g    0.423818  
       4B2u    0.493019     4B1u    0.493019     9B3u    0.509801  
      10B3u    0.586117     5B2u    0.598104     5B1u    0.598104  
      11Ag     0.658648     5B1g    0.842495     5B2g    0.842495  
      12Ag     0.886636     2B3g    0.893251    13Ag     0.893251  
      11B3u    0.899851     6B1u    0.933760     6B2u    0.933760  
      14Ag     0.981516     3B3g    1.006387    15Ag     1.006387  
      12B3u    1.024713     2Au     1.024713     6B1g    1.027004  
       6B2g    1.027004    13B3u    1.028834     7B1u    1.052091  
       7B2u    1.052091    16Ag     1.137419     8B2u    1.175788  
       8B1u    1.175788    14B3u    1.193961     3Au     1.193961  
      15B3u    1.199053     7B1g    1.293965     7B2g    1.293965  
      16B3u    1.347760     8B1g    1.387561     8B2g    1.387561  
       9B2u    1.574427     9B1u    1.574427     4B3g    1.626890  
      17Ag     1.626890     9B1g    1.763383     9B2g    1.763383  
      18Ag     1.776384    10B2u    1.899737    10B1u    1.899737  
      17B3u    1.931374    18B3u    2.019255     4Au     2.019255  
      19Ag     2.022236    19B3u    2.147063    20Ag     2.206309  
      10B1g    2.344213    10B2g    2.344213    20B3u    2.789273  
      11B1u    2.804534    11B2u    2.804534    21Ag     3.006900  
      21B3u    3.088163     5B3g    3.179933    22Ag     3.179933  
      11B1g    3.194660    11B2g    3.194660    12B2u    3.315516  
      12B1u    3.315516    13B2u    3.369499    13B1u    3.369499  
      22B3u    3.446899     5Au     3.446899    23Ag     3.566191  
       6B3g    3.566191    24Ag     3.595342    12B1g    3.687653  
      12B2g    3.687653    25Ag     3.720712    14B2u    3.782149  
      14B1u    3.782149    13B1g    3.855984    13B2g    3.855984  
      23B3u    3.870619    24B3u    4.086547     6Au     4.086547  
      26Ag     4.146694     7B3g    4.146694    25B3u    4.315780  
      26B3u    4.632695     7Au     4.632695    27Ag     4.637104  
      15B2u    4.746933    15B1u    4.746933    14B1g    4.758669  
      14B2g    4.758669    15B1g    4.979582    15B2g    4.979582  
      27B3u    5.256231    28Ag     5.371839    16B2u    5.768353  
      16B1u    5.768353    28B3u    6.163929    29B3u    6.686617  
      16B1g    6.729164    16B2g    6.729164    29Ag     6.895249  
      30Ag    13.446464    30B3u   18.919517  

    Final Occupation by Irrep:
             Ag   B1g   B2g   B3g    Au   B1u   B2u   B3u 
    DOCC [     3,    0,    0,    0,    0,    1,    1,    2 ]

  @DF-RHF Final Energy:   -76.84575464023152

   => Energetics <=

    Nuclear Repulsion Energy =             24.3232181713792350
    One-Electron Energy =                -150.7752016917730202
    Two-Electron Energy =                  49.6062288801622699
    Total Energy =                        -76.8457546402315188

Computation Completed


Properties will be evaluated at   0.000000,   0.000000,   0.000000 [a0]

Properties computed using the SCF density matrix

  Nuclear Dipole Moment: [e a0]
     X:     0.0000      Y:     0.0000      Z:     0.0000

  Electronic Dipole Moment: [e a0]
     X:     0.0000      Y:     0.0000      Z:     0.0000

  Dipole Moment: [e a0]
     X:     0.0000      Y:     0.0000      Z:     0.0000     Total:     0.0000

  Dipole Moment: [D]
     X:     0.0000      Y:     0.0000      Z:     0.0000     Total:     0.0000


*** tstop() called on atlantis at Tue Apr 19 01:44:35 2022
Module time:
	user time   =       0.80 seconds =       0.01 minutes
	system time =       0.01 seconds =       0.00 minutes
	total time  =          1 seconds =       0.02 minutes
Total time:
	user time   =       5.49 seconds =       0.09 minutes
	system time =       0.22 seconds =       0.00 minutes
	total time  =          6 seconds =       0.10 minutes

*** tstart() called on atlantis
*** at Tue Apr 19 01:44:35 2022


  //>>>>>>>>>>>>>>>>>>>>>>>>>>>>>>>>>>>//
  //               DFMP2               //
  //<<<<<<<<<<<<<<<<<<<<<<<<<<<<<<<<<<<//

   => Loading Basis Set <=

    Name: (AUG-CC-PVTZ AUX)
    Role: RIFIT
    Keyword: DF_BASIS_MP2
    atoms 1-2 entry C          line   148 file /home/akrom/software/anaconda3/envs/ffpenv/share/psi4/basis/aug-cc-pvtz-ri.gbs 
    atoms 3-4 entry H          line    30 file /home/akrom/software/anaconda3/envs/ffpenv/share/psi4/basis/aug-cc-pvtz-ri.gbs 

	 --------------------------------------------------------
	                          DF-MP2                         
	      2nd-Order Density-Fitted Moller-Plesset Theory     
	              RMP2 Wavefunction,   1 Threads             
	                                                         
	        Rob Parrish, Justin Turney, Andy Simmonett,      
	           Ed Hohenstein, and C. David Sherrill          
	 --------------------------------------------------------

   => Auxiliary Basis Set <=

  Basis Set: (AUG-CC-PVTZ AUX)
    Blend: AUG-CC-PVTZ-RI
    Number of shells: 84
    Number of basis function: 304
    Number of Cartesian functions: 382
    Spherical Harmonics?: true
    Max angular momentum: 4

	 --------------------------------------------------------
	                 NBF =   138, NAUX =   304
	 --------------------------------------------------------
	   CLASS    FOCC     OCC    AOCC    AVIR     VIR    FVIR
	   PAIRS       0       7       7     131     131       0
	 --------------------------------------------------------

  DFHelper Memory: AOs need 0.047 GiB; user supplied 0.366 GiB. Using in-core AOs.


         ------------------------------------------------------------
                                     CPHF                           
                                  Rob Parrish                       
         ------------------------------------------------------------

  ==> Geometry <==

    Molecular point group: d2h
    Full point group: D_inf_h

    Geometry (in Angstrom), charge = 0, multiplicity = 1:

       Center              X                  Y                   Z               Mass       
    ------------   -----------------  -----------------  -----------------  -----------------
         C           -0.614460000000    -0.000000000000     0.000000000000    12.000000000000
         C            0.614460000000     0.000000000000     0.000000000000    12.000000000000
         H           -1.689230000000    -0.000000000000     0.000000000000     1.007825032230
         H            1.689230000000     0.000000000000     0.000000000000     1.007825032230

  Nuclear repulsion =   24.323218171379235
  Reference energy  =  -76.845754640231519

  ==> Basis Set <==

  Basis Set: AUG-CC-PVTZ
    Blend: AUG-CC-PVTZ
    Number of shells: 46
    Number of basis function: 138
    Number of Cartesian functions: 160
    Spherical Harmonics?: true
    Max angular momentum: 3

  ==> CGRSolver (by Rob Parrish) <==

   Number of roots    =         1
   Preconditioning    =    JACOBI
   Convergence cutoff =     1E-06
   Maximum iterations =       100

  ==> CPHFRHamiltonian (by Rob Parrish) <== 

  ==> MemDFJK: Density-Fitted J/K Matrices <==

    J tasked:                   Yes
    K tasked:                   Yes
    wK tasked:                   No
    OpenMP threads:               1
    Memory [MiB]:               375
    Algorithm:                 Core
    Schwarz Cutoff:           1E-12
    Mask sparsity (%):       0.0420
    Fitting Condition:        1E-10

   => Auxiliary Basis Set <=

  Basis Set: (AUG-CC-PVTZ AUX)
    Blend: AUG-CC-PVTZ-JKFIT
    Number of shells: 88
    Number of basis function: 300
    Number of Cartesian functions: 372
    Spherical Harmonics?: true
    Max angular momentum: 4

  ==> CPHF Iterations <==

  => Iterations <=

             Iter  Converged  Remaining    Residual
  CGR           1          0          1   6.265E-02
  CGR           2          0          1   1.248E-02
  CGR           3          0          1   2.276E-03
  CGR           4          0          1   2.731E-04
  CGR           5          0          1   3.904E-05
  CGR           6          0          1   3.077E-06
  CGR           7          1          0   2.963E-07

    CGRSolver converged.

  ==> DFCorrGrad: Density-Fitted Correlated Gradients <==

    OpenMP threads:              1
    Integrals threads:           1
    Memory [GiB]:            0.366
    Schwarz Cutoff:          0E+00
    Fitting Condition:       1E-10

   => Auxiliary Basis Set <=

  Basis Set: (AUG-CC-PVTZ AUX)
    Blend: AUG-CC-PVTZ-JKFIT
    Number of shells: 88
    Number of basis function: 300
    Number of Cartesian functions: 372
    Spherical Harmonics?: true
    Max angular momentum: 4

	-----------------------------------------------------------
	 ==================> DF-MP2 Energies <==================== 
	-----------------------------------------------------------
	 Reference Energy          =     -76.8457546402315188 [Eh]
	 Singles Energy            =      -0.0000000000000000 [Eh]
	 Same-Spin Energy          =      -0.0780700794911452 [Eh]
	 Opposite-Spin Energy      =      -0.2729332903034816 [Eh]
	 Correlation Energy        =      -0.3510033697946268 [Eh]
	 Total Energy              =     -77.1967580100261443 [Eh]
	-----------------------------------------------------------
	 ================> DF-SCS-MP2 Energies <================== 
	-----------------------------------------------------------
	 SCS Same-Spin Scale       =       0.3333333333333333 [-]
	 SCS Opposite-Spin Scale   =       1.2000000000000000 [-]
	 SCS Same-Spin Energy      =      -0.0260233598303817 [Eh]
	 SCS Opposite-Spin Energy  =      -0.3275199483641779 [Eh]
	 SCS Correlation Energy    =      -0.3535433081945596 [Eh]
	 SCS Total Energy          =     -77.1992979484260786 [Eh]
	-----------------------------------------------------------


  -Total Gradient:
     Atom            X                  Y                   Z
    ------   -----------------  -----------------  -----------------
       1       -0.022922212597    -0.000000000000     0.000000000000
       2        0.022922212597     0.000000000000     0.000000000000
       3       -0.013811155089    -0.000000000000     0.000000000000
       4        0.013811155089     0.000000000000     0.000000000000


*** tstop() called on atlantis at Tue Apr 19 01:44:37 2022
Module time:
	user time   =       2.70 seconds =       0.05 minutes
	system time =       0.07 seconds =       0.00 minutes
	total time  =          2 seconds =       0.03 minutes
Total time:
	user time   =       8.19 seconds =       0.14 minutes
	system time =       0.29 seconds =       0.00 minutes
	total time  =          8 seconds =       0.13 minutes

  //>>>>>>>>>>>>>>>>>>>>>>>>>>>>>>>>>>>//
  //    Loading displacement 2 of 12   //
  //<<<<<<<<<<<<<<<<<<<<<<<<<<<<<<<<<<<//
gradient() will perform analytic gradient computation.
    SCF Algorithm Type (re)set to DF.

*** tstart() called on atlantis
*** at Tue Apr 19 01:44:37 2022

   => Loading Basis Set <=

    Name: AUG-CC-PVTZ
    Role: ORBITAL
    Keyword: BASIS
    atoms 1-2 entry C          line   235 file /home/akrom/software/anaconda3/envs/ffpenv/share/psi4/basis/aug-cc-pvtz.gbs 
    atoms 3-4 entry H          line    36 file /home/akrom/software/anaconda3/envs/ffpenv/share/psi4/basis/aug-cc-pvtz.gbs 


         ---------------------------------------------------------
                                   SCF
               by Justin Turney, Rob Parrish, Andy Simmonett
                          and Daniel G. A. Smith
                              RHF Reference
                        1 Threads,    500 MiB Core
         ---------------------------------------------------------

  ==> Geometry <==

    Molecular point group: d2h
    Full point group: D_inf_h

    Geometry (in Angstrom), charge = 0, multiplicity = 1:

       Center              X                  Y                   Z               Mass       
    ------------   -----------------  -----------------  -----------------  -----------------
         C           -0.615000089229    -0.000000000000     0.000000000000    12.000000000000
         C            0.615000089229     0.000000000000     0.000000000000    12.000000000000
         H           -1.689230000000    -0.000000000000     0.000000000000     1.007825032230
         H            1.689230000000     0.000000000000     0.000000000000     1.007825032230

  Running in d2h symmetry.

  Rotational constants: A = ************  B =      1.13680  C =      1.13680 [cm^-1]
  Rotational constants: A = ************  B =  34080.32226  C =  34080.32226 [MHz]
  Nuclear repulsion =   24.311929094340595

  Charge       = 0
  Multiplicity = 1
  Electrons    = 14
  Nalpha       = 7
  Nbeta        = 7

  ==> Algorithm <==

  SCF Algorithm Type is DF.
  DIIS enabled.
  MOM disabled.
  Fractional occupation disabled.
  Guess Type is SAD.
  Energy threshold   = 1.00e-10
  Density threshold  = 1.00e-10
  Integral threshold = 0.00e+00

  ==> Primary Basis <==

  Basis Set: AUG-CC-PVTZ
    Blend: AUG-CC-PVTZ
    Number of shells: 46
    Number of basis function: 138
    Number of Cartesian functions: 160
    Spherical Harmonics?: true
    Max angular momentum: 3

   => Loading Basis Set <=

    Name: (AUG-CC-PVTZ AUX)
    Role: JKFIT
    Keyword: DF_BASIS_SCF
    atoms 1-2 entry C          line   162 file /home/akrom/software/anaconda3/envs/ffpenv/share/psi4/basis/aug-cc-pvtz-jkfit.gbs 
    atoms 3-4 entry H          line    70 file /home/akrom/software/anaconda3/envs/ffpenv/share/psi4/basis/aug-cc-pvtz-jkfit.gbs 

  ==> Pre-Iterations <==

   -------------------------------------------------------
    Irrep   Nso     Nmo     Nalpha   Nbeta   Ndocc  Nsocc
   -------------------------------------------------------
     Ag        30      30       0       0       0       0
     B1g       16      16       0       0       0       0
     B2g       16      16       0       0       0       0
     B3g        7       7       0       0       0       0
     Au         7       7       0       0       0       0
     B1u       16      16       0       0       0       0
     B2u       16      16       0       0       0       0
     B3u       30      30       0       0       0       0
   -------------------------------------------------------
    Total     138     138       7       7       7       0
   -------------------------------------------------------

  ==> Integral Setup <==

  DFHelper Memory: AOs need 0.047 GiB; user supplied 0.366 GiB. Using in-core AOs.

  ==> MemDFJK: Density-Fitted J/K Matrices <==

    J tasked:                   Yes
    K tasked:                   Yes
    wK tasked:                   No
    OpenMP threads:               1
    Memory [MiB]:               375
    Algorithm:                 Core
    Schwarz Cutoff:           1E-12
    Mask sparsity (%):       0.0420
    Fitting Condition:        1E-10

   => Auxiliary Basis Set <=

  Basis Set: (AUG-CC-PVTZ AUX)
    Blend: AUG-CC-PVTZ-JKFIT
    Number of shells: 88
    Number of basis function: 300
    Number of Cartesian functions: 372
    Spherical Harmonics?: true
    Max angular momentum: 4

  Minimum eigenvalue in the overlap matrix is 9.1814319619E-06.
  Using Symmetric Orthogonalization.

  SCF Guess: Superposition of Atomic Densities via on-the-fly atomic UHF.

  ==> Iterations <==

                           Total Energy        Delta E     RMS |[F,P]|

   @DF-RHF iter SAD:   -75.85034344238545   -7.58503e+01   0.00000e+00 
   @DF-RHF iter   1:   -76.79955624829023   -9.49213e-01   5.53443e-03 DIIS
   @DF-RHF iter   2:   -76.83999786483385   -4.04416e-02   1.94373e-03 DIIS
   @DF-RHF iter   3:   -76.84541867600075   -5.42081e-03   2.24864e-04 DIIS
   @DF-RHF iter   4:   -76.84557372247545   -1.55046e-04   2.53419e-05 DIIS
   @DF-RHF iter   5:   -76.84557587736967   -2.15489e-06   4.08486e-06 DIIS
   @DF-RHF iter   6:   -76.84557593386549   -5.64958e-08   7.39202e-07 DIIS
   @DF-RHF iter   7:   -76.84557593592091   -2.05542e-09   1.27049e-07 DIIS
   @DF-RHF iter   8:   -76.84557593599681   -7.59002e-11   1.27040e-08 DIIS
   @DF-RHF iter   9:   -76.84557593599749   -6.82121e-13   1.44846e-09 DIIS
   @DF-RHF iter  10:   -76.84557593599733    1.56319e-13   2.09646e-10 DIIS
   @DF-RHF iter  11:   -76.84557593599739   -5.68434e-14   1.32508e-11 DIIS
  Energy and wave function converged.


  ==> Post-Iterations <==

    Orbital Energies [Eh]
    ---------------------

    Doubly Occupied:                                                      

       1Ag   -11.253894     1B3u  -11.250663     2Ag    -1.022568  
       2B3u   -0.767454     3Ag    -0.677070     1B1u   -0.405118  
       1B2u   -0.405118  

    Virtual:                                                              

       4Ag     0.030940     3B3u    0.032437     1B1g    0.091793  
       1B2g    0.091793     2B1u    0.096411     2B2u    0.096411  
       5Ag     0.107477     4B3u    0.110727     6Ag     0.143051  
       2B1g    0.185479     2B2g    0.185479     5B3u    0.225287  
       6B3u    0.256560     3B2u    0.275645     3B1u    0.275645  
       7Ag     0.281017     8Ag     0.300234     1B3g    0.300234  
       9Ag     0.377033     3B2g    0.384425     3B1g    0.384425  
       1Au     0.399543     7B3u    0.399543    10Ag     0.412607  
       8B3u    0.412884     4B1g    0.423716     4B2g    0.423716  
       4B1u    0.493079     4B2u    0.493079     9B3u    0.509604  
      10B3u    0.586012     5B2u    0.598192     5B1u    0.598192  
      11Ag     0.658744     5B1g    0.842401     5B2g    0.842401  
      12Ag     0.886470    13Ag     0.893207     2B3g    0.893207  
      11B3u    0.899473     6B1u    0.933776     6B2u    0.933776  
      14Ag     0.981294    15Ag     1.006374     3B3g    1.006374  
       2Au     1.024620    12B3u    1.024620     6B1g    1.026878  
       6B2g    1.026878    13B3u    1.028829     7B1u    1.052030  
       7B2u    1.052030    16Ag     1.137499     8B2u    1.175621  
       8B1u    1.175621    14B3u    1.194107     3Au     1.194107  
      15B3u    1.198866     7B2g    1.293794     7B1g    1.293794  
      16B3u    1.347078     8B1g    1.387468     8B2g    1.387468  
       9B2u    1.575040     9B1u    1.575040    17Ag     1.626728  
       4B3g    1.626728     9B1g    1.763268     9B2g    1.763268  
      18Ag     1.775561    10B2u    1.899417    10B1u    1.899417  
      17B3u    1.931257    18B3u    2.018947     4Au     2.018947  
      19Ag     2.022629    19B3u    2.146367    20Ag     2.205155  
      10B2g    2.344305    10B1g    2.344305    20B3u    2.788979  
      11B1u    2.804683    11B2u    2.804683    21Ag     3.007112  
      21B3u    3.086985     5B3g    3.180161    22Ag     3.180161  
      11B1g    3.194075    11B2g    3.194075    12B2u    3.314891  
      12B1u    3.314891    13B1u    3.369707    13B2u    3.369707  
      22B3u    3.446679     5Au     3.446679     6B3g    3.565673  
      23Ag     3.565673    24Ag     3.594624    12B1g    3.687083  
      12B2g    3.687083    25Ag     3.720324    14B2u    3.781480  
      14B1u    3.781480    13B1g    3.855876    13B2g    3.855876  
      23B3u    3.871135    24B3u    4.085949     6Au     4.085949  
       7B3g    4.146844    26Ag     4.146844    25B3u    4.315628  
       7Au     4.632153    26B3u    4.632153    27Ag     4.636022  
      15B2u    4.747463    15B1u    4.747463    14B1g    4.757990  
      14B2g    4.757990    15B1g    4.979727    15B2g    4.979727  
      27B3u    5.257644    28Ag     5.372752    16B2u    5.768403  
      16B1u    5.768403    28B3u    6.165413    29B3u    6.686569  
      16B1g    6.729347    16B2g    6.729347    29Ag     6.892925  
      30Ag    13.458471    30B3u   18.888653  

    Final Occupation by Irrep:
             Ag   B1g   B2g   B3g    Au   B1u   B2u   B3u 
    DOCC [     3,    0,    0,    0,    0,    1,    1,    2 ]

  @DF-RHF Final Energy:   -76.84557593599739

   => Energetics <=

    Nuclear Repulsion Energy =             24.3119290943405950
    One-Electron Energy =                -150.7512377811396220
    Two-Electron Energy =                  49.5937327508016281
    Total Energy =                        -76.8455759359974024

Computation Completed


Properties will be evaluated at   0.000000,   0.000000,   0.000000 [a0]

Properties computed using the SCF density matrix

  Nuclear Dipole Moment: [e a0]
     X:     0.0000      Y:     0.0000      Z:     0.0000

  Electronic Dipole Moment: [e a0]
     X:     0.0000      Y:     0.0000      Z:     0.0000

  Dipole Moment: [e a0]
     X:     0.0000      Y:     0.0000      Z:     0.0000     Total:     0.0000

  Dipole Moment: [D]
     X:     0.0000      Y:     0.0000      Z:     0.0000     Total:     0.0000


*** tstop() called on atlantis at Tue Apr 19 01:44:38 2022
Module time:
	user time   =       0.78 seconds =       0.01 minutes
	system time =       0.01 seconds =       0.00 minutes
	total time  =          1 seconds =       0.02 minutes
Total time:
	user time   =       8.97 seconds =       0.15 minutes
	system time =       0.31 seconds =       0.01 minutes
	total time  =          9 seconds =       0.15 minutes

*** tstart() called on atlantis
*** at Tue Apr 19 01:44:38 2022


  //>>>>>>>>>>>>>>>>>>>>>>>>>>>>>>>>>>>//
  //               DFMP2               //
  //<<<<<<<<<<<<<<<<<<<<<<<<<<<<<<<<<<<//

   => Loading Basis Set <=

    Name: (AUG-CC-PVTZ AUX)
    Role: RIFIT
    Keyword: DF_BASIS_MP2
    atoms 1-2 entry C          line   148 file /home/akrom/software/anaconda3/envs/ffpenv/share/psi4/basis/aug-cc-pvtz-ri.gbs 
    atoms 3-4 entry H          line    30 file /home/akrom/software/anaconda3/envs/ffpenv/share/psi4/basis/aug-cc-pvtz-ri.gbs 

	 --------------------------------------------------------
	                          DF-MP2                         
	      2nd-Order Density-Fitted Moller-Plesset Theory     
	              RMP2 Wavefunction,   1 Threads             
	                                                         
	        Rob Parrish, Justin Turney, Andy Simmonett,      
	           Ed Hohenstein, and C. David Sherrill          
	 --------------------------------------------------------

   => Auxiliary Basis Set <=

  Basis Set: (AUG-CC-PVTZ AUX)
    Blend: AUG-CC-PVTZ-RI
    Number of shells: 84
    Number of basis function: 304
    Number of Cartesian functions: 382
    Spherical Harmonics?: true
    Max angular momentum: 4

	 --------------------------------------------------------
	                 NBF =   138, NAUX =   304
	 --------------------------------------------------------
	   CLASS    FOCC     OCC    AOCC    AVIR     VIR    FVIR
	   PAIRS       0       7       7     131     131       0
	 --------------------------------------------------------

  DFHelper Memory: AOs need 0.047 GiB; user supplied 0.366 GiB. Using in-core AOs.


         ------------------------------------------------------------
                                     CPHF                           
                                  Rob Parrish                       
         ------------------------------------------------------------

  ==> Geometry <==

    Molecular point group: d2h
    Full point group: D_inf_h

    Geometry (in Angstrom), charge = 0, multiplicity = 1:

       Center              X                  Y                   Z               Mass       
    ------------   -----------------  -----------------  -----------------  -----------------
         C           -0.615000089229    -0.000000000000     0.000000000000    12.000000000000
         C            0.615000089229     0.000000000000     0.000000000000    12.000000000000
         H           -1.689230000000    -0.000000000000     0.000000000000     1.007825032230
         H            1.689230000000     0.000000000000     0.000000000000     1.007825032230

  Nuclear repulsion =   24.311929094340595
  Reference energy  =  -76.845575935997388

  ==> Basis Set <==

  Basis Set: AUG-CC-PVTZ
    Blend: AUG-CC-PVTZ
    Number of shells: 46
    Number of basis function: 138
    Number of Cartesian functions: 160
    Spherical Harmonics?: true
    Max angular momentum: 3

  ==> CGRSolver (by Rob Parrish) <==

   Number of roots    =         1
   Preconditioning    =    JACOBI
   Convergence cutoff =     1E-06
   Maximum iterations =       100

  ==> CPHFRHamiltonian (by Rob Parrish) <== 

  ==> MemDFJK: Density-Fitted J/K Matrices <==

    J tasked:                   Yes
    K tasked:                   Yes
    wK tasked:                   No
    OpenMP threads:               1
    Memory [MiB]:               375
    Algorithm:                 Core
    Schwarz Cutoff:           1E-12
    Mask sparsity (%):       0.0420
    Fitting Condition:        1E-10

   => Auxiliary Basis Set <=

  Basis Set: (AUG-CC-PVTZ AUX)
    Blend: AUG-CC-PVTZ-JKFIT
    Number of shells: 88
    Number of basis function: 300
    Number of Cartesian functions: 372
    Spherical Harmonics?: true
    Max angular momentum: 4

  ==> CPHF Iterations <==

  => Iterations <=

             Iter  Converged  Remaining    Residual
  CGR           1          0          1   6.271E-02
  CGR           2          0          1   1.249E-02
  CGR           3          0          1   2.279E-03
  CGR           4          0          1   2.731E-04
  CGR           5          0          1   3.908E-05
  CGR           6          0          1   3.077E-06
  CGR           7          1          0   2.962E-07

    CGRSolver converged.

Problem determining natural orbital and density matrix symmetries.
Future calls to oeprop using this density will not work. Try disabling symmetry.

  ==> DFCorrGrad: Density-Fitted Correlated Gradients <==

    OpenMP threads:              1
    Integrals threads:           1
    Memory [GiB]:            0.366
    Schwarz Cutoff:          0E+00
    Fitting Condition:       1E-10

   => Auxiliary Basis Set <=

  Basis Set: (AUG-CC-PVTZ AUX)
    Blend: AUG-CC-PVTZ-JKFIT
    Number of shells: 88
    Number of basis function: 300
    Number of Cartesian functions: 372
    Spherical Harmonics?: true
    Max angular momentum: 4

	-----------------------------------------------------------
	 ==================> DF-MP2 Energies <==================== 
	-----------------------------------------------------------
	 Reference Energy          =     -76.8455759359973882 [Eh]
	 Singles Energy            =      -0.0000000000000000 [Eh]
	 Same-Spin Energy          =      -0.0781070321383258 [Eh]
	 Opposite-Spin Energy      =      -0.2730259591338438 [Eh]
	 Correlation Energy        =      -0.3511329912721696 [Eh]
	 Total Energy              =     -77.1967089272695546 [Eh]
	-----------------------------------------------------------
	 ================> DF-SCS-MP2 Energies <================== 
	-----------------------------------------------------------
	 SCS Same-Spin Scale       =       0.3333333333333333 [-]
	 SCS Opposite-Spin Scale   =       1.2000000000000000 [-]
	 SCS Same-Spin Energy      =      -0.0260356773794419 [Eh]
	 SCS Opposite-Spin Energy  =      -0.3276311509606126 [Eh]
	 SCS Correlation Energy    =      -0.3536668283400545 [Eh]
	 SCS Total Energy          =     -77.1992427643374413 [Eh]
	-----------------------------------------------------------


  -Total Gradient:
     Atom            X                  Y                   Z
    ------   -----------------  -----------------  -----------------
       1       -0.025167222892    -0.000000000000     0.000000000000
       2        0.025167222892     0.000000000000     0.000000000000
       3       -0.013405501974    -0.000000000000     0.000000000000
       4        0.013405501974     0.000000000000     0.000000000000


*** tstop() called on atlantis at Tue Apr 19 01:44:41 2022
Module time:
	user time   =       2.70 seconds =       0.04 minutes
	system time =       0.09 seconds =       0.00 minutes
	total time  =          3 seconds =       0.05 minutes
Total time:
	user time   =      11.67 seconds =       0.19 minutes
	system time =       0.40 seconds =       0.01 minutes
	total time  =         12 seconds =       0.20 minutes

  //>>>>>>>>>>>>>>>>>>>>>>>>>>>>>>>>>>>//
  //    Loading displacement 3 of 12   //
  //<<<<<<<<<<<<<<<<<<<<<<<<<<<<<<<<<<<//
gradient() will perform analytic gradient computation.
    SCF Algorithm Type (re)set to DF.

*** tstart() called on atlantis
*** at Tue Apr 19 01:44:41 2022

   => Loading Basis Set <=

    Name: AUG-CC-PVTZ
    Role: ORBITAL
    Keyword: BASIS
    atoms 1-2 entry C          line   235 file /home/akrom/software/anaconda3/envs/ffpenv/share/psi4/basis/aug-cc-pvtz.gbs 
    atoms 3-4 entry H          line    36 file /home/akrom/software/anaconda3/envs/ffpenv/share/psi4/basis/aug-cc-pvtz.gbs 


         ---------------------------------------------------------
                                   SCF
               by Justin Turney, Rob Parrish, Andy Simmonett
                          and Daniel G. A. Smith
                              RHF Reference
                        1 Threads,    500 MiB Core
         ---------------------------------------------------------

  ==> Geometry <==

    Molecular point group: d2h
    Full point group: D_inf_h

    Geometry (in Angstrom), charge = 0, multiplicity = 1:

       Center              X                  Y                   Z               Mass       
    ------------   -----------------  -----------------  -----------------  -----------------
         C           -0.613919910771    -0.000000000000     0.000000000000    12.000000000000
         C            0.613919910771     0.000000000000     0.000000000000    12.000000000000
         H           -1.689230000000    -0.000000000000     0.000000000000     1.007825032230
         H            1.689230000000     0.000000000000     0.000000000000     1.007825032230

  Running in d2h symmetry.

  Rotational constants: A = ************  B =      1.13924  C =      1.13924 [cm^-1]
  Rotational constants: A = ************  B =  34153.69835  C =  34153.69835 [MHz]
  Nuclear repulsion =   24.334534488106961

  Charge       = 0
  Multiplicity = 1
  Electrons    = 14
  Nalpha       = 7
  Nbeta        = 7

  ==> Algorithm <==

  SCF Algorithm Type is DF.
  DIIS enabled.
  MOM disabled.
  Fractional occupation disabled.
  Guess Type is SAD.
  Energy threshold   = 1.00e-10
  Density threshold  = 1.00e-10
  Integral threshold = 0.00e+00

  ==> Primary Basis <==

  Basis Set: AUG-CC-PVTZ
    Blend: AUG-CC-PVTZ
    Number of shells: 46
    Number of basis function: 138
    Number of Cartesian functions: 160
    Spherical Harmonics?: true
    Max angular momentum: 3

   => Loading Basis Set <=

    Name: (AUG-CC-PVTZ AUX)
    Role: JKFIT
    Keyword: DF_BASIS_SCF
    atoms 1-2 entry C          line   162 file /home/akrom/software/anaconda3/envs/ffpenv/share/psi4/basis/aug-cc-pvtz-jkfit.gbs 
    atoms 3-4 entry H          line    70 file /home/akrom/software/anaconda3/envs/ffpenv/share/psi4/basis/aug-cc-pvtz-jkfit.gbs 

  ==> Pre-Iterations <==

   -------------------------------------------------------
    Irrep   Nso     Nmo     Nalpha   Nbeta   Ndocc  Nsocc
   -------------------------------------------------------
     Ag        30      30       0       0       0       0
     B1g       16      16       0       0       0       0
     B2g       16      16       0       0       0       0
     B3g        7       7       0       0       0       0
     Au         7       7       0       0       0       0
     B1u       16      16       0       0       0       0
     B2u       16      16       0       0       0       0
     B3u       30      30       0       0       0       0
   -------------------------------------------------------
    Total     138     138       7       7       7       0
   -------------------------------------------------------

  ==> Integral Setup <==

  DFHelper Memory: AOs need 0.047 GiB; user supplied 0.366 GiB. Using in-core AOs.

  ==> MemDFJK: Density-Fitted J/K Matrices <==

    J tasked:                   Yes
    K tasked:                   Yes
    wK tasked:                   No
    OpenMP threads:               1
    Memory [MiB]:               375
    Algorithm:                 Core
    Schwarz Cutoff:           1E-12
    Mask sparsity (%):       0.0420
    Fitting Condition:        1E-10

   => Auxiliary Basis Set <=

  Basis Set: (AUG-CC-PVTZ AUX)
    Blend: AUG-CC-PVTZ-JKFIT
    Number of shells: 88
    Number of basis function: 300
    Number of Cartesian functions: 372
    Spherical Harmonics?: true
    Max angular momentum: 4

  Minimum eigenvalue in the overlap matrix is 9.1287963205E-06.
  Using Symmetric Orthogonalization.

  SCF Guess: Superposition of Atomic Densities via on-the-fly atomic UHF.

  ==> Iterations <==

                           Total Energy        Delta E     RMS |[F,P]|

   @DF-RHF iter SAD:   -75.85239769979151   -7.58524e+01   0.00000e+00 
   @DF-RHF iter   1:   -76.79955846837663   -9.47161e-01   5.56260e-03 DIIS
   @DF-RHF iter   2:   -76.84028685853063   -4.07284e-02   1.95576e-03 DIIS
   @DF-RHF iter   3:   -76.84577170128570   -5.48484e-03   2.24831e-04 DIIS
   @DF-RHF iter   4:   -76.84592619477461   -1.54493e-04   2.52432e-05 DIIS
   @DF-RHF iter   5:   -76.84592833384346   -2.13907e-06   4.07394e-06 DIIS
   @DF-RHF iter   6:   -76.84592838989656   -5.60531e-08   7.37422e-07 DIIS
   @DF-RHF iter   7:   -76.84592839193300   -2.03644e-09   1.26083e-07 DIIS
   @DF-RHF iter   8:   -76.84592839200778   -7.47775e-11   1.27827e-08 DIIS
   @DF-RHF iter   9:   -76.84592839200855   -7.67386e-13   1.45557e-09 DIIS
   @DF-RHF iter  10:   -76.84592839200852    2.84217e-14   2.10552e-10 DIIS
   @DF-RHF iter  11:   -76.84592839200846    5.68434e-14   1.32623e-11 DIIS
  Energy and wave function converged.


  ==> Post-Iterations <==

    Orbital Energies [Eh]
    ---------------------

    Doubly Occupied:                                                      

       1Ag   -11.253270     1B3u  -11.249997     2Ag    -1.023101  
       2B3u   -0.766660     3Ag    -0.676726     1B1u   -0.405552  
       1B2u   -0.405552  

    Virtual:                                                              

       4Ag     0.030955     3B3u    0.032437     1B1g    0.091878  
       1B2g    0.091878     2B2u    0.096384     2B1u    0.096384  
       5Ag     0.107466     4B3u    0.110709     6Ag     0.143116  
       2B2g    0.185938     2B1g    0.185938     5B3u    0.225433  
       6B3u    0.256511     3B1u    0.275636     3B2u    0.275636  
       7Ag     0.280868     8Ag     0.300296     1B3g    0.300296  
       9Ag     0.377135     3B1g    0.384590     3B2g    0.384590  
       7B3u    0.399568     1Au     0.399568    10Ag     0.412667  
       8B3u    0.413015     4B2g    0.423922     4B1g    0.423922  
       4B1u    0.492959     4B2u    0.492959     9B3u    0.509999  
      10B3u    0.586221     5B1u    0.598017     5B2u    0.598017  
      11Ag     0.658553     5B2g    0.842590     5B1g    0.842590  
      12Ag     0.886801    13Ag     0.893295     2B3g    0.893295  
      11B3u    0.900229     6B1u    0.933744     6B2u    0.933744  
      14Ag     0.981739    15Ag     1.006400     3B3g    1.006400  
      12B3u    1.024806     2Au     1.024806     6B2g    1.027129  
       6B1g    1.027129    13B3u    1.028839     7B2u    1.052152  
       7B1u    1.052152    16Ag     1.137339     8B1u    1.175954  
       8B2u    1.175954    14B3u    1.193814     3Au     1.193814  
      15B3u    1.199239     7B1g    1.294136     7B2g    1.294136  
      16B3u    1.348448     8B2g    1.387653     8B1g    1.387653  
       9B2u    1.573814     9B1u    1.573814    17Ag     1.627052  
       4B3g    1.627052     9B2g    1.763498     9B1g    1.763498  
      18Ag     1.777206    10B1u    1.900058    10B2u    1.900058  
      17B3u    1.931492    18B3u    2.019564     4Au     2.019564  
      19Ag     2.021834    19B3u    2.147760    20Ag     2.207483  
      10B2g    2.344121    10B1g    2.344121    20B3u    2.789563  
      11B2u    2.804384    11B1u    2.804384    21Ag     3.006690  
      21B3u    3.089361     5B3g    3.179706    22Ag     3.179706  
      11B2g    3.195245    11B1g    3.195245    12B1u    3.316141  
      12B2u    3.316141    13B1u    3.369291    13B2u    3.369291  
       5Au     3.447119    22B3u    3.447119    23Ag     3.566711  
       6B3g    3.566711    24Ag     3.596053    12B1g    3.688224  
      12B2g    3.688224    25Ag     3.721100    14B1u    3.782818  
      14B2u    3.782818    13B2g    3.856092    13B1g    3.856092  
      23B3u    3.870107    24B3u    4.087145     6Au     4.087145  
      26Ag     4.146546     7B3g    4.146546    25B3u    4.315930  
      26B3u    4.633239     7Au     4.633239    27Ag     4.638188  
      15B1u    4.746403    15B2u    4.746403    14B1g    4.759344  
      14B2g    4.759344    15B1g    4.979435    15B2g    4.979435  
      27B3u    5.254832    28Ag     5.370933    16B2u    5.768303  
      16B1u    5.768303    28B3u    6.162459    29B3u    6.686713  
      16B2g    6.728982    16B1g    6.728982    29Ag     6.897591  
      30Ag    13.434471    30B3u   18.950430  

    Final Occupation by Irrep:
             Ag   B1g   B2g   B3g    Au   B1u   B2u   B3u 
    DOCC [     3,    0,    0,    0,    0,    1,    1,    2 ]

  @DF-RHF Final Energy:   -76.84592839200846

   => Energetics <=

    Nuclear Repulsion Energy =             24.3345344881069607
    One-Electron Energy =                -150.7992091064632802
    Two-Electron Energy =                  49.6187462263478665
    Total Energy =                        -76.8459283920084602

Computation Completed


Properties will be evaluated at   0.000000,   0.000000,   0.000000 [a0]

Properties computed using the SCF density matrix

  Nuclear Dipole Moment: [e a0]
     X:     0.0000      Y:     0.0000      Z:     0.0000

  Electronic Dipole Moment: [e a0]
     X:     0.0000      Y:     0.0000      Z:     0.0000

  Dipole Moment: [e a0]
     X:     0.0000      Y:     0.0000      Z:     0.0000     Total:     0.0000

  Dipole Moment: [D]
     X:     0.0000      Y:     0.0000      Z:     0.0000     Total:     0.0000


*** tstop() called on atlantis at Tue Apr 19 01:44:42 2022
Module time:
	user time   =       0.80 seconds =       0.01 minutes
	system time =       0.00 seconds =       0.00 minutes
	total time  =          1 seconds =       0.02 minutes
Total time:
	user time   =      12.47 seconds =       0.21 minutes
	system time =       0.40 seconds =       0.01 minutes
	total time  =         13 seconds =       0.22 minutes

*** tstart() called on atlantis
*** at Tue Apr 19 01:44:42 2022


  //>>>>>>>>>>>>>>>>>>>>>>>>>>>>>>>>>>>//
  //               DFMP2               //
  //<<<<<<<<<<<<<<<<<<<<<<<<<<<<<<<<<<<//

   => Loading Basis Set <=

    Name: (AUG-CC-PVTZ AUX)
    Role: RIFIT
    Keyword: DF_BASIS_MP2
    atoms 1-2 entry C          line   148 file /home/akrom/software/anaconda3/envs/ffpenv/share/psi4/basis/aug-cc-pvtz-ri.gbs 
    atoms 3-4 entry H          line    30 file /home/akrom/software/anaconda3/envs/ffpenv/share/psi4/basis/aug-cc-pvtz-ri.gbs 

	 --------------------------------------------------------
	                          DF-MP2                         
	      2nd-Order Density-Fitted Moller-Plesset Theory     
	              RMP2 Wavefunction,   1 Threads             
	                                                         
	        Rob Parrish, Justin Turney, Andy Simmonett,      
	           Ed Hohenstein, and C. David Sherrill          
	 --------------------------------------------------------

   => Auxiliary Basis Set <=

  Basis Set: (AUG-CC-PVTZ AUX)
    Blend: AUG-CC-PVTZ-RI
    Number of shells: 84
    Number of basis function: 304
    Number of Cartesian functions: 382
    Spherical Harmonics?: true
    Max angular momentum: 4

	 --------------------------------------------------------
	                 NBF =   138, NAUX =   304
	 --------------------------------------------------------
[...]
      34A1     1.776370    19B2     1.899737    19B1     1.899737  
      35A1     1.931323    36A1     2.019255     8A2     2.019255  
      37A1     2.022229    38A1     2.146962    39A1     2.206459  
      20B1     2.344210    20B2     2.344210    40A1     2.789284  
      21B2     2.804534    21B1     2.804534    41A1     3.006881  
      42A1     3.088246     9A2     3.179933    43A1     3.179933  
      22B1     3.194662    22B2     3.194662    23B2     3.315517  
      23B1     3.315517    24B2     3.369499    24B1     3.369499  
      10A2     3.446899    44A1     3.446899    11A2     3.566197  
      45A1     3.566197    46A1     3.595315    25B1     3.687653  
      25B2     3.687653    47A1     3.720698    26B2     3.782148  
      26B1     3.782148    27B1     3.855983    27B2     3.855983  
      48A1     3.870660    49A1     4.086530    12A2     4.086530  
      13A2     4.146709    50A1     4.146709    51A1     4.315759  
      14A2     4.632705    52A1     4.632705    53A1     4.637116  
      28B2     4.746926    28B1     4.746926    29B2     4.758661  
      29B1     4.758661    30B1     4.979579    30B2     4.979579  
      54A1     5.256179    55A1     5.371953    31B1     5.768359  
      31B2     5.768359    56A1     6.163991    57A1     6.686661  
      32B1     6.729190    32B2     6.729190    58A1     6.895357  
      59A1    13.446721    60A1    18.919661  

    Final Occupation by Irrep:
             A1    A2    B1    B2 
    DOCC [     5,    0,    1,    1 ]

  @DF-RHF Final Energy:   -76.84574930185546

   => Energetics <=

    Nuclear Repulsion Energy =             24.3232393838559098
    One-Electron Energy =                -150.7752309850100119
    Two-Electron Energy =                  49.6062422992986427
    Total Energy =                        -76.8457493018554629

Computation Completed


Properties will be evaluated at   0.000000,   0.000000,   0.000000 [a0]

Properties computed using the SCF density matrix

  Nuclear Dipole Moment: [e a0]
     X:     0.0034      Y:     0.0000      Z:     0.0000

  Electronic Dipole Moment: [e a0]
     X:    -0.0016      Y:     0.0000      Z:     0.0000

  Dipole Moment: [e a0]
     X:     0.0017      Y:     0.0000      Z:     0.0000     Total:     0.0017

  Dipole Moment: [D]
     X:     0.0044      Y:     0.0000      Z:     0.0000     Total:     0.0044


*** tstop() called on atlantis at Tue Apr 19 01:45:14 2022
Module time:
	user time   =       0.76 seconds =       0.01 minutes
	system time =       0.01 seconds =       0.00 minutes
	total time  =          1 seconds =       0.02 minutes
Total time:
	user time   =      43.27 seconds =       0.72 minutes
	system time =       1.38 seconds =       0.02 minutes
	total time  =         45 seconds =       0.75 minutes

*** tstart() called on atlantis
*** at Tue Apr 19 01:45:14 2022


  //>>>>>>>>>>>>>>>>>>>>>>>>>>>>>>>>>>>//
  //               DFMP2               //
  //<<<<<<<<<<<<<<<<<<<<<<<<<<<<<<<<<<<//

   => Loading Basis Set <=

    Name: (AUG-CC-PVTZ AUX)
    Role: RIFIT
    Keyword: DF_BASIS_MP2
    atoms 1-2 entry C          line   148 file /home/akrom/software/anaconda3/envs/ffpenv/share/psi4/basis/aug-cc-pvtz-ri.gbs 
    atoms 3-4 entry H          line    30 file /home/akrom/software/anaconda3/envs/ffpenv/share/psi4/basis/aug-cc-pvtz-ri.gbs 

	 --------------------------------------------------------
	                          DF-MP2                         
	      2nd-Order Density-Fitted Moller-Plesset Theory     
	              RMP2 Wavefunction,   1 Threads             
	                                                         
	        Rob Parrish, Justin Turney, Andy Simmonett,      
	           Ed Hohenstein, and C. David Sherrill          
	 --------------------------------------------------------

   => Auxiliary Basis Set <=

  Basis Set: (AUG-CC-PVTZ AUX)
    Blend: AUG-CC-PVTZ-RI
    Number of shells: 84
    Number of basis function: 304
    Number of Cartesian functions: 382
    Spherical Harmonics?: true
    Max angular momentum: 4

	 --------------------------------------------------------
	                 NBF =   138, NAUX =   304
	 --------------------------------------------------------
	   CLASS    FOCC     OCC    AOCC    AVIR     VIR    FVIR
	   PAIRS       0       7       7     131     131       0
	 --------------------------------------------------------

  DFHelper Memory: AOs need 0.047 GiB; user supplied 0.366 GiB. Using in-core AOs.


         ------------------------------------------------------------
                                     CPHF                           
                                  Rob Parrish                       
         ------------------------------------------------------------

  ==> Geometry <==

    Molecular point group: c2v
    Full point group: C_inf_v

    Geometry (in Angstrom), charge = 0, multiplicity = 1:

       Center              X                  Y                   Z               Mass       
    ------------   -----------------  -----------------  -----------------  -----------------
         C           -0.614610333491     0.000000000000     0.000000000000    12.000000000000
         C            0.614309666509     0.000000000000     0.000000000000    12.000000000000
         H           -1.687440004874     0.000000000000     0.000000000000     1.007825032230
         H            1.691019995126     0.000000000000     0.000000000000     1.007825032230

  Nuclear repulsion =   24.323239383855910
  Reference energy  =  -76.845749301855463

  ==> Basis Set <==

  Basis Set: AUG-CC-PVTZ
    Blend: AUG-CC-PVTZ
    Number of shells: 46
    Number of basis function: 138
    Number of Cartesian functions: 160
    Spherical Harmonics?: true
    Max angular momentum: 3

  ==> CGRSolver (by Rob Parrish) <==

   Number of roots    =         1
   Preconditioning    =    JACOBI
   Convergence cutoff =     1E-06
   Maximum iterations =       100

  ==> CPHFRHamiltonian (by Rob Parrish) <== 

  ==> MemDFJK: Density-Fitted J/K Matrices <==

    J tasked:                   Yes
    K tasked:                   Yes
    wK tasked:                   No
    OpenMP threads:               1
    Memory [MiB]:               375
    Algorithm:                 Core
    Schwarz Cutoff:           1E-12
    Mask sparsity (%):       0.0420
    Fitting Condition:        1E-10

   => Auxiliary Basis Set <=

  Basis Set: (AUG-CC-PVTZ AUX)
    Blend: AUG-CC-PVTZ-JKFIT
    Number of shells: 88
    Number of basis function: 300
    Number of Cartesian functions: 372
    Spherical Harmonics?: true
    Max angular momentum: 4

  ==> CPHF Iterations <==

  => Iterations <=

             Iter  Converged  Remaining    Residual
  CGR           1          0          1   6.265E-02
  CGR           2          0          1   1.249E-02
  CGR           3          0          1   2.277E-03
  CGR           4          0          1   3.464E-04
  CGR           5          0          1   1.446E-04
  CGR           6          0          1   2.089E-05
  CGR           7          0          1   1.712E-06
  CGR           8          1          0   1.667E-07

    CGRSolver converged.

  ==> DFCorrGrad: Density-Fitted Correlated Gradients <==

    OpenMP threads:              1
    Integrals threads:           1
    Memory [GiB]:            0.366
    Schwarz Cutoff:          0E+00
    Fitting Condition:       1E-10

   => Auxiliary Basis Set <=

  Basis Set: (AUG-CC-PVTZ AUX)
    Blend: AUG-CC-PVTZ-JKFIT
    Number of shells: 88
    Number of basis function: 300
    Number of Cartesian functions: 372
    Spherical Harmonics?: true
    Max angular momentum: 4

	-----------------------------------------------------------
	 ==================> DF-MP2 Energies <==================== 
	-----------------------------------------------------------
	 Reference Energy          =     -76.8457493018554629 [Eh]
	 Singles Energy            =      -0.0000000000000000 [Eh]
	 Same-Spin Energy          =      -0.0780701199931680 [Eh]
	 Opposite-Spin Energy      =      -0.2729336417682472 [Eh]
	 Correlation Energy        =      -0.3510037617614153 [Eh]
	 Total Energy              =     -77.1967530636168817 [Eh]
	-----------------------------------------------------------
	 ================> DF-SCS-MP2 Energies <================== 
	-----------------------------------------------------------
	 SCS Same-Spin Scale       =       0.3333333333333333 [-]
	 SCS Opposite-Spin Scale   =       1.2000000000000000 [-]
	 SCS Same-Spin Energy      =      -0.0260233733310560 [Eh]
	 SCS Opposite-Spin Energy  =      -0.3275203701218967 [Eh]
	 SCS Correlation Energy    =      -0.3535437434529527 [Eh]
	 SCS Total Energy          =     -77.1992930453084227 [Eh]
	-----------------------------------------------------------


  -Total Gradient:
     Atom            X                  Y                   Z
    ------   -----------------  -----------------  -----------------
       1       -0.024279506199     0.000000000000     0.000000000000
       2        0.021581395113     0.000000000000     0.000000000000
       3       -0.012454198076     0.000000000000     0.000000000000
       4        0.015152309163     0.000000000000     0.000000000000


*** tstop() called on atlantis at Tue Apr 19 01:45:17 2022
Module time:
	user time   =       2.69 seconds =       0.04 minutes
	system time =       0.11 seconds =       0.00 minutes
	total time  =          3 seconds =       0.05 minutes
Total time:
	user time   =      45.96 seconds =       0.77 minutes
	system time =       1.49 seconds =       0.02 minutes
	total time  =         48 seconds =       0.80 minutes

         ----------------------------------------------------------
                                   FINDIF
                     R. A. King and Jonathon Misiewicz
         ---------------------------------------------------------

  Computing second-derivative from gradients using projected, 
  symmetry-adapted, cartesian coordinates.

  12 gradients passed in, including the reference geometry.
  Generating complete list of displacements from unique ones.

    Operation 3 takes plus displacements of irrep B1g to minus ones.
    Operation 2 takes plus displacements of irrep B2g to minus ones.
    Operation 3 takes plus displacements of irrep B1u to minus ones.
    Operation 2 takes plus displacements of irrep B2u to minus ones.
    Operation 2 takes plus displacements of irrep B3u to minus ones.

-------------------------------------------------------------


  ==> Harmonic Vibrational Analysis <==

  non-mass-weighted Hessian:       Symmetric? True   Hermitian? True   Lin Dep Dim?  3 (0)
  projection of translations (True) and rotations (False) removed 3 degrees of freedom (5)
  total projector:                 Symmetric? True   Hermitian? True   Lin Dep Dim?  3 (3)
  mass-weighted Hessian:           Symmetric? True   Hermitian? True   Lin Dep Dim?  3 (0)
  pre-proj  low-frequency mode:    0.0000i [cm^-1]
  pre-proj  low-frequency mode:    0.0000  [cm^-1]
  pre-proj  low-frequency mode:    0.0000  [cm^-1]
  pre-proj  low-frequency mode:  261.0361  [cm^-1]
  pre-proj  low-frequency mode:  261.0364  [cm^-1]
  pre-proj  all modes:['0.0000i' '0.0000' '0.0000' '261.0361' '261.0364' '731.5790' '731.5791'
 '850.1829' '850.1831' '1861.3653' '3233.7114' '3374.9322']
  projected mass-weighted Hessian: Symmetric? True   Hermitian? True   Lin Dep Dim?  3 (3)
  post-proj low-frequency mode:    0.0001i [cm^-1] (TR)
  post-proj low-frequency mode:    0.0000i [cm^-1] (TR)
  post-proj low-frequency mode:    0.0000i [cm^-1] (TR)
  post-proj low-frequency mode:  261.0361  [cm^-1] (V)
  post-proj low-frequency mode:  261.0364  [cm^-1] (V)
  post-proj  all modes:['0.0001i' '0.0000i' '0.0000i' '261.0361' '261.0364' '731.5790' '731.5791'
 '850.1829' '850.1831' '1861.3653' '3233.7114' '3374.9322']

  Note that "Vibration"s include 2 un-projected rotation-like modes.
  Vibration                       4                   5                   6           
  Freq [cm^-1]                 261.0361            261.0364            731.5790       
  Irrep                          B1g                 B2g                 B1g          
  Reduced mass [u]              2.6835              2.6835              1.4226        
  Force const [mDyne/A]         0.1077              0.1077              0.4486        
  Turning point v=0 [a0]        0.4146              0.4146              0.3401        
  RMS dev v=0 [a0 u^1/2]        0.4802              0.4802              0.2869        
  Char temp [K]                375.5728            375.5733           1052.5794       
  ----------------------------------------------------------------------------------
      1   C                0.00  0.28  0.00    0.00 -0.00  0.28   -0.00 -0.14 -0.00   
      2   C                0.00 -0.28 -0.00    0.00  0.00 -0.28   -0.00  0.14  0.00   
      3   H                0.00  0.65  0.00    0.00 -0.00  0.65   -0.00  0.69  0.00   
      4   H                0.00 -0.65 -0.00    0.00  0.00 -0.65   -0.00 -0.69 -0.00   

  Vibration                       7                   8                   9           
  Freq [cm^-1]                 731.5791            850.1829            850.1831       
  Irrep                          B2g                 B2u                 B1u          
  Reduced mass [u]              1.4226              1.0848              1.0848        
  Force const [mDyne/A]         0.4486              0.4620              0.4620        
  Turning point v=0 [a0]        0.3401              0.3613              0.3613        
  RMS dev v=0 [a0 u^1/2]        0.2869              0.2661              0.2661        
  Char temp [K]               1052.5794           1223.2239           1223.2242       
  ----------------------------------------------------------------------------------
      1   C               -0.00  0.00 -0.14   -0.00 -0.06  0.00   -0.00 -0.00 -0.06   
      2   C               -0.00 -0.00  0.14   -0.00 -0.06  0.00   -0.00 -0.00 -0.06   
      3   H               -0.00 -0.00  0.69   -0.00  0.70 -0.00   -0.00  0.00  0.70   
      4   H                0.00  0.00 -0.69   -0.00  0.70 -0.00    0.00  0.00  0.70   

  Vibration                       10                  11                  12          
  Freq [cm^-1]                1861.3653           3233.7114           3374.9322       
  Irrep                           Ag                 B3u                  Ag          
  Reduced mass [u]              4.1173              1.0848              1.2009        
  Force const [mDyne/A]         8.4047              6.6836              8.0593        
  Turning point v=0 [a0]        0.1253              0.1853              0.1724        
  RMS dev v=0 [a0 u^1/2]        0.1798              0.1364              0.1336        
  Char temp [K]               2678.0903           4652.5908           4855.7761       
  ----------------------------------------------------------------------------------
      1   C                0.38 -0.00 -0.00   -0.06 -0.00  0.00   -0.09  0.00 -0.00   
      2   C               -0.38  0.00  0.00   -0.06  0.00 -0.00    0.09 -0.00  0.00   
      3   H                0.60  0.00  0.00    0.70  0.00  0.00    0.70 -0.00  0.00   
      4   H               -0.60 -0.00 -0.00    0.70 -0.00 -0.00   -0.70  0.00 -0.00   

  ==> Thermochemistry Components <==

  Entropy, S
    Electronic S            0.000 [cal/(mol K)]        0.000 [J/(mol K)]       0.00000000 [mEh/K] (multiplicity = 1)
    Translational S        35.704 [cal/(mol K)]      149.387 [J/(mol K)]       0.05689862 [mEh/K] (mol. weight = 26.0157 [u], P = 101325.00 [Pa])
    Rotational S           10.952 [cal/(mol K)]       45.824 [J/(mol K)]       0.01745345 [mEh/K] (symmetry no. = 2)
    Vibrational S           4.194 [cal/(mol K)]       17.548 [J/(mol K)]       0.00668360 [mEh/K]
  Total S                  50.851 [cal/(mol K)]      212.759 [J/(mol K)]       0.08103567 [mEh/K]
  Correction S              0.000 [cal/(mol K)]        0.000 [J/(mol K)]       0.00000000 [mEh/K]

  Constant volume heat capacity, Cv
    Electronic Cv           0.000 [cal/(mol K)]        0.000 [J/(mol K)]       0.00000000 [mEh/K]
    Translational Cv        2.981 [cal/(mol K)]       12.472 [J/(mol K)]       0.00475022 [mEh/K]
    Rotational Cv           1.987 [cal/(mol K)]        8.314 [J/(mol K)]       0.00316681 [mEh/K]
    Vibrational Cv          6.191 [cal/(mol K)]       25.905 [J/(mol K)]       0.00986676 [mEh/K]
  Total Cv                 11.159 [cal/(mol K)]       46.691 [J/(mol K)]       0.01778378 [mEh/K]
  Correction Cv             0.000 [cal/(mol K)]        0.000 [J/(mol K)]       0.00000000 [mEh/K]

  Constant pressure heat capacity, Cp
    Electronic Cp           0.000 [cal/(mol K)]        0.000 [J/(mol K)]       0.00000000 [mEh/K]
    Translational Cp        4.968 [cal/(mol K)]       20.786 [J/(mol K)]       0.00791703 [mEh/K]
    Rotational Cp           1.987 [cal/(mol K)]        8.314 [J/(mol K)]       0.00316681 [mEh/K]
    Vibrational Cp          6.191 [cal/(mol K)]       25.905 [J/(mol K)]       0.00986676 [mEh/K]
  Total Cp                 13.147 [cal/(mol K)]       55.006 [J/(mol K)]       0.02095059 [mEh/K]
  Correction Cp             0.000 [cal/(mol K)]        0.000 [J/(mol K)]       0.00000000 [mEh/K]

  ==> Thermochemistry Energy Analysis <==

  Raw electronic energy, E0
  Total E0, Electronic energy at well bottom at 0 [K]                  -77.19675801 [Eh]

  Zero-point energy, ZPE_vib = Sum_i nu_i / 2
    Electronic ZPE          0.000 [kcal/mol]        0.000 [kJ/mol]       0.00000000 [Eh]
    Translational ZPE       0.000 [kcal/mol]        0.000 [kJ/mol]       0.00000000 [Eh]
    Rotational ZPE          0.000 [kcal/mol]        0.000 [kJ/mol]       0.00000000 [Eh]
    Vibrational ZPE        17.377 [kcal/mol]       72.707 [kJ/mol]       0.02769251 [Eh]        6077.803 [cm^-1]
  Correction ZPE           17.377 [kcal/mol]       72.707 [kJ/mol]       0.02769251 [Eh]        6077.803 [cm^-1]
  Total ZPE, Electronic energy at 0 [K]                                -77.16906550 [Eh]

  Thermal Energy, E (includes ZPE)
    Electronic E            0.000 [kcal/mol]        0.000 [kJ/mol]       0.00000000 [Eh]
    Translational E         0.889 [kcal/mol]        3.718 [kJ/mol]       0.00141628 [Eh]
    Rotational E            0.592 [kcal/mol]        2.479 [kJ/mol]       0.00094418 [Eh]
    Vibrational E          18.177 [kcal/mol]       76.054 [kJ/mol]       0.02896730 [Eh]
  Correction E             19.658 [kcal/mol]       82.251 [kJ/mol]       0.03132776 [Eh]
  Total E, Electronic energy at  298.15 [K]                            -77.16543025 [Eh]

  Enthalpy, H_trans = E_trans + k_B * T
    Electronic H            0.000 [kcal/mol]        0.000 [kJ/mol]       0.00000000 [Eh]
    Translational H         1.481 [kcal/mol]        6.197 [kJ/mol]       0.00236046 [Eh]
    Rotational H            0.592 [kcal/mol]        2.479 [kJ/mol]       0.00094418 [Eh]
    Vibrational H          18.177 [kcal/mol]       76.054 [kJ/mol]       0.02896730 [Eh]
  Correction H             20.251 [kcal/mol]       84.730 [kJ/mol]       0.03227195 [Eh]
  Total H, Enthalpy at  298.15 [K]                                     -77.16448606 [Eh]

  Gibbs free energy, G = H - T * S
    Electronic G            0.000 [kcal/mol]        0.000 [kJ/mol]       0.00000000 [Eh]
    Translational G        -9.164 [kcal/mol]      -38.342 [kJ/mol]      -0.01460386 [Eh]
    Rotational G           -2.673 [kcal/mol]      -11.183 [kJ/mol]      -0.00425956 [Eh]
    Vibrational G          16.927 [kcal/mol]       70.822 [kJ/mol]       0.02697459 [Eh]
  Correction G              5.090 [kcal/mol]       21.296 [kJ/mol]       0.00811116 [Eh]
  Total G, Free enthalpy at  298.15 [K]                                -77.18864685 [Eh]

    Psi4 stopped on: Tuesday, 19 April 2022 01:45AM
    Psi4 wall time for execution: 0:00:47.96

*** Psi4 exiting successfully. Buy a developer a beer!
