
    -----------------------------------------------------------------------
          Psi4: An Open-Source Ab Initio Electronic Structure Package
                               Psi4 1.3.2 release

                         Git: Rev {HEAD} ecbda83 


    R. M. Parrish, L. A. Burns, D. G. A. Smith, A. C. Simmonett,
    A. E. DePrince III, E. G. Hohenstein, U. Bozkaya, A. Yu. Sokolov,
    R. Di Remigio, R. M. Richard, J. F. Gonthier, A. M. James,
    H. R. McAlexander, A. Kumar, M. Saitow, X. Wang, B. P. Pritchard,
    P. Verma, H. F. Schaefer III, K. Patkowski, R. A. King, E. F. Valeev,
    F. A. Evangelista, J. M. Turney, T. D. Crawford, and C. D. Sherrill,
    J. Chem. Theory Comput. 13(7) pp 3185--3197 (2017).
    (doi: 10.1021/acs.jctc.7b00174)


                         Additional Contributions by
    P. Kraus, H. Kruse, M. H. Lechner, M. C. Schieber, R. A. Shaw,
    A. Alenaizan, R. Galvelis, Z. L. Glick, S. Lehtola, and J. P. Misiewicz

    -----------------------------------------------------------------------


    Psi4 started on: Wednesday, 20 April 2022 12:57AM

    Process ID: 12258
    Host:       atlantis
    PSIDATADIR: /home/akrom/software/anaconda3/envs/ffpenv/share/psi4
    Memory:     500.0 MiB
    Threads:    1
    
  ==> Input File <==

--------------------------------------------------------------------------
set basis  6-31+G*
molecule {
0 1
   C       -1.22151       -0.69325        0.00000
   C       -1.21114        0.71122        0.00000
   C       -0.01037       -1.40452        0.00000
   C        0.01037        1.40452        0.00000
   C        1.21114       -0.71122        0.00000
   C        1.22151        0.69325        0.00000
   H       -2.17311       -1.23332        0.00000
   H       -2.15464        1.26533        0.00000
   H       -0.01848       -2.49865        0.00000
   H        0.01848        2.49865        0.00000
   H        2.15464       -1.26533        0.00000
   H        2.17311        1.23332        0.00000
}
energy('B3LYP')
frequencies('B3LYP')
--------------------------------------------------------------------------

*** tstart() called on atlantis
*** at Wed Apr 20 00:57:39 2022

   => Loading Basis Set <=

    Name: 6-31+G*
    Role: ORBITAL
    Keyword: BASIS
    atoms 1-6  entry C          line   119 file /home/akrom/software/anaconda3/envs/ffpenv/share/psi4/basis/6-31pgs.gbs 
    atoms 7-12 entry H          line    46 file /home/akrom/software/anaconda3/envs/ffpenv/share/psi4/basis/6-31pgs.gbs 


         ---------------------------------------------------------
                                   SCF
               by Justin Turney, Rob Parrish, Andy Simmonett
                          and Daniel G. A. Smith
                              RKS Reference
                        1 Threads,    500 MiB Core
         ---------------------------------------------------------

  ==> Geometry <==

    Molecular point group: c2h
    Full point group: C2h

    Geometry (in Angstrom), charge = 0, multiplicity = 1:

       Center              X                  Y                   Z               Mass       
    ------------   -----------------  -----------------  -----------------  -----------------
         C           -1.221510000000    -0.693250000000     0.000000000000    12.000000000000
         C           -1.211140000000     0.711220000000     0.000000000000    12.000000000000
         C           -0.010370000000    -1.404520000000     0.000000000000    12.000000000000
         C            0.010370000000     1.404520000000     0.000000000000    12.000000000000
         C            1.211140000000    -0.711220000000     0.000000000000    12.000000000000
         C            1.221510000000     0.693250000000     0.000000000000    12.000000000000
         H           -2.173110000000    -1.233320000000     0.000000000000     1.007825032230
         H           -2.154640000000     1.265330000000     0.000000000000     1.007825032230
         H           -0.018480000000    -2.498650000000     0.000000000000     1.007825032230
         H            0.018480000000     2.498650000000     0.000000000000     1.007825032230
         H            2.154640000000    -1.265330000000     0.000000000000     1.007825032230
         H            2.173110000000     1.233320000000     0.000000000000     1.007825032230

  Running in c2h symmetry.

  Rotational constants: A =      0.18753  B =      0.18752  C =      0.09376 [cm^-1]
  Rotational constants: A =   5621.92707  B =   5621.82252  C =   2810.93740 [MHz]
  Nuclear repulsion =  202.013308935380167

  Charge       = 0
  Multiplicity = 1
  Electrons    = 42
  Nalpha       = 21
  Nbeta        = 21

  ==> Algorithm <==

  SCF Algorithm Type is DF.
  DIIS enabled.
  MOM disabled.
  Fractional occupation disabled.
  Guess Type is SAD.
  Energy threshold   = 1.00e-06
  Density threshold  = 1.00e-06
  Integral threshold = 0.00e+00

  ==> Primary Basis <==

  Basis Set: 6-31+G*
    Blend: 6-31+G*
    Number of shells: 60
    Number of basis function: 126
    Number of Cartesian functions: 126
    Spherical Harmonics?: false
    Max angular momentum: 2

  ==> DFT Potential <==

   => Composite Functional: B3LYP <= 

    B3LYP Hyb-GGA Exchange-Correlation Functional

    P. J. Stephens, F. J. Devlin, C. F. Chabalowski, and M. J. Frisch, J. Phys. Chem. 98, 11623 (1994)

    Deriv               =              1
    GGA                 =           TRUE
    Meta                =          FALSE

    Exchange Hybrid     =           TRUE
    MP2 Hybrid          =          FALSE

   => Exchange Functionals <=

    0.0800   Slater exchange
    0.7200         Becke 88

   => Exact (HF) Exchange <=

    0.2000               HF 

   => Correlation Functionals <=

    0.1900   Vosko, Wilk & Nusair (VWN5_RPA)
    0.8100   Lee, Yang & Parr

   => Molecular Quadrature <=

    Radial Scheme          =       TREUTLER
    Pruning Scheme         =           FLAT
    Nuclear Scheme         =       TREUTLER

    BS radius alpha        =              1
    Pruning alpha          =              1
    Radial Points          =             75
    Spherical Points       =            302
    Total Points           =         271800
    Total Blocks           =           2142
    Max Points             =            256
    Max Functions          =            126

   => Loading Basis Set <=

    Name: (6-31+G* AUX)
    Role: JKFIT
    Keyword: DF_BASIS_SCF
    atoms 1-6  entry C          line   194 file /home/akrom/software/anaconda3/envs/ffpenv/share/psi4/basis/heavy-aug-cc-pvdz-jkfit.gbs 
    atoms 7-12 entry H          line   116 file /home/akrom/software/anaconda3/envs/ffpenv/share/psi4/basis/heavy-aug-cc-pvdz-jkfit.gbs 

  ==> Pre-Iterations <==

   -------------------------------------------------------
    Irrep   Nso     Nmo     Nalpha   Nbeta   Ndocc  Nsocc
   -------------------------------------------------------
     Ag        48      48       0       0       0       0
     Bg        15      15       0       0       0       0
     Au        15      15       0       0       0       0
     Bu        48      48       0       0       0       0
   -------------------------------------------------------
    Total     126     126      21      21      21       0
   -------------------------------------------------------

  ==> Integral Setup <==

  DFHelper Memory: AOs need 0.097 GiB; user supplied 0.097 GiB. Using in-core AOs.

  ==> MemDFJK: Density-Fitted J/K Matrices <==

    J tasked:                   Yes
    K tasked:                   Yes
    wK tasked:                   No
    OpenMP threads:               1
    Memory [MiB]:                99
    Algorithm:                 Core
    Schwarz Cutoff:           1E-12
    Mask sparsity (%):       0.2268
    Fitting Condition:        1E-10

   => Auxiliary Basis Set <=

  Basis Set: (6-31+G* AUX)
    Blend: HEAVY-AUG-CC-PVDZ-JKFIT
    Number of shells: 222
    Number of basis function: 756
    Number of Cartesian functions: 756
    Spherical Harmonics?: false
    Max angular momentum: 3

  Cached 33.3% of DFT collocation blocks in 0.277 [GiB].

  Minimum eigenvalue in the overlap matrix is 6.7977624208E-06.
  Using Symmetric Orthogonalization.

  SCF Guess: Superposition of Atomic Densities via on-the-fly atomic UHF.

  ==> Iterations <==

                           Total Energy        Delta E     RMS |[F,P]|

   @DF-RKS iter SAD:  -231.56544079356385   -2.31565e+02   0.00000e+00 
   @DF-RKS iter   1:  -231.70117960206989   -1.35739e-01   1.37297e-02 DIIS
   @DF-RKS iter   2:  -231.22138098135460    4.79799e-01   1.89507e-02 DIIS
   @DF-RKS iter   3:  -232.25651296922260   -1.03513e+00   9.04770e-04 DIIS
   @DF-RKS iter   4:  -232.25838492006011   -1.87195e-03   2.24361e-04 DIIS
   @DF-RKS iter   5:  -232.25850386184391   -1.18942e-04   2.31462e-05 DIIS
   @DF-RKS iter   6:  -232.25850550495247   -1.64311e-06   5.89601e-07 DIIS
   @DF-RKS iter   7:  -232.25850550594240   -9.89928e-10   3.40133e-07 DIIS
  Energy and wave function converged.


  ==> Post-Iterations <==

    Orbital Energies [Eh]
    ---------------------

    Doubly Occupied:                                                      

       1Ag   -10.201291     1Bu   -10.201039     2Bu   -10.201035  
       2Ag   -10.200508     3Ag   -10.200504     3Bu   -10.200253  
       4Ag    -0.854019     4Bu    -0.748211     5Bu    -0.748207  
       5Ag    -0.605672     6Ag    -0.605663     7Ag    -0.524954  
       6Bu    -0.467278     7Bu    -0.447241     8Bu    -0.425597  
       9Bu    -0.425591     1Au    -0.367635     8Ag    -0.349635  
       9Ag    -0.349612     1Bg    -0.256606     2Bg    -0.256600  

    Virtual:                                                              

       2Au    -0.015836     3Au    -0.015823    10Ag     0.008563  
      10Bu     0.025944    11Bu     0.025946    11Ag     0.045436  
      12Ag     0.045438     4Au     0.067005    12Bu     0.077215  
      13Ag     0.079374     3Bg     0.092274     4Bg     0.092281  
      13Bu     0.099357     5Bg     0.124725     5Au     0.142339  
       6Au     0.142349    14Ag     0.144074    15Ag     0.144075  
      14Bu     0.154832    15Bu     0.154837    16Ag     0.193675  
      16Bu     0.195483    17Bu     0.195487     6Bg     0.203451  
      17Ag     0.211357    18Ag     0.211364    18Bu     0.233444  
      19Bu     0.241853    20Bu     0.241859    19Ag     0.265713  
      20Ag     0.275273    21Ag     0.275277    21Bu     0.321478  
      22Bu     0.344710    23Bu     0.344732    22Ag     0.345905  
      23Ag     0.345919    24Ag     0.559449    24Bu     0.577200  
      25Bu     0.593332    25Ag     0.619636     7Au     0.659165  
       7Bg     0.717445     8Bg     0.717452    26Ag     0.718619  
      27Ag     0.718629     8Au     0.745919     9Au     0.745924  
      26Bu     0.765972    27Bu     0.765980     9Bg     0.802219  
      28Ag     0.827249    28Bu     0.891333    29Ag     0.927642  
      30Ag     0.927643    29Bu     0.963184    30Bu     0.963200  
      31Ag     0.970371    32Ag     1.028328    31Bu     1.072609  
      32Bu     1.072624    33Bu     1.132811    34Bu     1.132862  
      33Ag     1.169969    34Ag     1.169972    10Bg     1.250775  
      35Bu     1.305507    10Au     1.394525    35Ag     1.428126  
      36Ag     1.428160    11Au     1.476283    12Au     1.476305  
      11Bg     1.505132    12Bg     1.505139    37Ag     1.746682  
      36Bu     1.810182    38Ag     1.874489    37Bu     1.892215  
      38Bu     1.975748    39Bu     1.975752    39Ag     2.092621  
      40Ag     2.092626    13Au     2.145878    14Au     2.145890  
      40Bu     2.151999    41Bu     2.152043    13Bg     2.294823  
      14Bg     2.294889    15Bg     2.312278    41Ag     2.565485  
      42Ag     2.565509    15Au     2.630661    43Ag     2.684542  
      44Ag     2.684587    42Bu     2.723966    43Bu     2.724001  
      44Bu     2.818817    45Ag     3.010889    45Bu     3.372322  
      46Ag     4.210714    46Bu     4.235568    47Bu     4.235587  
      47Ag     4.374224    48Ag     4.374226    48Bu     4.670045  

    Final Occupation by Irrep:
             Ag    Bg    Au    Bu 
    DOCC [     9,    2,    1,    9 ]

  @DF-RKS Final Energy:  -232.25850550594240

   => Energetics <=

    Nuclear Repulsion Energy =            202.0133089353801665
    One-Electron Energy =                -711.0770444872810003
    Two-Electron Energy =                 304.8780303756580565
    DFT Exchange-Correlation Energy =     -28.0728003296996427
    Empirical Dispersion Energy =           0.0000000000000000
    VV10 Nonlocal Energy =                  0.0000000000000000
    Total Energy =                       -232.2585055059424235

Computation Completed


Properties will be evaluated at   0.000000,   0.000000,   0.000000 [a0]

Properties computed using the SCF density matrix

  Nuclear Dipole Moment: [e a0]
     X:    -0.0000      Y:    -0.0000      Z:     0.0000

  Electronic Dipole Moment: [e a0]
     X:     0.0000      Y:     0.0000      Z:     0.0000

  Dipole Moment: [e a0]
     X:    -0.0000      Y:    -0.0000      Z:     0.0000     Total:     0.0000

  Dipole Moment: [D]
     X:    -0.0000      Y:    -0.0000      Z:     0.0000     Total:     0.0000


*** tstop() called on atlantis at Wed Apr 20 00:57:48 2022
Module time:
	user time   =       8.87 seconds =       0.15 minutes
	system time =       0.12 seconds =       0.00 minutes
	total time  =          9 seconds =       0.15 minutes
Total time:
	user time   =       8.87 seconds =       0.15 minutes
	system time =       0.12 seconds =       0.00 minutes
	total time  =          9 seconds =       0.15 minutes
gradient() will perform analytic gradient computation.

*** tstart() called on atlantis
*** at Wed Apr 20 00:57:48 2022

   => Loading Basis Set <=

    Name: 6-31+G*
    Role: ORBITAL
    Keyword: BASIS
    atoms 1-6  entry C          line   119 file /home/akrom/software/anaconda3/envs/ffpenv/share/psi4/basis/6-31pgs.gbs 
    atoms 7-12 entry H          line    46 file /home/akrom/software/anaconda3/envs/ffpenv/share/psi4/basis/6-31pgs.gbs 


         ---------------------------------------------------------
                                   SCF
               by Justin Turney, Rob Parrish, Andy Simmonett
                          and Daniel G. A. Smith
                              RKS Reference
                        1 Threads,    500 MiB Core
         ---------------------------------------------------------

  ==> Geometry <==

    Molecular point group: c2h
    Full point group: C2h

    Geometry (in Angstrom), charge = 0, multiplicity = 1:

       Center              X                  Y                   Z               Mass       
    ------------   -----------------  -----------------  -----------------  -----------------
         C           -1.221510000000    -0.693250000000     0.000000000000    12.000000000000
         C           -1.211140000000     0.711220000000     0.000000000000    12.000000000000
         C           -0.010370000000    -1.404520000000     0.000000000000    12.000000000000
         C            0.010370000000     1.404520000000     0.000000000000    12.000000000000
         C            1.211140000000    -0.711220000000     0.000000000000    12.000000000000
         C            1.221510000000     0.693250000000     0.000000000000    12.000000000000
         H           -2.173110000000    -1.233320000000     0.000000000000     1.007825032230
         H           -2.154640000000     1.265330000000     0.000000000000     1.007825032230
         H           -0.018480000000    -2.498650000000     0.000000000000     1.007825032230
         H            0.018480000000     2.498650000000     0.000000000000     1.007825032230
         H            2.154640000000    -1.265330000000     0.000000000000     1.007825032230
         H            2.173110000000     1.233320000000     0.000000000000     1.007825032230

  Running in c2h symmetry.

  Rotational constants: A =      0.18753  B =      0.18752  C =      0.09376 [cm^-1]
  Rotational constants: A =   5621.92707  B =   5621.82252  C =   2810.93740 [MHz]
  Nuclear repulsion =  202.013308935380167

  Charge       = 0
  Multiplicity = 1
  Electrons    = 42
  Nalpha       = 21
  Nbeta        = 21

  ==> Algorithm <==

  SCF Algorithm Type is DF.
  DIIS enabled.
  MOM disabled.
  Fractional occupation disabled.
  Guess Type is SAD.
  Energy threshold   = 1.00e-08
  Density threshold  = 1.00e-08
  Integral threshold = 0.00e+00

  ==> Primary Basis <==

  Basis Set: 6-31+G*
    Blend: 6-31+G*
    Number of shells: 60
    Number of basis function: 126
    Number of Cartesian functions: 126
    Spherical Harmonics?: false
    Max angular momentum: 2

  ==> DFT Potential <==

   => Composite Functional: B3LYP <= 

    B3LYP Hyb-GGA Exchange-Correlation Functional

    P. J. Stephens, F. J. Devlin, C. F. Chabalowski, and M. J. Frisch, J. Phys. Chem. 98, 11623 (1994)

    Deriv               =              1
    GGA                 =           TRUE
    Meta                =          FALSE

    Exchange Hybrid     =           TRUE
    MP2 Hybrid          =          FALSE

   => Exchange Functionals <=

    0.0800   Slater exchange
    0.7200         Becke 88

   => Exact (HF) Exchange <=

    0.2000               HF 

   => Correlation Functionals <=

    0.1900   Vosko, Wilk & Nusair (VWN5_RPA)
    0.8100   Lee, Yang & Parr

   => Molecular Quadrature <=

    Radial Scheme          =       TREUTLER
    Pruning Scheme         =           FLAT
    Nuclear Scheme         =       TREUTLER

    BS radius alpha        =              1
    Pruning alpha          =              1
    Radial Points          =             75
    Spherical Points       =            302
    Total Points           =         271800
    Total Blocks           =           2142
    Max Points             =            256
    Max Functions          =            126

   => Loading Basis Set <=

    Name: (6-31+G* AUX)
    Role: JKFIT
    Keyword: DF_BASIS_SCF
    atoms 1-6  entry C          line   194 file /home/akrom/software/anaconda3/envs/ffpenv/share/psi4/basis/heavy-aug-cc-pvdz-jkfit.gbs 
    atoms 7-12 entry H          line   116 file /home/akrom/software/anaconda3/envs/ffpenv/share/psi4/basis/heavy-aug-cc-pvdz-jkfit.gbs 

  ==> Pre-Iterations <==

   -------------------------------------------------------
    Irrep   Nso     Nmo     Nalpha   Nbeta   Ndocc  Nsocc
   -------------------------------------------------------
     Ag        48      48       0       0       0       0
     Bg        15      15       0       0       0       0
     Au        15      15       0       0       0       0
     Bu        48      48       0       0       0       0
   -------------------------------------------------------
    Total     126     126      21      21      21       0
   -------------------------------------------------------

  ==> Integral Setup <==

  DFHelper Memory: AOs need 0.097 GiB; user supplied 0.097 GiB. Using in-core AOs.

  ==> MemDFJK: Density-Fitted J/K Matrices <==

    J tasked:                   Yes
    K tasked:                   Yes
    wK tasked:                   No
    OpenMP threads:               1
    Memory [MiB]:                99
    Algorithm:                 Core
    Schwarz Cutoff:           1E-12
    Mask sparsity (%):       0.2268
    Fitting Condition:        1E-10

   => Auxiliary Basis Set <=

  Basis Set: (6-31+G* AUX)
    Blend: HEAVY-AUG-CC-PVDZ-JKFIT
    Number of shells: 222
    Number of basis function: 756
    Number of Cartesian functions: 756
    Spherical Harmonics?: false
    Max angular momentum: 3

  Cached 33.3% of DFT collocation blocks in 0.277 [GiB].

  Minimum eigenvalue in the overlap matrix is 6.7977624213E-06.
  Using Symmetric Orthogonalization.

  SCF Guess: Superposition of Atomic Densities via on-the-fly atomic UHF.

  ==> Iterations <==

                           Total Energy        Delta E     RMS |[F,P]|

   @DF-RKS iter SAD:  -231.56544079263048   -2.31565e+02   0.00000e+00 
   @DF-RKS iter   1:  -231.70117960106168   -1.35739e-01   1.37297e-02 DIIS
   @DF-RKS iter   2:  -231.22138098082894    4.79799e-01   1.89507e-02 DIIS
   @DF-RKS iter   3:  -232.25651296825481   -1.03513e+00   9.04770e-04 DIIS
   @DF-RKS iter   4:  -232.25838491909104   -1.87195e-03   2.24361e-04 DIIS
   @DF-RKS iter   5:  -232.25850386087441   -1.18942e-04   2.31462e-05 DIIS
   @DF-RKS iter   6:  -232.25850550398306   -1.64311e-06   5.89601e-07 DIIS
   @DF-RKS iter   7:  -232.25850550497307   -9.90013e-10   3.40134e-07 DIIS
   @DF-RKS iter   8:  -232.25850550523532   -2.62247e-10   9.91572e-08 DIIS
   @DF-RKS iter   9:  -232.25850550526036   -2.50395e-11   2.83347e-09 DIIS
  Energy and wave function converged.


  ==> Post-Iterations <==

    Orbital Energies [Eh]
    ---------------------

    Doubly Occupied:                                                      

       1Ag   -10.201291     1Bu   -10.201037     2Bu   -10.201036  
       2Ag   -10.200507     3Ag   -10.200505     3Bu   -10.200253  
       4Ag    -0.854019     4Bu    -0.748211     5Bu    -0.748206  
       5Ag    -0.605672     6Ag    -0.605662     7Ag    -0.524953  
       6Bu    -0.467278     7Bu    -0.447241     8Bu    -0.425596  
       9Bu    -0.425591     1Au    -0.367634     8Ag    -0.349635  
       9Ag    -0.349611     1Bg    -0.256606     2Bg    -0.256600  

    Virtual:                                                              

       2Au    -0.015835     3Au    -0.015823    10Ag     0.008563  
      10Bu     0.025945    11Bu     0.025946    11Ag     0.045436  
      12Ag     0.045438     4Au     0.067005    12Bu     0.077215  
      13Ag     0.079374     3Bg     0.092275     4Bg     0.092281  
      13Bu     0.099357     5Bg     0.124725     5Au     0.142340  
       6Au     0.142350    14Ag     0.144074    15Ag     0.144075  
      14Bu     0.154833    15Bu     0.154837    16Ag     0.193676  
      16Bu     0.195483    17Bu     0.195487     6Bg     0.203451  
      17Ag     0.211357    18Ag     0.211365    18Bu     0.233445  
      19Bu     0.241853    20Bu     0.241859    19Ag     0.265713  
      20Ag     0.275273    21Ag     0.275277    21Bu     0.321479  
      22Bu     0.344711    23Bu     0.344732    22Ag     0.345905  
      23Ag     0.345919    24Ag     0.559449    24Bu     0.577200  
      25Bu     0.593332    25Ag     0.619636     7Au     0.659166  
       7Bg     0.717445     8Bg     0.717452    26Ag     0.718619  
      27Ag     0.718629     8Au     0.745919     9Au     0.745923  
      26Bu     0.765972    27Bu     0.765980     9Bg     0.802219  
      28Ag     0.827249    28Bu     0.891334    29Ag     0.927642  
      30Ag     0.927644    29Bu     0.963184    30Bu     0.963200  
      31Ag     0.970371    32Ag     1.028329    31Bu     1.072609  
      32Bu     1.072624    33Bu     1.132812    34Bu     1.132862  
      33Ag     1.169969    34Ag     1.169972    10Bg     1.250775  
      35Bu     1.305508    10Au     1.394526    35Ag     1.428126  
      36Ag     1.428161    11Au     1.476283    12Au     1.476306  
      11Bg     1.505133    12Bg     1.505139    37Ag     1.746682  
      36Bu     1.810182    38Ag     1.874490    37Bu     1.892215  
      38Bu     1.975749    39Bu     1.975753    39Ag     2.092621  
      40Ag     2.092626    13Au     2.145878    14Au     2.145890  
      40Bu     2.151999    41Bu     2.152043    13Bg     2.294823  
      14Bg     2.294889    15Bg     2.312278    41Ag     2.565485  
      42Ag     2.565509    15Au     2.630662    43Ag     2.684543  
      44Ag     2.684587    42Bu     2.723967    43Bu     2.724001  
      44Bu     2.818817    45Ag     3.010890    45Bu     3.372322  
      46Ag     4.210714    46Bu     4.235569    47Bu     4.235587  
      47Ag     4.374224    48Ag     4.374227    48Bu     4.670045  

    Final Occupation by Irrep:
             Ag    Bg    Au    Bu 
    DOCC [     9,    2,    1,    9 ]

  @DF-RKS Final Energy:  -232.25850550526036

   => Energetics <=

    Nuclear Repulsion Energy =            202.0133089353801665
    One-Electron Energy =                -711.0770433571588001
    Two-Electron Energy =                 304.8780283232500778
    DFT Exchange-Correlation Energy =     -28.0727994067317788
    Empirical Dispersion Energy =           0.0000000000000000
    VV10 Nonlocal Energy =                  0.0000000000000000
    Total Energy =                       -232.2585055052603309

Computation Completed


Properties will be evaluated at   0.000000,   0.000000,   0.000000 [a0]

Properties computed using the SCF density matrix

  Nuclear Dipole Moment: [e a0]
     X:    -0.0000      Y:    -0.0000      Z:     0.0000

  Electronic Dipole Moment: [e a0]
     X:     0.0000      Y:     0.0000      Z:     0.0000

  Dipole Moment: [e a0]
     X:    -0.0000      Y:    -0.0000      Z:     0.0000     Total:     0.0000

  Dipole Moment: [D]
     X:    -0.0000      Y:    -0.0000      Z:     0.0000     Total:     0.0000


*** tstop() called on atlantis at Wed Apr 20 00:57:59 2022
Module time:
	user time   =      10.62 seconds =       0.18 minutes
	system time =       0.08 seconds =       0.00 minutes
	total time  =         11 seconds =       0.18 minutes
Total time:
	user time   =      19.50 seconds =       0.33 minutes
	system time =       0.20 seconds =       0.00 minutes
	total time  =         20 seconds =       0.33 minutes

*** tstart() called on atlantis
*** at Wed Apr 20 00:57:59 2022


         ------------------------------------------------------------
                                   SCF GRAD                          
                          Rob Parrish, Justin Turney,                
                       Andy Simmonett, and Alex Sokolov              
         ------------------------------------------------------------

  ==> Geometry <==

    Molecular point group: c2h
    Full point group: C2h

    Geometry (in Angstrom), charge = 0, multiplicity = 1:

       Center              X                  Y                   Z               Mass       
    ------------   -----------------  -----------------  -----------------  -----------------
         C           -1.221510000000    -0.693250000000     0.000000000000    12.000000000000
         C           -1.211140000000     0.711220000000     0.000000000000    12.000000000000
         C           -0.010370000000    -1.404520000000     0.000000000000    12.000000000000
         C            0.010370000000     1.404520000000     0.000000000000    12.000000000000
         C            1.211140000000    -0.711220000000     0.000000000000    12.000000000000
         C            1.221510000000     0.693250000000     0.000000000000    12.000000000000
         H           -2.173110000000    -1.233320000000     0.000000000000     1.007825032230
         H           -2.154640000000     1.265330000000     0.000000000000     1.007825032230
         H           -0.018480000000    -2.498650000000     0.000000000000     1.007825032230
         H            0.018480000000     2.498650000000     0.000000000000     1.007825032230
         H            2.154640000000    -1.265330000000     0.000000000000     1.007825032230
         H            2.173110000000     1.233320000000     0.000000000000     1.007825032230

  Nuclear repulsion =  202.013308935380167

  ==> Basis Set <==

  Basis Set: 6-31+G*
    Blend: 6-31+G*
    Number of shells: 60
    Number of basis function: 126
    Number of Cartesian functions: 126
    Spherical Harmonics?: false
    Max angular momentum: 2

  ==> DFJKGrad: Density-Fitted SCF Gradients <==

    Gradient:                    1
    J tasked:                  Yes
    K tasked:                  Yes
    wK tasked:                  No
    OpenMP threads:              1
    Integrals threads:           1
    Memory [MiB]:              375
    Schwarz Cutoff:          0E+00
    Fitting Condition:       1E-10

   => Auxiliary Basis Set <=

  Basis Set: (6-31+G* AUX)
    Blend: HEAVY-AUG-CC-PVDZ-JKFIT
    Number of shells: 222
    Number of basis function: 756
    Number of Cartesian functions: 756
    Spherical Harmonics?: false
    Max angular momentum: 3

  ==> DFT Potential <==

   => Composite Functional: B3LYP <= 

    B3LYP Hyb-GGA Exchange-Correlation Functional

    P. J. Stephens, F. J. Devlin, C. F. Chabalowski, and M. J. Frisch, J. Phys. Chem. 98, 11623 (1994)

    Deriv               =              1
    GGA                 =           TRUE
    Meta                =          FALSE

    Exchange Hybrid     =           TRUE
    MP2 Hybrid          =          FALSE

   => Exchange Functionals <=

    0.0800   Slater exchange
    0.7200         Becke 88

   => Exact (HF) Exchange <=

    0.2000               HF 

   => Correlation Functionals <=

    0.1900   Vosko, Wilk & Nusair (VWN5_RPA)
    0.8100   Lee, Yang & Parr

   => Molecular Quadrature <=

    Radial Scheme          =       TREUTLER
    Pruning Scheme         =           FLAT
    Nuclear Scheme         =       TREUTLER

    BS radius alpha        =              1
    Pruning alpha          =              1
    Radial Points          =             75
    Spherical Points       =            302
    Total Points           =         271800
    Total Blocks           =           2142
    Max Points             =            256
    Max Functions          =            126


  -Total Gradient:
     Atom            X                  Y                   Z
    ------   -----------------  -----------------  -----------------
       1       -0.000940661421    -0.000494551751     0.000000000000
       2       -0.000916836802     0.000494107605     0.000000000000
       3       -0.000002516776    -0.001122143826     0.000000000000
       4        0.000002516776     0.001122143826     0.000000000000
       5        0.000916836802    -0.000494107605    -0.000000000000
       6        0.000940661421     0.000494551751     0.000000000000
       7       -0.004112483366    -0.002334862012     0.000000000000
       8       -0.004078272683     0.002401528016     0.000000000000
       9       -0.000038298936    -0.004721408460     0.000000000000
      10        0.000038298936     0.004721408460     0.000000000000
      11        0.004078272683    -0.002401528016    -0.000000000000
      12        0.004112483366     0.002334862012     0.000000000000


*** tstop() called on atlantis at Wed Apr 20 00:58:02 2022
Module time:
	user time   =       3.18 seconds =       0.05 minutes
	system time =       0.05 seconds =       0.00 minutes
	total time  =          3 seconds =       0.05 minutes
Total time:
	user time   =      22.68 seconds =       0.38 minutes
	system time =       0.25 seconds =       0.00 minutes
	total time  =         23 seconds =       0.38 minutes

  Based on options and gradient (rms=1.98E-03), recommend projecting translations and projecting rotations.
hessian() will perform frequency computation by finite difference of analytic gradients.

         ----------------------------------------------------------
                                   FINDIF
                     R. A. King and Jonathon Misiewicz
         ---------------------------------------------------------

  Using finite-differences of gradients to determine vibrational frequencies and 
  normal modes.  Resulting frequencies are only valid at stationary points.
    Generating geometries for use with 3-point formula.
    Displacement size will be 5.00e-03.
    Number of atoms is 12.
    Number of irreps is 4.
    Number of SALCs is 30.
    Translations projected? 1. Rotations projected? 1.
    Index of SALCs per irrep:
     1 :  0  1  2  3  4  5  6  7  8  9  10 
     2 :  11  12  13  14 
     3 :  15  16  17  18  19 
     4 :  20  21  22  23  24  25  26  27  28  29 
    Number of SALCs per irrep:
     Irrep 1: 11
     Irrep 2: 4
     Irrep 3: 5
     Irrep 4: 10
    Number of geometries (including reference) is 42.
    Number of displacements per irrep:
      Irrep 1: 22
      Irrep 2: 4
      Irrep 3: 5
      Irrep 4: 10

  //>>>>>>>>>>>>>>>>>>>>>>>>>>>>>>>>>>>//
  //    Loading displacement 1 of 42   //
  //<<<<<<<<<<<<<<<<<<<<<<<<<<<<<<<<<<<//
gradient() will perform analytic gradient computation.

*** tstart() called on atlantis
*** at Wed Apr 20 00:58:03 2022

   => Loading Basis Set <=

    Name: 6-31+G*
    Role: ORBITAL
    Keyword: BASIS
    atoms 1-6  entry C          line   119 file /home/akrom/software/anaconda3/envs/ffpenv/share/psi4/basis/6-31pgs.gbs 
    atoms 7-12 entry H          line    46 file /home/akrom/software/anaconda3/envs/ffpenv/share/psi4/basis/6-31pgs.gbs 


         ---------------------------------------------------------
                                   SCF
               by Justin Turney, Rob Parrish, Andy Simmonett
                          and Daniel G. A. Smith
                              RKS Reference
                        1 Threads,    500 MiB Core
         ---------------------------------------------------------

  ==> Geometry <==

    Molecular point group: c2h
    Full point group: C2h

    Geometry (in Angstrom), charge = 0, multiplicity = 1:

       Center              X                  Y                   Z               Mass       
    ------------   -----------------  -----------------  -----------------  -----------------
         C           -1.221510000000    -0.693250000000     0.000000000000    12.000000000000
         C           -1.211140000000     0.711220000000     0.000000000000    12.000000000000
         C           -0.010370000000    -1.404520000000     0.000000000000    12.000000000000
         C            0.010370000000     1.404520000000     0.000000000000    12.000000000000
         C            1.211140000000    -0.711220000000     0.000000000000    12.000000000000
         C            1.221510000000     0.693250000000     0.000000000000    12.000000000000
         H           -2.173110000000    -1.233320000000     0.000000000000     1.007825032230
         H           -2.154640000000     1.265330000000     0.000000000000     1.007825032230
         H           -0.018480000000    -2.498650000000     0.000000000000     1.007825032230
         H            0.018480000000     2.498650000000     0.000000000000     1.007825032230
         H            2.154640000000    -1.265330000000     0.000000000000     1.007825032230
         H            2.173110000000     1.233320000000     0.000000000000     1.007825032230

  Running in c2h symmetry.

  Rotational constants: A =      0.18753  B =      0.18752  C =      0.09376 [cm^-1]
  Rotational constants: A =   5621.92707  B =   5621.82252  C =   2810.93740 [MHz]
  Nuclear repulsion =  202.013308935380167

  Charge       = 0
  Multiplicity = 1
  Electrons    = 42
  Nalpha       = 21
  Nbeta        = 21

  ==> Algorithm <==

  SCF Algorithm Type is DF.
  DIIS enabled.
  MOM disabled.
  Fractional occupation disabled.
  Guess Type is SAD.
  Energy threshold   = 1.00e-08
  Density threshold  = 1.00e-08
  Integral threshold = 0.00e+00

  ==> Primary Basis <==

  Basis Set: 6-31+G*
    Blend: 6-31+G*
    Number of shells: 60
    Number of basis function: 126
    Number of Cartesian functions: 126
    Spherical Harmonics?: false
    Max angular momentum: 2

  ==> DFT Potential <==

   => Composite Functional: B3LYP <= 

    B3LYP Hyb-GGA Exchange-Correlation Functional

    P. J. Stephens, F. J. Devlin, C. F. Chabalowski, and M. J. Frisch, J. Phys. Chem. 98, 11623 (1994)

    Deriv               =              1
    GGA                 =           TRUE
    Meta                =          FALSE

    Exchange Hybrid     =           TRUE
    MP2 Hybrid          =          FALSE

   => Exchange Functionals <=

    0.0800   Slater exchange
    0.7200         Becke 88

   => Exact (HF) Exchange <=

    0.2000               HF 

   => Correlation Functionals <=

    0.1900   Vosko, Wilk & Nusair (VWN5_RPA)
    0.8100   Lee, Yang & Parr

   => Molecular Quadrature <=

    Radial Scheme          =       TREUTLER
    Pruning Scheme         =           FLAT
    Nuclear Scheme         =       TREUTLER

    BS radius alpha        =              1
    Pruning alpha          =              1
    Radial Points          =             75
    Spherical Points       =            302
    Total Points           =         271800
    Total Blocks           =           2142
    Max Points             =            256
    Max Functions          =            126

   => Loading Basis Set <=

    Name: (6-31+G* AUX)
    Role: JKFIT
    Keyword: DF_BASIS_SCF
    atoms 1-6  entry C          line   194 file /home/akrom/software/anaconda3/envs/ffpenv/share/psi4/basis/heavy-aug-cc-pvdz-jkfit.gbs 
    atoms 7-12 entry H          line   116 file /home/akrom/software/anaconda3/envs/ffpenv/share/psi4/basis/heavy-aug-cc-pvdz-jkfit.gbs 

  ==> Pre-Iterations <==

   -------------------------------------------------------
    Irrep   Nso     Nmo     Nalpha   Nbeta   Ndocc  Nsocc
   -------------------------------------------------------
     Ag        48      48       0       0       0       0
     Bg        15      15       0       0       0       0
     Au        15      15       0       0       0       0
     Bu        48      48       0       0       0       0
   -------------------------------------------------------
    Total     126     126      21      21      21       0
   -------------------------------------------------------

  ==> Integral Setup <==

  DFHelper Memory: AOs need 0.097 GiB; user supplied 0.097 GiB. Using in-core AOs.

  ==> MemDFJK: Density-Fitted J/K Matrices <==

    J tasked:                   Yes
    K tasked:                   Yes
    wK tasked:                   No
    OpenMP threads:               1
    Memory [MiB]:                99
    Algorithm:                 Core
    Schwarz Cutoff:           1E-12
    Mask sparsity (%):       0.2268
    Fitting Condition:        1E-10

   => Auxiliary Basis Set <=

  Basis Set: (6-31+G* AUX)
    Blend: HEAVY-AUG-CC-PVDZ-JKFIT
    Number of shells: 222
    Number of basis function: 756
    Number of Cartesian functions: 756
    Spherical Harmonics?: false
    Max angular momentum: 3

  Cached 33.3% of DFT collocation blocks in 0.277 [GiB].

  Minimum eigenvalue in the overlap matrix is 6.7977624208E-06.
  Using Symmetric Orthogonalization.

  SCF Guess: Superposition of Atomic Densities via on-the-fly atomic UHF.

  ==> Iterations <==

                           Total Energy        Delta E     RMS |[F,P]|

   @DF-RKS iter SAD:  -231.56544079199995   -2.31565e+02   0.00000e+00 
   @DF-RKS iter   1:  -231.70117960052451   -1.35739e-01   1.37297e-02 DIIS
   @DF-RKS iter   2:  -231.22138097949792    4.79799e-01   1.89507e-02 DIIS
   @DF-RKS iter   3:  -232.25651296768456   -1.03513e+00   9.04770e-04 DIIS
   @DF-RKS iter   4:  -232.25838491852170   -1.87195e-03   2.24361e-04 DIIS
   @DF-RKS iter   5:  -232.25850386030541   -1.18942e-04   2.31462e-05 DIIS
   @DF-RKS iter   6:  -232.25850550341443   -1.64311e-06   5.89601e-07 DIIS
   @DF-RKS iter   7:  -232.25850550440413   -9.89701e-10   3.40132e-07 DIIS
   @DF-RKS iter   8:  -232.25850550466635   -2.62219e-10   9.91576e-08 DIIS
   @DF-RKS iter   9:  -232.25850550469144   -2.50964e-11   2.83347e-09 DIIS
  Energy and wave function converged.


  ==> Post-Iterations <==

    Orbital Energies [Eh]
    ---------------------

    Doubly Occupied:                                                      

       1Ag   -10.201291     1Bu   -10.201037     2Bu   -10.201036  
       2Ag   -10.200507     3Ag   -10.200505     3Bu   -10.200253  
       4Ag    -0.854019     4Bu    -0.748211     5Bu    -0.748206  
       5Ag    -0.605672     6Ag    -0.605662     7Ag    -0.524953  
       6Bu    -0.467278     7Bu    -0.447241     8Bu    -0.425596  
       9Bu    -0.425591     1Au    -0.367634     8Ag    -0.349635  
       9Ag    -0.349611     1Bg    -0.256606     2Bg    -0.256600  

    Virtual:                                                              

       2Au    -0.015835     3Au    -0.015823    10Ag     0.008563  
      10Bu     0.025945    11Bu     0.025946    11Ag     0.045436  
      12Ag     0.045438     4Au     0.067005    12Bu     0.077215  
      13Ag     0.079374     3Bg     0.092275     4Bg     0.092281  
      13Bu     0.099357     5Bg     0.124725     5Au     0.142340  
       6Au     0.142350    14Ag     0.144074    15Ag     0.144075  
      14Bu     0.154833    15Bu     0.154837    16Ag     0.193676  
      16Bu     0.195483    17Bu     0.195487     6Bg     0.203451  
      17Ag     0.211357    18Ag     0.211365    18Bu     0.233445  
      19Bu     0.241853    20Bu     0.241859    19Ag     0.265712  
      20Ag     0.275273    21Ag     0.275277    21Bu     0.321479  
      22Bu     0.344710    23Bu     0.344732    22Ag     0.345905  
      23Ag     0.345919    24Ag     0.559449    24Bu     0.577200  
      25Bu     0.593332    25Ag     0.619636     7Au     0.659166  
       7Bg     0.717445     8Bg     0.717452    26Ag     0.718619  
      27Ag     0.718629     8Au     0.745919     9Au     0.745923  
      26Bu     0.765972    27Bu     0.765980     9Bg     0.802219  
      28Ag     0.827249    28Bu     0.891334    29Ag     0.927642  
      30Ag     0.927644    29Bu     0.963184    30Bu     0.963200  
      31Ag     0.970371    32Ag     1.028329    31Bu     1.072609  
      32Bu     1.072624    33Bu     1.132812    34Bu     1.132862  
      33Ag     1.169969    34Ag     1.169972    10Bg     1.250775  
      35Bu     1.305508    10Au     1.394526    35Ag     1.428126  
      36Ag     1.428161    11Au     1.476283    12Au     1.476306  
      11Bg     1.505133    12Bg     1.505139    37Ag     1.746682  
      36Bu     1.810182    38Ag     1.874490    37Bu     1.892215  
      38Bu     1.975749    39Bu     1.975753    39Ag     2.092621  
      40Ag     2.092626    13Au     2.145878    14Au     2.145890  
      40Bu     2.151999    41Bu     2.152043    13Bg     2.294823  
      14Bg     2.294889    15Bg     2.312278    41Ag     2.565485  
      42Ag     2.565509    15Au     2.630662    43Ag     2.684543  
      44Ag     2.684587    42Bu     2.723967    43Bu     2.724001  
      44Bu     2.818817    45Ag     3.010890    45Bu     3.372322  
      46Ag     4.210714    46Bu     4.235569    47Bu     4.235587  
      47Ag     4.374224    48Ag     4.374227    48Bu     4.670045  

    Final Occupation by Irrep:
             Ag    Bg    Au    Bu 
    DOCC [     9,    2,    1,    9 ]

  @DF-RKS Final Energy:  -232.25850550469144

   => Energetics <=

    Nuclear Repulsion Energy =            202.0133089353801665
    One-Electron Energy =                -711.0770433579189103
    Two-Electron Energy =                 304.8780283247300531
    DFT Exchange-Correlation Energy =     -28.0727994068827478
    Empirical Dispersion Energy =           0.0000000000000000
    VV10 Nonlocal Energy =                  0.0000000000000000
    Total Energy =                       -232.2585055046914420

Computation Completed


Properties will be evaluated at   0.000000,   0.000000,   0.000000 [a0]

Properties computed using the SCF density matrix

  Nuclear Dipole Moment: [e a0]
     X:    -0.0000      Y:    -0.0000      Z:     0.0000

  Electronic Dipole Moment: [e a0]
     X:     0.0000      Y:     0.0000      Z:     0.0000

  Dipole Moment: [e a0]
     X:    -0.0000      Y:    -0.0000      Z:     0.0000     Total:     0.0000

  Dipole Moment: [D]
     X:    -0.0000      Y:    -0.0000      Z:     0.0000     Total:     0.0000


*** tstop() called on atlantis at Wed Apr 20 00:58:13 2022
Module time:
	user time   =      10.61 seconds =       0.18 minutes
	system time =       0.08 seconds =       0.00 minutes
	total time  =         10 seconds =       0.17 minutes
Total time:
	user time   =      33.57 seconds =       0.56 minutes
	system time =       0.34 seconds =       0.01 minutes
	total time  =         34 seconds =       0.57 minutes

*** tstart() called on atlantis
*** at Wed Apr 20 00:58:13 2022


         ------------------------------------------------------------
                                   SCF GRAD                          
                          Rob Parrish, Justin Turney,                
                       Andy Simmonett, and Alex Sokolov              
         ------------------------------------------------------------

  ==> Geometry <==

    Molecular point group: c2h
    Full point group: C2h

    Geometry (in Angstrom), charge = 0, multiplicity = 1:

       Center              X                  Y                   Z               Mass       
    ------------   -----------------  -----------------  -----------------  -----------------
         C           -1.221510000000    -0.693250000000     0.000000000000    12.000000000000
         C           -1.211140000000     0.711220000000     0.000000000000    12.000000000000
         C           -0.010370000000    -1.404520000000     0.000000000000    12.000000000000
         C            0.010370000000     1.404520000000     0.000000000000    12.000000000000
         C            1.211140000000    -0.711220000000     0.000000000000    12.000000000000
         C            1.221510000000     0.693250000000     0.000000000000    12.000000000000
         H           -2.173110000000    -1.233320000000     0.000000000000     1.007825032230
         H           -2.154640000000     1.265330000000     0.000000000000     1.007825032230
         H           -0.018480000000    -2.498650000000     0.000000000000     1.007825032230
         H            0.018480000000     2.498650000000     0.000000000000     1.007825032230
         H            2.154640000000    -1.265330000000     0.000000000000     1.007825032230
         H            2.173110000000     1.233320000000     0.000000000000     1.007825032230

  Nuclear repulsion =  202.013308935380167

  ==> Basis Set <==

  Basis Set: 6-31+G*
    Blend: 6-31+G*
    Number of shells: 60
    Number of basis function: 126
    Number of Cartesian functions: 126
    Spherical Harmonics?: false
    Max angular momentum: 2

  ==> DFJKGrad: Density-Fitted SCF Gradients <==

    Gradient:                    1
    J tasked:                  Yes
    K tasked:                  Yes
    wK tasked:                  No
    OpenMP threads:              1
    Integrals threads:           1
    Memory [MiB]:              375
    Schwarz Cutoff:          0E+00
    Fitting Condition:       1E-10

   => Auxiliary Basis Set <=

  Basis Set: (6-31+G* AUX)
    Blend: HEAVY-AUG-CC-PVDZ-JKFIT
    Number of shells: 222
    Number of basis function: 756
    Number of Cartesian functions: 756
    Spherical Harmonics?: false
    Max angular momentum: 3

  ==> DFT Potential <==

   => Composite Functional: B3LYP <= 

    B3LYP Hyb-GGA Exchange-Correlation Functional

    P. J. Stephens, F. J. Devlin, C. F. Chabalowski, and M. J. Frisch, J. Phys. Chem. 98, 11623 (1994)

    Deriv               =              1
    GGA                 =           TRUE
    Meta                =          FALSE

    Exchange Hybrid     =           TRUE
    MP2 Hybrid          =          FALSE

   => Exchange Functionals <=

    0.0800   Slater exchange
    0.7200         Becke 88

   => Exact (HF) Exchange <=

    0.2000               HF 

   => Correlation Functionals <=

    0.1900   Vosko, Wilk & Nusair (VWN5_RPA)
    0.8100   Lee, Yang & Parr

   => Molecular Quadrature <=

    Radial Scheme          =       TREUTLER
    Pruning Scheme         =           FLAT
    Nuclear Scheme         =       TREUTLER

    BS radius alpha        =              1
    Pruning alpha          =              1
    Radial Points          =             75
    Spherical Points       =            302
    Total Points           =         271800
    Total Blocks           =           2142
    Max Points             =            256
    Max Functions          =            126


  -Total Gradient:
     Atom            X                  Y                   Z
    ------   -----------------  -----------------  -----------------
       1       -0.000940423360    -0.000494493761     0.000000000000
       2       -0.000916588118     0.000494023513     0.000000000000
       3       -0.000002529333    -0.001121908868     0.000000000000
       4        0.000002529333     0.001121908868     0.000000000000
       5        0.000916588118    -0.000494023513     0.000000000000
       6        0.000940423360     0.000494493761     0.000000000000
       7       -0.004112228083    -0.002334703929     0.000000000000
       8       -0.004078051102     0.002401390895    -0.000000000000
       9       -0.000038290929    -0.004721067827     0.000000000000
      10        0.000038290929     0.004721067827     0.000000000000
      11        0.004078051102    -0.002401390895     0.000000000000
      12        0.004112228083     0.002334703929     0.000000000000


*** tstop() called on atlantis at Wed Apr 20 00:58:17 2022
Module time:
	user time   =       3.20 seconds =       0.05 minutes
	system time =       0.05 seconds =       0.00 minutes
	total time  =          4 seconds =       0.07 minutes
Total time:
	user time   =      36.77 seconds =       0.61 minutes
	system time =       0.39 seconds =       0.01 minutes
	total time  =         38 seconds =       0.63 minutes

  //>>>>>>>>>>>>>>>>>>>>>>>>>>>>>>>>>>>//
  //    Loading displacement 2 of 42   //
  //<<<<<<<<<<<<<<<<<<<<<<<<<<<<<<<<<<<//
gradient() will perform analytic gradient computation.

*** tstart() called on atlantis
*** at Wed Apr 20 00:58:17 2022

   => Loading Basis Set <=

    Name: 6-31+G*
    Role: ORBITAL
    Keyword: BASIS
    atoms 1-6  entry C          line   119 file /home/akrom/software/anaconda3/envs/ffpenv/share/psi4/basis/6-31pgs.gbs 
    atoms 7-12 entry H          line    46 file /home/akrom/software/anaconda3/envs/ffpenv/share/psi4/basis/6-31pgs.gbs 


         ---------------------------------------------------------
                                   SCF
               by Justin Turney, Rob Parrish, Andy Simmonett
                          and Daniel G. A. Smith
                              RKS Reference
                        1 Threads,    500 MiB Core
         ---------------------------------------------------------

  ==> Geometry <==

    Molecular point group: c2h
    Full point group: C2h

    Geometry (in Angstrom), charge = 0, multiplicity = 1:

       Center              X                  Y                   Z               Mass       
    ------------   -----------------  -----------------  -----------------  -----------------
         C           -1.222032477591    -0.693313109608     0.000000000000    12.000000000000
         C           -1.211176745353     0.711157426160     0.000000000000    12.000000000000
         C           -0.010297435136    -1.404520535769     0.000000000000    12.000000000000
         C            0.010297435136     1.404520535769     0.000000000000    12.000000000000
         C            1.211176745353    -0.711157426160     0.000000000000    12.000000000000
         C            1.222032477591     0.693313109608     0.000000000000    12.000000000000
         H           -2.173046280225    -1.233432274252     0.000000000000     1.007825032230
         H           -2.154705373579     1.265218680005     0.000000000000     1.007825032230
         H           -0.018350906646    -2.498650954774     0.000000000000     1.007825032230
         H            0.018350906646     2.498650954774     0.000000000000     1.007825032230
         H            2.154705373579    -1.265218680005     0.000000000000     1.007825032230
         H            2.173046280225     1.233432274252     0.000000000000     1.007825032230

  Running in c2h symmetry.

  Rotational constants: A =      0.18753  B =      0.18745  C =      0.09375 [cm^-1]
  Rotational constants: A =   5621.97670  B =   5619.72613  C =   2810.42560 [MHz]
  Nuclear repulsion =  201.998047561272216

  Charge       = 0
  Multiplicity = 1
  Electrons    = 42
  Nalpha       = 21
  Nbeta        = 21

  ==> Algorithm <==

  SCF Algorithm Type is DF.
  DIIS enabled.
  MOM disabled.
  Fractional occupation disabled.
  Guess Type is SAD.
  Energy threshold   = 1.00e-08
  Density threshold  = 1.00e-08
  Integral threshold = 0.00e+00

  ==> Primary Basis <==

  Basis Set: 6-31+G*
    Blend: 6-31+G*
    Number of shells: 60
    Number of basis function: 126
    Number of Cartesian functions: 126
    Spherical Harmonics?: false
    Max angular momentum: 2

  ==> DFT Potential <==

   => Composite Functional: B3LYP <= 

    B3LYP Hyb-GGA Exchange-Correlation Functional

    P. J. Stephens, F. J. Devlin, C. F. Chabalowski, and M. J. Frisch, J. Phys. Chem. 98, 11623 (1994)

    Deriv               =              1
    GGA                 =           TRUE
    Meta                =          FALSE

    Exchange Hybrid     =           TRUE
    MP2 Hybrid          =          FALSE

   => Exchange Functionals <=

    0.0800   Slater exchange
    0.7200         Becke 88

   => Exact (HF) Exchange <=

    0.2000               HF 

   => Correlation Functionals <=

    0.1900   Vosko, Wilk & Nusair (VWN5_RPA)
    0.8100   Lee, Yang & Parr

   => Molecular Quadrature <=

    Radial Scheme          =       TREUTLER
    Pruning Scheme         =           FLAT
    Nuclear Scheme         =       TREUTLER

    BS radius alpha        =              1
    Pruning alpha          =              1
    Radial Points          =             75
    Spherical Points       =            302
    Total Points           =         271800
    Total Blocks           =           2142
    Max Points             =            256
    Max Functions          =            126

   => Loading Basis Set <=

    Name: (6-31+G* AUX)
    Role: JKFIT
    Keyword: DF_BASIS_SCF
    atoms 1-6  entry C          line   194 file /home/akrom/software/anaconda3/envs/ffpenv/share/psi4/basis/heavy-aug-cc-pvdz-jkfit.gbs 
    atoms 7-12 entry H          line   116 file /home/akrom/software/anaconda3/envs/ffpenv/share/psi4/basis/heavy-aug-cc-pvdz-jkfit.gbs 

  ==> Pre-Iterations <==

   -------------------------------------------------------
    Irrep   Nso     Nmo     Nalpha   Nbeta   Ndocc  Nsocc
   -------------------------------------------------------
     Ag        48      48       0       0       0       0
     Bg        15      15       0       0       0       0
     Au        15      15       0       0       0       0
     Bu        48      48       0       0       0       0
   -------------------------------------------------------
    Total     126     126      21      21      21       0
   -------------------------------------------------------

  ==> Integral Setup <==

  DFHelper Memory: AOs need 0.097 GiB; user supplied 0.097 GiB. Using in-core AOs.

  ==> MemDFJK: Density-Fitted J/K Matrices <==

    J tasked:                   Yes
    K tasked:                   Yes
    wK tasked:                   No
    OpenMP threads:               1
    Memory [MiB]:                99
    Algorithm:                 Core
    Schwarz Cutoff:           1E-12
    Mask sparsity (%):       0.2268
    Fitting Condition:        1E-10

   => Auxiliary Basis Set <=

  Basis Set: (6-31+G* AUX)
    Blend: HEAVY-AUG-CC-PVDZ-JKFIT
    Number of shells: 222
    Number of basis function: 756
    Number of Cartesian functions: 756
    Spherical Harmonics?: false
    Max angular momentum: 3

  Cached 33.3% of DFT collocation blocks in 0.270 [GiB].

  Minimum eigenvalue in the overlap matrix is 6.8050935198E-06.
  Using Symmetric Orthogonalization.

  SCF Guess: Superposition of Atomic Densities via on-the-fly atomic UHF.

  ==> Iterations <==

                           Total Energy        Delta E     RMS |[F,P]|

   @DF-RKS iter SAD:  -231.56481735991736   -2.31565e+02   0.00000e+00 
   @DF-RKS iter   1:  -231.70157465294366   -1.36757e-01   1.37247e-02 DIIS
   @DF-RKS iter   2:  -231.22292281154338    4.78652e-01   1.89365e-02 DIIS
   @DF-RKS iter   3:  -232.25652210558579   -1.03360e+00   9.04720e-04 DIIS
   @DF-RKS iter   4:  -232.25839401722288   -1.87191e-03   2.24255e-04 DIIS
   @DF-RKS iter   5:  -232.25851285205792   -1.18835e-04   2.32775e-05 DIIS
   @DF-RKS iter   6:  -232.25851448112900   -1.62907e-06   3.43522e-06 DIIS
   @DF-RKS iter   7:  -232.25851449109891   -9.96991e-09   2.80975e-06 DIIS
   @DF-RKS iter   8:  -232.25851451051142   -1.94125e-08   2.33653e-08 DIIS
   @DF-RKS iter   9:  -232.25851451051386   -2.44427e-12   2.88759e-09 DIIS
  Energy and wave function converged.


  ==> Post-Iterations <==

    Orbital Energies [Eh]
    ---------------------

    Doubly Occupied:                                                      

       1Ag   -10.201317     1Bu   -10.201074     2Bu   -10.201052  
       2Ag   -10.200544     3Ag   -10.200521     3Bu   -10.200280  
       4Ag    -0.853951     4Bu    -0.748236     5Bu    -0.748125  
       5Ag    -0.605744     6Ag    -0.605608     7Ag    -0.524959  
       6Bu    -0.467363     7Bu    -0.447196     8Bu    -0.425668  
       9Bu    -0.425531     1Au    -0.367587     8Ag    -0.349777  
       9Ag    -0.349516     1Bg    -0.256632     2Bg    -0.256525  

    Virtual:                                                              

       2Au    -0.015930     3Au    -0.015794    10Ag     0.008575  
      10Bu     0.025948    11Bu     0.025955    11Ag     0.045430  
      12Ag     0.045438     4Au     0.066992    12Bu     0.077216  
      13Ag     0.079362     3Bg     0.092284     4Bg     0.092289  
      13Bu     0.099361     5Bg     0.124675     5Au     0.142338  
       6Au     0.142347    14Ag     0.144066    15Ag     0.144081  
      14Bu     0.154833    15Bu     0.154850    16Ag     0.193675  
      16Bu     0.195460    17Bu     0.195514     6Bg     0.203413  
      17Ag     0.211348    18Ag     0.211362    18Bu     0.233455  
      19Bu     0.241851    20Bu     0.241959    19Ag     0.265708  
      20Ag     0.275208    21Ag     0.275292    21Bu     0.321473  
      22Bu     0.344508    23Bu     0.344748    22Ag     0.345797  
      23Ag     0.345955    24Ag     0.559289    24Bu     0.577245  
      25Bu     0.593133    25Ag     0.619402     7Au     0.659132  
       7Bg     0.717442     8Bg     0.717501    26Ag     0.718458  
      27Ag     0.718671     8Au     0.745902     9Au     0.745924  
      26Bu     0.765869    27Bu     0.766011     9Bg     0.802206  
      28Ag     0.827162    28Bu     0.891381    29Ag     0.927673  
      30Ag     0.927848    29Bu     0.963190    30Bu     0.963474  
      31Ag     0.970275    32Ag     1.028386    31Bu     1.072530  
      32Bu     1.072702    33Bu     1.132689    34Bu     1.132834  
      33Ag     1.169866    34Ag     1.169952    10Bg     1.250783  
      35Bu     1.305403    10Au     1.394579    35Ag     1.428060  
      36Ag     1.428201    11Au     1.476116    12Au     1.476371  
      11Bg     1.505028    12Bg     1.505193    37Ag     1.746718  
      36Bu     1.810021    38Ag     1.874516    37Bu     1.892135  
      38Bu     1.975792    39Bu     1.975972    39Ag     2.092290  
      40Ag     2.092466    13Au     2.145599    14Au     2.145901  
      40Bu     2.151650    41Bu     2.151954    13Bg     2.294323  
      14Bg     2.295068    15Bg     2.312046    41Ag     2.565362  
      42Ag     2.565582    15Au     2.630345    43Ag     2.684148  
      44Ag     2.684550    42Bu     2.723590    43Bu     2.723984  
      44Bu     2.818817    45Ag     3.010681    45Bu     3.371969  
      46Ag     4.210488    46Bu     4.235478    47Bu     4.235677  
      47Ag     4.374185    48Ag     4.374268    48Bu     4.669933  

    Final Occupation by Irrep:
             Ag    Bg    Au    Bu 
    DOCC [     9,    2,    1,    9 ]

  @DF-RKS Final Energy:  -232.25851451051386

   => Energetics <=

    Nuclear Repulsion Energy =            201.9980475612722159
    One-Electron Energy =                -711.0465261721890329
    Two-Electron Energy =                 304.8625954807083644
    DFT Exchange-Correlation Energy =     -28.0726313803054097
    Empirical Dispersion Energy =           0.0000000000000000
    VV10 Nonlocal Energy =                  0.0000000000000000
    Total Energy =                       -232.2585145105138906

Computation Completed


Properties will be evaluated at   0.000000,   0.000000,   0.000000 [a0]

Properties computed using the SCF density matrix

  Nuclear Dipole Moment: [e a0]
     X:     0.0000      Y:     0.0000      Z:     0.0000

  Electronic Dipole Moment: [e a0]
     X:     0.0000      Y:     0.0000      Z:     0.0000

  Dipole Moment: [e a0]
     X:     0.0000      Y:     0.0000      Z:     0.0000     Total:     0.0000

  Dipole Moment: [D]
     X:     0.0000      Y:     0.0000      Z:     0.0000     Total:     0.0000


*** tstop() called on atlantis at Wed Apr 20 00:58:27 2022
Module time:
	user time   =      10.64 seconds =       0.18 minutes
	system time =       0.09 seconds =       0.00 minutes
	total time  =         10 seconds =       0.17 minutes
Total time:
	user time   =      47.41 seconds =       0.79 minutes
	system time =       0.48 seconds =       0.01 minutes
	total time  =         48 seconds =       0.80 minutes

*** tstart() called on atlantis
*** at Wed Apr 20 00:58:27 2022


         ------------------------------------------------------------
                                   SCF GRAD                          
                          Rob Parrish, Justin Turney,                
                       Andy Simmonett, and Alex Sokolov              
         ------------------------------------------------------------

  ==> Geometry <==

    Molecular point group: c2h
    Full point group: C2h

    Geometry (in Angstrom), charge = 0, multiplicity = 1:

       Center              X                  Y                   Z               Mass       
    ------------   -----------------  -----------------  -----------------  -----------------
         C           -1.222032477591    -0.693313109608     0.000000000000    12.000000000000
         C           -1.211176745353     0.711157426160     0.000000000000    12.000000000000
         C           -0.010297435136    -1.404520535769     0.000000000000    12.000000000000
         C            0.010297435136     1.404520535769     0.000000000000    12.000000000000
         C            1.211176745353    -0.711157426160     0.000000000000    12.000000000000
         C            1.222032477591     0.693313109608     0.000000000000    12.000000000000
         H           -2.173046280225    -1.233432274252     0.000000000000     1.007825032230
         H           -2.154705373579     1.265218680005     0.000000000000     1.007825032230
         H           -0.018350906646    -2.498650954774     0.000000000000     1.007825032230
         H            0.018350906646     2.498650954774     0.000000000000     1.007825032230
         H            2.154705373579    -1.265218680005     0.000000000000     1.007825032230
         H            2.173046280225     1.233432274252     0.000000000000     1.007825032230

  Nuclear repulsion =  201.998047561272216

  ==> Basis Set <==

  Basis Set: 6-31+G*
    Blend: 6-31+G*
    Number of shells: 60
    Number of basis function: 126
    Number of Cartesian functions: 126
    Spherical Harmonics?: false
    Max angular momentum: 2

  ==> DFJKGrad: Density-Fitted SCF Gradients <==

    Gradient:                    1
    J tasked:                  Yes
    K tasked:                  Yes
    wK tasked:                  No
    OpenMP threads:              1
    Integrals threads:           1
    Memory [MiB]:              375
    Schwarz Cutoff:          0E+00
    Fitting Condition:       1E-10

   => Auxiliary Basis Set <=

  Basis Set: (6-31+G* AUX)
    Blend: HEAVY-AUG-CC-PVDZ-JKFIT
    Number of shells: 222
    Number of basis function: 756
    Number of Cartesian functions: 756
    Spherical Harmonics?: false
    Max angular momentum: 3

  ==> DFT Potential <==

   => Composite Functional: B3LYP <= 

    B3LYP Hyb-GGA Exchange-Correlation Functional

    P. J. Stephens, F. J. Devlin, C. F. Chabalowski, and M. J. Frisch, J. Phys. Chem. 98, 11623 (1994)

    Deriv               =              1
    GGA                 =           TRUE
    Meta                =          FALSE

    Exchange Hybrid     =           TRUE
    MP2 Hybrid          =          FALSE

   => Exchange Functionals <=

    0.0800   Slater exchange
    0.7200         Becke 88

   => Exact (HF) Exchange <=

    0.2000               HF 

   => Correlation Functionals <=

    0.1900   Vosko, Wilk & Nusair (VWN5_RPA)
    0.8100   Lee, Yang & Parr

   => Molecular Quadrature <=

    Radial Scheme          =       TREUTLER
    Pruning Scheme         =           FLAT
    Nuclear Scheme         =       TREUTLER

    BS radius alpha        =              1
    Pruning alpha          =              1
    Radial Points          =             75
    Spherical Points       =            302
    Total Points           =         271800
    Total Blocks           =           2142
    Max Points             =            256
    Max Functions          =            126


  -Total Gradient:
     Atom            X                  Y                   Z
    ------   -----------------  -----------------  -----------------
       1       -0.001674752968    -0.000512143135     0.000000000000
       2       -0.000871166779     0.000529408553     0.000000000000
       3        0.000308009405    -0.001240986547     0.000000000000
       4       -0.000308009405     0.001240986547     0.000000000000
       5        0.000871166779    -0.000529408553     0.000000000000
       6        0.001674752968     0.000512143135    -0.000000000000
       7       -0.003836566123    -0.002213637344     0.000000000000
       8       -0.004084321152     0.002367298582     0.000000000000
       9       -0.000047521559    -0.004721056646     0.000000000000
      10        0.000047521559     0.004721056646     0.000000000000
      11        0.004084321152    -0.002367298582     0.000000000000
      12        0.003836566123     0.002213637344     0.000000000000


*** tstop() called on atlantis at Wed Apr 20 00:58:31 2022
Module time:
	user time   =       3.17 seconds =       0.05 minutes
	system time =       0.06 seconds =       0.00 minutes
	total time  =          4 seconds =       0.07 minutes
Total time:
	user time   =      50.58 seconds =       0.84 minutes
	system time =       0.54 seconds =       0.01 minutes
	total time  =         52 seconds =       0.87 minutes

  //>>>>>>>>>>>>>>>>>>>>>>>>>>>>>>>>>>>//
  //    Loading displacement 3 of 42   //
  //<<<<<<<<<<<<<<<<<<<<<<<<<<<<<<<<<<<//
gradient() will perform analytic gradient computation.

*** tstart() called on atlantis
*** at Wed Apr 20 00:58:31 2022

   => Loading Basis Set <=

    Name: 6-31+G*
    Role: ORBITAL
    Keyword: BASIS
    atoms 1-6  entry C          line   119 file /home/akrom/software/anaconda3/envs/ffpenv/share/psi4/basis/6-31pgs.gbs 
    atoms 7-12 entry H          line    46 file /home/akrom/software/anaconda3/envs/ffpenv/share/psi4/basis/6-31pgs.gbs 


         ---------------------------------------------------------
                                   SCF
               by Justin Turney, Rob Parrish, Andy Simmonett
                          and Daniel G. A. Smith
                              RKS Reference
                        1 Threads,    500 MiB Core
         ---------------------------------------------------------

  ==> Geometry <==

    Molecular point group: c2h
    Full point group: C2h

    Geometry (in Angstrom), charge = 0, multiplicity = 1:

       Center              X                  Y                   Z               Mass       
    ------------   -----------------  -----------------  -----------------  -----------------
         C           -1.220987522409    -0.693186890392     0.000000000000    12.000000000000
         C           -1.211103254647     0.711282573840     0.000000000000    12.000000000000
         C           -0.010442564864    -1.404519464231     0.000000000000    12.000000000000
         C            0.010442564864     1.404519464231     0.000000000000    12.000000000000
         C            1.211103254647    -0.711282573840     0.000000000000    12.000000000000
         C            1.220987522409     0.693186890392     0.000000000000    12.000000000000
         H           -2.173173719775    -1.233207725748     0.000000000000     1.007825032230
         H           -2.154574626421     1.265441319995     0.000000000000     1.007825032230
         H           -0.018609093354    -2.498649045226     0.000000000000     1.007825032230
         H            0.018609093354     2.498649045226     0.000000000000     1.007825032230
         H            2.154574626421    -1.265441319995     0.000000000000     1.007825032230
         H            2.173173719775     1.233207725748     0.000000000000     1.007825032230

  Running in c2h symmetry.

  Rotational constants: A =      0.18760  B =      0.18752  C =      0.09378 [cm^-1]
  Rotational constants: A =   5624.12726  B =   5621.66993  C =   2811.44916 [MHz]
  Nuclear repulsion =  202.028576396706484

  Charge       = 0
  Multiplicity = 1
  Electrons    = 42
  Nalpha       = 21
  Nbeta        = 21

  ==> Algorithm <==

  SCF Algorithm Type is DF.
  DIIS enabled.
  MOM disabled.
  Fractional occupation disabled.
  Guess Type is SAD.
  Energy threshold   = 1.00e-08
  Density threshold  = 1.00e-08
  Integral threshold = 0.00e+00

  ==> Primary Basis <==

  Basis Set: 6-31+G*
    Blend: 6-31+G*
    Number of shells: 60
    Number of basis function: 126
    Number of Cartesian functions: 126
    Spherical Harmonics?: false
    Max angular momentum: 2

  ==> DFT Potential <==

   => Composite Functional: B3LYP <= 

    B3LYP Hyb-GGA Exchange-Correlation Functional

    P. J. Stephens, F. J. Devlin, C. F. Chabalowski, and M. J. Frisch, J. Phys. Chem. 98, 11623 (1994)

    Deriv               =              1
    GGA                 =           TRUE
    Meta                =          FALSE

    Exchange Hybrid     =           TRUE
    MP2 Hybrid          =          FALSE

   => Exchange Functionals <=

    0.0800   Slater exchange
    0.7200         Becke 88

   => Exact (HF) Exchange <=

    0.2000               HF 

   => Correlation Functionals <=

    0.1900   Vosko, Wilk & Nusair (VWN5_RPA)
    0.8100   Lee, Yang & Parr

   => Molecular Quadrature <=

    Radial Scheme          =       TREUTLER
    Pruning Scheme         =           FLAT
    Nuclear Scheme         =       TREUTLER

    BS radius alpha        =              1
    Pruning alpha          =              1
    Radial Points          =             75
    Spherical Points       =            302
    Total Points           =         271800
    Total Blocks           =           2140
    Max Points             =            256
    Max Functions          =            126

   => Loading Basis Set <=

    Name: (6-31+G* AUX)
    Role: JKFIT
    Keyword: DF_BASIS_SCF
    atoms 1-6  entry C          line   194 file /home/akrom/software/anaconda3/envs/ffpenv/share/psi4/basis/heavy-aug-cc-pvdz-jkfit.gbs 
    atoms 7-12 entry H          line   116 file /home/akrom/software/anaconda3/envs/ffpenv/share/psi4/basis/heavy-aug-cc-pvdz-jkfit.gbs 

  ==> Pre-Iterations <==

   -------------------------------------------------------
    Irrep   Nso     Nmo     Nalpha   Nbeta   Ndocc  Nsocc
   -------------------------------------------------------
     Ag        48      48       0       0       0       0
     Bg        15      15       0       0       0       0
     Au        15      15       0       0       0       0
     Bu        48      48       0       0       0       0
   -------------------------------------------------------
    Total     126     126      21      21      21       0
   -------------------------------------------------------

  ==> Integral Setup <==

  DFHelper Memory: AOs need 0.097 GiB; user supplied 0.097 GiB. Using in-core AOs.

  ==> MemDFJK: Density-Fitted J/K Matrices <==

    J tasked:                   Yes
    K tasked:                   Yes
    wK tasked:                   No
    OpenMP threads:               1
    Memory [MiB]:                99
    Algorithm:                 Core
    Schwarz Cutoff:           1E-12
    Mask sparsity (%):       0.2268
    Fitting Condition:        1E-10

   => Auxiliary Basis Set <=

  Basis Set: (6-31+G* AUX)
    Blend: HEAVY-AUG-CC-PVDZ-JKFIT
    Number of shells: 222
    Number of basis function: 756
    Number of Cartesian functions: 756
    Spherical Harmonics?: false
    Max angular momentum: 3

  Cached 33.4% of DFT collocation blocks in 0.277 [GiB].

  Minimum eigenvalue in the overlap matrix is 6.7904437937E-06.
  Using Symmetric Orthogonalization.

  SCF Guess: Superposition of Atomic Densities via on-the-fly atomic UHF.

  ==> Iterations <==

                           Total Energy        Delta E     RMS |[F,P]|

   @DF-RKS iter SAD:  -231.56638078077418   -2.31566e+02   0.00000e+00 
   @DF-RKS iter   1:  -231.70082942668816   -1.34449e-01   1.37343e-02 DIIS
   @DF-RKS iter   2:  -231.21989446462831    4.80935e-01   1.89647e-02 DIIS
   @DF-RKS iter   3:  -232.25652641235988   -1.03663e+00   9.04720e-04 DIIS
   @DF-RKS iter   4:  -232.25839795030413   -1.87154e-03   2.24493e-04 DIIS
   @DF-RKS iter   5:  -232.25851699000344   -1.19040e-04   2.33662e-05 DIIS
   @DF-RKS iter   6:  -232.25851862574186   -1.63574e-06   3.72929e-06 DIIS
   @DF-RKS iter   7:  -232.25851864063497   -1.48931e-08   2.82723e-06 DIIS
   @DF-RKS iter   8:  -232.25851866029046   -1.96555e-08   2.31962e-08 DIIS
   @DF-RKS iter   9:  -232.25851866029285   -2.38742e-12   2.82603e-09 DIIS
  Energy and wave function converged.


  ==> Post-Iterations <==

    Orbital Energies [Eh]
    ---------------------

    Doubly Occupied:                                                      

       1Ag   -10.201277     1Bu   -10.201032     2Bu   -10.201012  
       2Ag   -10.200501     3Ag   -10.200480     3Bu   -10.200237  
       4Ag    -0.854107     4Bu    -0.748284     5Bu    -0.748187  
       5Ag    -0.605730     6Ag    -0.605596     7Ag    -0.524971  
       6Bu    -0.467195     7Bu    -0.447292     8Bu    -0.425650  
       9Bu    -0.425508     1Au    -0.367699     8Ag    -0.349734  
       9Ag    -0.349473     1Bg    -0.256668     2Bg    -0.256582  

    Virtual:                                                              

       2Au    -0.015865     3Au    -0.015734    10Ag     0.008542  
      10Bu     0.025937    11Bu     0.025944    11Ag     0.045437  
      12Ag     0.045444     4Au     0.066974    12Bu     0.077212  
      13Ag     0.079319     3Bg     0.092273     4Bg     0.092282  
      13Bu     0.099357     5Bg     0.124774     5Au     0.142333  
       6Au     0.142369    14Ag     0.144071    15Ag     0.144082  
      14Bu     0.154829    15Bu     0.154847    16Ag     0.193585  
      16Bu     0.195462    17Bu     0.195511     6Bg     0.203486  
      17Ag     0.211360    18Ag     0.211372    18Bu     0.233434  
      19Bu     0.241761    20Bu     0.241863    19Ag     0.265713  
      20Ag     0.275256    21Ag     0.275343    21Bu     0.321488  
      22Bu     0.344704    23Bu     0.344930    22Ag     0.345871  
      23Ag     0.346009    24Ag     0.559614    24Bu     0.577138  
      25Bu     0.593526    25Ag     0.619590     7Au     0.659101  
       7Bg     0.717426     8Bg     0.717446    26Ag     0.718576  
      27Ag     0.718767     8Au     0.745911     9Au     0.745938  
      26Bu     0.765947    27Bu     0.766071     9Bg     0.802236  
      28Ag     0.827163    28Bu     0.891285    29Ag     0.927434  
      30Ag     0.927610    29Bu     0.962929    30Bu     0.963201  
      31Ag     0.970470    32Ag     1.028158    31Bu     1.072580  
      32Bu     1.072719    33Bu     1.132886    34Bu     1.133105  
      33Ag     1.169997    34Ag     1.170082    10Bg     1.250765  
      35Bu     1.305620    10Au     1.394470    35Ag     1.428066  
      36Ag     1.428249    11Au     1.476212    12Au     1.476472  
      11Bg     1.505071    12Bg     1.505249    37Ag     1.746628  
      36Bu     1.810336    38Ag     1.874324    37Bu     1.892287  
      38Bu     1.975543    39Bu     1.975708    39Ag     2.092779  
      40Ag     2.092948    13Au     2.145870    14Au     2.146156  
      40Bu     2.152112    41Bu     2.152469    13Bg     2.294653  
      14Bg     2.295371    15Bg     2.312509    41Ag     2.565407  
      42Ag     2.565613    15Au     2.630974    43Ag     2.684591  
      44Ag     2.684955    42Bu     2.723995    43Bu     2.724360  
      44Bu     2.818802    45Ag     3.011093    45Bu     3.372664  
      46Ag     4.210851    46Bu     4.235491    47Bu     4.235685  
      47Ag     4.374183    48Ag     4.374245    48Bu     4.670145  

    Final Occupation by Irrep:
             Ag    Bg    Au    Bu 
    DOCC [     9,    2,    1,    9 ]

  @DF-RKS Final Energy:  -232.25851866029285

   => Energetics <=

    Nuclear Repulsion Energy =            202.0285763967064838
    One-Electron Energy =                -711.1073724051148019
    Two-Electron Energy =                 304.8932240256079922
    DFT Exchange-Correlation Energy =     -28.0729466774925527
    Empirical Dispersion Energy =           0.0000000000000000
    VV10 Nonlocal Energy =                  0.0000000000000000
    Total Energy =                       -232.2585186602928502

Computation Completed


Properties will be evaluated at   0.000000,   0.000000,   0.000000 [a0]

Properties computed using the SCF density matrix

  Nuclear Dipole Moment: [e a0]
     X:     0.0000      Y:     0.0000      Z:     0.0000

  Electronic Dipole Moment: [e a0]
     X:     0.0000      Y:     0.0000      Z:     0.0000

  Dipole Moment: [e a0]
     X:     0.0000      Y:     0.0000      Z:     0.0000     Total:     0.0000

  Dipole Moment: [D]
     X:     0.0000      Y:     0.0000      Z:     0.0000     Total:     0.0000


*** tstop() called on atlantis at Wed Apr 20 00:58:41 2022
Module time:
	user time   =      10.66 seconds =       0.18 minutes
	system time =       0.07 seconds =       0.00 minutes
	total time  =         10 seconds =       0.17 minutes
Total time:
	user time   =      61.24 seconds =       1.02 minutes
	system time =       0.61 seconds =       0.01 minutes
	total time  =         62 seconds =       1.03 minutes

*** tstart() called on atlantis
*** at Wed Apr 20 00:58:41 2022


         ------------------------------------------------------------
                                   SCF GRAD                          
                          Rob Parrish, Justin Turney,                
                       Andy Simmonett, and Alex Sokolov              
         ------------------------------------------------------------

  ==> Geometry <==

    Molecular point group: c2h
    Full point group: C2h

    Geometry (in Angstrom), charge = 0, multiplicity = 1:

       Center              X                  Y                   Z               Mass       
    ------------   -----------------  -----------------  -----------------  -----------------
         C           -1.220987522409    -0.693186890392     0.000000000000    12.000000000000
         C           -1.211103254647     0.711282573840     0.000000000000    12.000000000000
         C           -0.010442564864    -1.404519464231     0.000000000000    12.000000000000
         C            0.010442564864     1.404519464231     0.000000000000    12.000000000000
         C            1.211103254647    -0.711282573840     0.000000000000    12.000000000000
         C            1.220987522409     0.693186890392     0.000000000000    12.000000000000
         H           -2.173173719775    -1.233207725748     0.000000000000     1.007825032230
         H           -2.154574626421     1.265441319995     0.000000000000     1.007825032230
[...]
      5   C               -0.09 -0.13  0.00   -0.00 -0.00  0.21   -0.00 -0.00 -0.03   
      6   C               -0.31 -0.08 -0.00    0.00 -0.00 -0.21   -0.00 -0.00 -0.03   
      7   H                0.21  0.25 -0.00   -0.00 -0.00  0.35    0.00  0.00  0.41   
      8   H               -0.10 -0.20 -0.00    0.00 -0.00 -0.35    0.00  0.00  0.41   
      9   H               -0.11 -0.31 -0.00   -0.00  0.00 -0.35   -0.00 -0.00  0.41   
     10   H                0.11  0.31  0.00   -0.00  0.00  0.35   -0.00  0.00  0.41   
     11   H                0.10  0.20 -0.00   -0.00 -0.00  0.35   -0.00 -0.00  0.41   
     12   H               -0.21 -0.25 -0.00    0.00 -0.00 -0.35   -0.00 -0.00  0.41   

  Vibration                       13                  14                  15          
  Freq [cm^-1]                 889.2033            889.3035            997.8228       
  Irrep                           Bg                  Bg                  Ag          
  Reduced mass [u]              1.2479              1.2479              6.0418        
  Force const [mDyne/A]         0.5813              0.5815              3.5443        
  Turning point v=0 [a0]        0.3294              0.3294              0.1413        
  RMS dev v=0 [a0 u^1/2]        0.2602              0.2602              0.2456        
  Char temp [K]               1279.3656           1279.5098           1435.6449       
  ----------------------------------------------------------------------------------
      1   C                0.00  0.00 -0.05    0.00  0.00 -0.07    0.24  0.13 -0.00   
      2   C               -0.00  0.00  0.03    0.00  0.00 -0.08    0.24 -0.14  0.00   
      3   C                0.00 -0.00 -0.08    0.00  0.00  0.01   -0.00  0.28  0.00   
      4   C                0.00 -0.00  0.08   -0.00 -0.00 -0.01    0.00 -0.28  0.00   
      5   C               -0.00 -0.00 -0.03   -0.00  0.00  0.08   -0.24  0.14 -0.00   
      6   C                0.00  0.00  0.05   -0.00 -0.00  0.07   -0.24 -0.13 -0.00   
      7   H                0.00 -0.00  0.35    0.00  0.00  0.45    0.26  0.14  0.00   
      8   H               -0.00  0.00 -0.22    0.00  0.00  0.53    0.26 -0.15 -0.00   
      9   H                0.00 -0.00  0.57    0.00  0.00 -0.08    0.00  0.30 -0.00   
     10   H                0.00 -0.00 -0.57    0.00 -0.00  0.08   -0.00 -0.30 -0.00   
     11   H               -0.00 -0.00  0.22   -0.00 -0.00 -0.53   -0.26  0.15  0.00   
     12   H               -0.00  0.00 -0.35   -0.00  0.00 -0.45   -0.26 -0.14  0.00   

  Vibration                       16                  17                  18          
  Freq [cm^-1]                1000.0631           1000.1517           1016.4865       
  Irrep                           Au                  Au                  Bu          
  Reduced mass [u]              1.3505              1.3504              6.5392        
  Force const [mDyne/A]         0.7958              0.7959              3.9809        
  Turning point v=0 [a0]        0.2986              0.2986              0.1346        
  RMS dev v=0 [a0 u^1/2]        0.2453              0.2453              0.2434        
  Char temp [K]               1438.8682           1438.9956           1462.4978       
  ----------------------------------------------------------------------------------
      1   C                0.00 -0.00  0.04    0.00  0.00 -0.10   -0.25 -0.14 -0.00   
      2   C                0.00 -0.00  0.07   -0.00  0.00  0.08    0.25 -0.15  0.00   
      3   C               -0.00  0.00 -0.10    0.00 -0.00  0.02    0.00  0.29  0.00   
      4   C               -0.00  0.00 -0.10   -0.00 -0.00  0.02    0.00  0.29  0.00   
      5   C                0.00 -0.00  0.07    0.00 -0.00  0.08    0.25 -0.15 -0.00   
      6   C               -0.00 -0.00  0.04    0.00  0.00 -0.10   -0.25 -0.14 -0.00   
      7   H                0.00 -0.00 -0.20   -0.00  0.00  0.53   -0.25 -0.14  0.00   
      8   H                0.00 -0.00 -0.36   -0.00  0.00 -0.44    0.25 -0.15 -0.00   
      9   H               -0.00  0.00  0.56    0.00 -0.00 -0.10   -0.00  0.29 -0.00   
     10   H               -0.00  0.00  0.56    0.00 -0.00 -0.10   -0.00  0.29 -0.00   
     11   H                0.00  0.00 -0.36   -0.00 -0.00 -0.44    0.25 -0.15  0.00   
     12   H               -0.00 -0.00 -0.20    0.00  0.00  0.53   -0.25 -0.14  0.00   

  Vibration                       19                  20                  21          
  Freq [cm^-1]                1031.9845           1060.3098           1060.7422       
  Irrep                           Bg                  Bu                  Bu          
  Reduced mass [u]              1.2247              1.7972              1.7951        
  Force const [mDyne/A]         0.7684              1.1905              1.1900        
  Turning point v=0 [a0]        0.3087              0.2514              0.2515        
  RMS dev v=0 [a0 u^1/2]        0.2415              0.2383              0.2382        
  Char temp [K]               1484.7959           1525.5498           1526.1718       
  ----------------------------------------------------------------------------------
      1   C                0.00  0.00 -0.06    0.10 -0.03 -0.00   -0.06 -0.10 -0.00   
      2   C               -0.00  0.00  0.06   -0.08 -0.05  0.00   -0.08  0.09  0.00   
      3   C               -0.00 -0.00  0.06   -0.01  0.12  0.00    0.09  0.01 -0.00   
      4   C               -0.00 -0.00 -0.06   -0.01  0.12  0.00    0.09  0.01 -0.00   
      5   C                0.00  0.00 -0.06   -0.08 -0.05 -0.00   -0.08  0.09 -0.00   
      6   C                0.00  0.00  0.06    0.10 -0.03  0.00   -0.06 -0.10  0.00   
      7   H               -0.00  0.00  0.40    0.28 -0.34  0.00    0.07 -0.34  0.00   
      8   H               -0.00  0.00 -0.40   -0.30 -0.40 -0.00    0.00  0.24 -0.00   
      9   H               -0.00 -0.00 -0.40   -0.06  0.13 -0.00    0.54  0.01  0.00   
     10   H               -0.00 -0.00  0.40   -0.06  0.13 -0.00    0.54  0.01  0.00   
     11   H                0.00  0.00  0.40   -0.30 -0.40  0.00    0.00  0.24  0.00   
     12   H                0.00 -0.00 -0.40    0.28 -0.34 -0.00    0.07 -0.34 -0.00   

  Vibration                       22                  23                  24          
  Freq [cm^-1]                1187.4755           1207.2486           1211.7297       
  Irrep                           Bu                  Ag                  Ag          
  Reduced mass [u]              1.1699              1.1642              1.1545        
  Force const [mDyne/A]         0.9719              0.9997              0.9988        
  Turning point v=0 [a0]        0.2944              0.2927              0.2934        
  RMS dev v=0 [a0 u^1/2]        0.2252              0.2233              0.2229        
  Char temp [K]               1708.5129           1736.9619           1743.4092       
  ----------------------------------------------------------------------------------
      1   C               -0.02  0.04  0.00   -0.01  0.01  0.00   -0.03  0.06 -0.00   
      2   C               -0.03 -0.04  0.00    0.03  0.05 -0.00   -0.02 -0.04 -0.00   
      3   C                0.05 -0.00  0.00    0.06 -0.00 -0.00    0.02 -0.00 -0.00   
      4   C                0.05 -0.00 -0.00   -0.06  0.00  0.00   -0.02  0.00  0.00   
      5   C               -0.03 -0.04 -0.00   -0.03 -0.05 -0.00    0.02  0.04 -0.00   
      6   C               -0.02  0.04  0.00    0.01 -0.01 -0.00    0.03 -0.06 -0.00   
      7   H               -0.20  0.35 -0.00   -0.04  0.07 -0.00   -0.28  0.49  0.00   
      8   H               -0.21 -0.35 -0.00    0.23  0.38  0.00   -0.18 -0.31  0.00   
      9   H                0.41 -0.00 -0.00    0.54 -0.00  0.00    0.21 -0.00  0.00   
     10   H                0.41 -0.00  0.00   -0.54  0.00 -0.00   -0.21  0.00 -0.00   
     11   H               -0.21 -0.35  0.00   -0.23 -0.38 -0.00    0.18  0.31 -0.00   
     12   H               -0.20  0.35 -0.00    0.04 -0.07  0.00    0.28 -0.49  0.00   

  Vibration                       25                  26                  27          
  Freq [cm^-1]                1330.4891           1393.2273           1519.7761       
  Irrep                           Bu                  Ag                  Bu          
  Reduced mass [u]              4.5297              1.2479              1.8968        
  Force const [mDyne/A]         4.7243              1.4271              2.5813        
  Turning point v=0 [a0]        0.1413              0.2632              0.2044        
  RMS dev v=0 [a0 u^1/2]        0.2127              0.2079              0.1990        
  Char temp [K]               1914.2776           2004.5439           2186.6195       
  ----------------------------------------------------------------------------------
      1   C               -0.11  0.20 -0.00   -0.03  0.05 -0.00    0.07  0.05  0.00   
      2   C               -0.12 -0.20  0.00    0.03  0.05 -0.00   -0.02 -0.13 -0.00   
      3   C                0.23 -0.00  0.00   -0.06  0.00  0.00   -0.12  0.04  0.00   
      4   C                0.23 -0.00 -0.00    0.06 -0.00  0.00   -0.12  0.04 -0.00   
      5   C               -0.12 -0.20  0.00   -0.03 -0.05 -0.00   -0.02 -0.13  0.00   
      6   C               -0.11  0.20 -0.00    0.03 -0.05  0.00    0.07  0.05  0.00   
      7   H                0.17 -0.29 -0.00    0.20 -0.35  0.00    0.10  0.03 -0.00   
      8   H                0.17  0.29 -0.00   -0.21 -0.35  0.00    0.28  0.37 -0.00   
      9   H               -0.34  0.00 -0.00    0.40 -0.00  0.00    0.48  0.05 -0.00   
     10   H               -0.34  0.00  0.00   -0.40  0.00 -0.00    0.48  0.05  0.00   
     11   H                0.17  0.29 -0.00    0.21  0.35 -0.00    0.28  0.37 -0.00   
     12   H                0.17 -0.29 -0.00   -0.20  0.35  0.00    0.10  0.03 -0.00   

  Vibration                       28                  29                  30          
  Freq [cm^-1]                1520.0641           1622.9570           1633.4163       
  Irrep                           Bu                  Ag                  Ag          
  Reduced mass [u]              1.8973              4.6914              4.9176        
  Force const [mDyne/A]         2.5829              7.2806              7.7303        
  Turning point v=0 [a0]        0.2043              0.1257              0.1224        
  RMS dev v=0 [a0 u^1/2]        0.1990              0.1926              0.1920        
  Char temp [K]               2187.0338           2335.0737           2350.1224       
  ----------------------------------------------------------------------------------
      1   C                0.07 -0.12 -0.00   -0.04 -0.18 -0.00   -0.19  0.21 -0.00   
      2   C               -0.10 -0.03  0.00    0.16  0.26 -0.00    0.12 -0.09  0.00   
      3   C                0.07  0.08 -0.00    0.16  0.12 -0.00    0.26 -0.08  0.00   
      4   C                0.07  0.08  0.00   -0.16 -0.12 -0.00   -0.26  0.08 -0.00   
      5   C               -0.10 -0.03 -0.00   -0.16 -0.26  0.00   -0.12  0.09 -0.00   
      6   C                0.07 -0.12 -0.00    0.04  0.18  0.00    0.19 -0.21 -0.00   
      7   H               -0.26  0.47  0.00   -0.22  0.11  0.00    0.12 -0.36  0.00   
      8   H                0.07  0.29  0.00   -0.22 -0.38  0.00    0.15 -0.07 -0.00   
      9   H               -0.25  0.09  0.00   -0.24  0.13  0.00   -0.38 -0.08 -0.00   
     10   H               -0.25  0.09 -0.00    0.24 -0.13 -0.00    0.38  0.08  0.00   
     11   H                0.07  0.29 -0.00    0.22  0.38 -0.00   -0.15  0.07 -0.00   
     12   H               -0.26  0.47  0.00    0.22 -0.11  0.00   -0.12  0.36 -0.00   

  Vibration                       31                  32                  33          
  Freq [cm^-1]                3109.9647           3119.5109           3119.7832       
  Irrep                           Bu                  Ag                  Ag          
  Reduced mass [u]              1.0838              1.0876              1.0878        
  Force const [mDyne/A]         6.1763              6.2356              6.2379        
  Turning point v=0 [a0]        0.1890              0.1884              0.1884        
  RMS dev v=0 [a0 u^1/2]        0.1391              0.1389              0.1389        
  Char temp [K]               4474.5468           4488.2817           4488.6734       
  ----------------------------------------------------------------------------------
      1   C                0.03  0.02 -0.00    0.01  0.00 -0.00   -0.04 -0.02  0.00   
      2   C               -0.03  0.02 -0.00   -0.04  0.02 -0.00    0.02 -0.01 -0.00   
      3   C               -0.00 -0.03  0.00   -0.00  0.04 -0.00    0.00  0.03  0.00   
      4   C               -0.00 -0.03 -0.00    0.00 -0.04 -0.00   -0.00 -0.03  0.00   
      5   C               -0.03  0.02 -0.00    0.04 -0.02  0.00   -0.02  0.01  0.00   
      6   C                0.03  0.02 -0.00   -0.01 -0.00  0.00    0.04  0.02  0.00   
      7   H               -0.36 -0.20  0.00   -0.08 -0.04  0.00    0.49  0.28  0.00   
      8   H                0.35 -0.20 -0.00    0.47 -0.28  0.00   -0.18  0.10  0.00   
      9   H                0.00  0.40 -0.00   -0.00 -0.44  0.00   -0.00 -0.38  0.00   
     10   H                0.00  0.40 -0.00    0.00  0.44 -0.00    0.00  0.38 -0.00   
     11   H                0.35 -0.20 -0.00   -0.47  0.28  0.00    0.18 -0.10  0.00   
     12   H               -0.36 -0.20 -0.00    0.08  0.04  0.00   -0.49 -0.28  0.00   

  Vibration                       34                  35                  36          
  Freq [cm^-1]                3135.6375           3135.7187           3144.8979       
  Irrep                           Bu                  Bu                  Ag          
  Reduced mass [u]              1.0947              1.0946              1.0988        
  Force const [mDyne/A]         6.3418              6.3415              6.4032        
  Turning point v=0 [a0]        0.1873              0.1873              0.1867        
  RMS dev v=0 [a0 u^1/2]        0.1386              0.1386              0.1384        
  Char temp [K]               4511.4842           4511.6010           4524.8078       
  ----------------------------------------------------------------------------------
      1   C               -0.04 -0.02  0.00   -0.01 -0.01 -0.00   -0.03 -0.02 -0.00   
      2   C               -0.01  0.01 -0.00   -0.04  0.02 -0.00   -0.03  0.02  0.00   
      3   C                0.00 -0.04 -0.00    0.00  0.03 -0.00   -0.00 -0.04  0.00   
      4   C                0.00 -0.04 -0.00    0.00  0.03  0.00    0.00  0.04 -0.00   
      5   C               -0.01  0.01 -0.00   -0.04  0.02 -0.00    0.03 -0.02 -0.00   
      6   C               -0.04 -0.02 -0.00   -0.01 -0.01  0.00    0.03  0.02 -0.00   
      7   H                0.48  0.27 -0.00    0.15  0.09  0.00    0.36  0.21  0.00   
      8   H                0.11 -0.07 -0.00    0.49 -0.28  0.00    0.34 -0.20 -0.00   
      9   H               -0.00  0.43 -0.00   -0.01 -0.39  0.00    0.00  0.41 -0.00   
     10   H               -0.00  0.43  0.00   -0.01 -0.39 -0.00   -0.00 -0.41 -0.00   
     11   H                0.11 -0.07 -0.00    0.49 -0.28  0.00   -0.34  0.20 -0.00   
     12   H                0.48  0.27 -0.00    0.15  0.09  0.00   -0.36 -0.21  0.00   

  ==> Thermochemistry Components <==

  Entropy, S
    Electronic S            0.000 [cal/(mol K)]        0.000 [J/(mol K)]       0.00000000 [mEh/K] (multiplicity = 1)
    Translational S        38.979 [cal/(mol K)]      163.089 [J/(mol K)]       0.06211726 [mEh/K] (mol. weight = 78.0470 [u], P = 101325.00 [Pa])
    Rotational S           24.318 [cal/(mol K)]      101.746 [J/(mol K)]       0.03875307 [mEh/K] (symmetry no. = 2)
    Vibrational S           4.225 [cal/(mol K)]       17.677 [J/(mol K)]       0.00673299 [mEh/K]
  Total S                  67.522 [cal/(mol K)]      282.512 [J/(mol K)]       0.10760333 [mEh/K]
  Correction S              0.000 [cal/(mol K)]        0.000 [J/(mol K)]       0.00000000 [mEh/K]

  Constant volume heat capacity, Cv
    Electronic Cv           0.000 [cal/(mol K)]        0.000 [J/(mol K)]       0.00000000 [mEh/K]
    Translational Cv        2.981 [cal/(mol K)]       12.472 [J/(mol K)]       0.00475022 [mEh/K]
    Rotational Cv           2.981 [cal/(mol K)]       12.472 [J/(mol K)]       0.00475022 [mEh/K]
    Vibrational Cv         10.964 [cal/(mol K)]       45.875 [J/(mol K)]       0.01747289 [mEh/K]
  Total Cv                 16.926 [cal/(mol K)]       70.818 [J/(mol K)]       0.02697332 [mEh/K]
  Correction Cv             0.000 [cal/(mol K)]        0.000 [J/(mol K)]       0.00000000 [mEh/K]

  Constant pressure heat capacity, Cp
    Electronic Cp           0.000 [cal/(mol K)]        0.000 [J/(mol K)]       0.00000000 [mEh/K]
    Translational Cp        4.968 [cal/(mol K)]       20.786 [J/(mol K)]       0.00791703 [mEh/K]
    Rotational Cp           2.981 [cal/(mol K)]       12.472 [J/(mol K)]       0.00475022 [mEh/K]
    Vibrational Cp         10.964 [cal/(mol K)]       45.875 [J/(mol K)]       0.01747289 [mEh/K]
  Total Cp                 18.913 [cal/(mol K)]       79.133 [J/(mol K)]       0.03014013 [mEh/K]
  Correction Cp             0.000 [cal/(mol K)]        0.000 [J/(mol K)]       0.00000000 [mEh/K]

  ==> Thermochemistry Energy Analysis <==

  Raw electronic energy, E0
  Total E0, Electronic energy at well bottom at 0 [K]                 -232.25850550 [Eh]

  Zero-point energy, ZPE_vib = Sum_i nu_i / 2
    Electronic ZPE          0.000 [kcal/mol]        0.000 [kJ/mol]       0.00000000 [Eh]
    Translational ZPE       0.000 [kcal/mol]        0.000 [kJ/mol]       0.00000000 [Eh]
    Rotational ZPE          0.000 [kcal/mol]        0.000 [kJ/mol]       0.00000000 [Eh]
    Vibrational ZPE        62.723 [kcal/mol]      262.434 [kJ/mol]       0.09995578 [Eh]       21937.757 [cm^-1]
  Correction ZPE           62.723 [kcal/mol]      262.434 [kJ/mol]       0.09995578 [Eh]       21937.757 [cm^-1]
  Total ZPE, Electronic energy at 0 [K]                               -232.15854973 [Eh]

  Thermal Energy, E (includes ZPE)
    Electronic E            0.000 [kcal/mol]        0.000 [kJ/mol]       0.00000000 [Eh]
    Translational E         0.889 [kcal/mol]        3.718 [kJ/mol]       0.00141628 [Eh]
    Rotational E            0.889 [kcal/mol]        3.718 [kJ/mol]       0.00141628 [Eh]
    Vibrational E          63.668 [kcal/mol]      266.389 [kJ/mol]       0.10146213 [Eh]
  Correction E             65.446 [kcal/mol]      273.826 [kJ/mol]       0.10429468 [Eh]
  Total E, Electronic energy at  298.15 [K]                           -232.15421082 [Eh]

  Enthalpy, H_trans = E_trans + k_B * T
    Electronic H            0.000 [kcal/mol]        0.000 [kJ/mol]       0.00000000 [Eh]
    Translational H         1.481 [kcal/mol]        6.197 [kJ/mol]       0.00236046 [Eh]
    Rotational H            0.889 [kcal/mol]        3.718 [kJ/mol]       0.00141628 [Eh]
    Vibrational H          63.668 [kcal/mol]      266.389 [kJ/mol]       0.10146213 [Eh]
  Correction H             66.038 [kcal/mol]      276.305 [kJ/mol]       0.10523887 [Eh]
  Total H, Enthalpy at  298.15 [K]                                    -232.15326664 [Eh]

  Gibbs free energy, G = H - T * S
    Electronic G            0.000 [kcal/mol]        0.000 [kJ/mol]       0.00000000 [Eh]
    Translational G       -10.140 [kcal/mol]      -42.428 [kJ/mol]      -0.01615980 [Eh]
    Rotational G           -6.362 [kcal/mol]      -26.617 [kJ/mol]      -0.01013795 [Eh]
    Vibrational G          62.409 [kcal/mol]      261.118 [kJ/mol]       0.09945469 [Eh]
  Correction G             45.907 [kcal/mol]      192.074 [kJ/mol]       0.07315694 [Eh]
  Total G, Free enthalpy at  298.15 [K]                               -232.18534857 [Eh]

    Psi4 stopped on: Wednesday, 20 April 2022 01:07AM
    Psi4 wall time for execution: 0:10:18.88

*** Psi4 exiting successfully. Buy a developer a beer!
