
    -----------------------------------------------------------------------
          Psi4: An Open-Source Ab Initio Electronic Structure Package
                               Psi4 1.3.2 release

                         Git: Rev {HEAD} ecbda83 


    R. M. Parrish, L. A. Burns, D. G. A. Smith, A. C. Simmonett,
    A. E. DePrince III, E. G. Hohenstein, U. Bozkaya, A. Yu. Sokolov,
    R. Di Remigio, R. M. Richard, J. F. Gonthier, A. M. James,
    H. R. McAlexander, A. Kumar, M. Saitow, X. Wang, B. P. Pritchard,
    P. Verma, H. F. Schaefer III, K. Patkowski, R. A. King, E. F. Valeev,
    F. A. Evangelista, J. M. Turney, T. D. Crawford, and C. D. Sherrill,
    J. Chem. Theory Comput. 13(7) pp 3185--3197 (2017).
    (doi: 10.1021/acs.jctc.7b00174)


                         Additional Contributions by
    P. Kraus, H. Kruse, M. H. Lechner, M. C. Schieber, R. A. Shaw,
    A. Alenaizan, R. Galvelis, Z. L. Glick, S. Lehtola, and J. P. Misiewicz

    -----------------------------------------------------------------------


    Psi4 started on: Tuesday, 19 April 2022 02:04AM

    Process ID: 25987
    Host:       atlantis
    PSIDATADIR: /home/akrom/software/anaconda3/envs/ffpenv/share/psi4
    Memory:     500.0 MiB
    Threads:    1
    
  ==> Input File <==

--------------------------------------------------------------------------
set basis  cc-pVTZ
molecule {
0 1
   C       -0.61446        0.00000        0.00000
   C        0.61446        0.00000        0.00000
   H       -1.68923        0.00000        0.00000
   H        1.68923        0.00000        0.00000
}
energy('B3LYP')
frequencies('B3LYP')
--------------------------------------------------------------------------

*** tstart() called on atlantis
*** at Tue Apr 19 02:04:54 2022

   => Loading Basis Set <=

    Name: CC-PVTZ
    Role: ORBITAL
    Keyword: BASIS
    atoms 1-2 entry C          line   186 file /home/akrom/software/anaconda3/envs/ffpenv/share/psi4/basis/cc-pvtz.gbs 
    atoms 3-4 entry H          line    23 file /home/akrom/software/anaconda3/envs/ffpenv/share/psi4/basis/cc-pvtz.gbs 


         ---------------------------------------------------------
                                   SCF
               by Justin Turney, Rob Parrish, Andy Simmonett
                          and Daniel G. A. Smith
                              RKS Reference
                        1 Threads,    500 MiB Core
         ---------------------------------------------------------

  ==> Geometry <==

    Molecular point group: d2h
    Full point group: D_inf_h

    Geometry (in Angstrom), charge = 0, multiplicity = 1:

       Center              X                  Y                   Z               Mass       
    ------------   -----------------  -----------------  -----------------  -----------------
         C           -0.614460000000    -0.000000000000     0.000000000000    12.000000000000
         C            0.614460000000     0.000000000000     0.000000000000    12.000000000000
         H           -1.689230000000    -0.000000000000     0.000000000000     1.007825032230
         H            1.689230000000     0.000000000000     0.000000000000     1.007825032230

  Running in d2h symmetry.

  Rotational constants: A = ************  B =      1.13802  C =      1.13802 [cm^-1]
  Rotational constants: A = ************  B =  34116.98697  C =  34116.98697 [MHz]
  Nuclear repulsion =   24.323218171379235

  Charge       = 0
  Multiplicity = 1
  Electrons    = 14
  Nalpha       = 7
  Nbeta        = 7

  ==> Algorithm <==

  SCF Algorithm Type is DF.
  DIIS enabled.
  MOM disabled.
  Fractional occupation disabled.
  Guess Type is SAD.
  Energy threshold   = 1.00e-06
  Density threshold  = 1.00e-06
  Integral threshold = 0.00e+00

  ==> Primary Basis <==

  Basis Set: CC-PVTZ
    Blend: CC-PVTZ
    Number of shells: 32
    Number of basis function: 88
    Number of Cartesian functions: 100
    Spherical Harmonics?: true
    Max angular momentum: 3

  ==> DFT Potential <==

   => Composite Functional: B3LYP <= 

    B3LYP Hyb-GGA Exchange-Correlation Functional

    P. J. Stephens, F. J. Devlin, C. F. Chabalowski, and M. J. Frisch, J. Phys. Chem. 98, 11623 (1994)

    Deriv               =              1
    GGA                 =           TRUE
    Meta                =          FALSE

    Exchange Hybrid     =           TRUE
    MP2 Hybrid          =          FALSE

   => Exchange Functionals <=

    0.0800   Slater exchange
    0.7200         Becke 88

   => Exact (HF) Exchange <=

    0.2000               HF 

   => Correlation Functionals <=

    0.1900   Vosko, Wilk & Nusair (VWN5_RPA)
    0.8100   Lee, Yang & Parr

   => Molecular Quadrature <=

    Radial Scheme          =       TREUTLER
    Pruning Scheme         =           FLAT
    Nuclear Scheme         =       TREUTLER

    BS radius alpha        =              1
    Pruning alpha          =              1
    Radial Points          =             75
    Spherical Points       =            302
    Total Points           =          88542
    Total Blocks           =            734
    Max Points             =            253
    Max Functions          =             88

   => Loading Basis Set <=

    Name: (CC-PVTZ AUX)
    Role: JKFIT
    Keyword: DF_BASIS_SCF
    atoms 1-2 entry C          line   125 file /home/akrom/software/anaconda3/envs/ffpenv/share/psi4/basis/cc-pvtz-jkfit.gbs 
    atoms 3-4 entry H          line    51 file /home/akrom/software/anaconda3/envs/ffpenv/share/psi4/basis/cc-pvtz-jkfit.gbs 

  ==> Pre-Iterations <==

   -------------------------------------------------------
    Irrep   Nso     Nmo     Nalpha   Nbeta   Ndocc  Nsocc
   -------------------------------------------------------
     Ag        20      20       0       0       0       0
     B1g       10      10       0       0       0       0
     B2g       10      10       0       0       0       0
     B3g        4       4       0       0       0       0
     Au         4       4       0       0       0       0
     B1u       10      10       0       0       0       0
     B2u       10      10       0       0       0       0
     B3u       20      20       0       0       0       0
   -------------------------------------------------------
    Total      88      88       7       7       7       0
   -------------------------------------------------------

  ==> Integral Setup <==

  DFHelper Memory: AOs need 0.015 GiB; user supplied 0.162 GiB. Using in-core AOs.

  ==> MemDFJK: Density-Fitted J/K Matrices <==

    J tasked:                   Yes
    K tasked:                   Yes
    wK tasked:                   No
    OpenMP threads:               1
    Memory [MiB]:               166
    Algorithm:                 Core
    Schwarz Cutoff:           1E-12
    Mask sparsity (%):       0.1033
    Fitting Condition:        1E-10

   => Auxiliary Basis Set <=

  Basis Set: (CC-PVTZ AUX)
    Blend: CC-PVTZ-JKFIT
    Number of shells: 70
    Number of basis function: 218
    Number of Cartesian functions: 262
    Spherical Harmonics?: true
    Max angular momentum: 4

  Cached 100.0% of DFT collocation blocks in 0.204 [GiB].

  Minimum eigenvalue in the overlap matrix is 1.4146724323E-04.
  Using Symmetric Orthogonalization.

  SCF Guess: Superposition of Atomic Densities via on-the-fly atomic UHF.

  ==> Iterations <==

                           Total Energy        Delta E     RMS |[F,P]|

   @DF-RKS iter SAD:   -76.71358070582124   -7.67136e+01   0.00000e+00 
   @DF-RKS iter   1:   -77.16970046769985   -4.56120e-01   1.73390e-02 DIIS
   @DF-RKS iter   2:   -77.14760002022466    2.21004e-02   1.76625e-02 DIIS
   @DF-RKS iter   3:   -77.36089950403347   -2.13299e-01   7.18111e-04 DIIS
   @DF-RKS iter   4:   -77.36128146980512   -3.81966e-04   6.66570e-05 DIIS
   @DF-RKS iter   5:   -77.36128454702870   -3.07722e-06   7.85497e-06 DIIS
   @DF-RKS iter   6:   -77.36128458133702   -3.43083e-08   8.63869e-07 DIIS
  Energy and wave function converged.


  ==> Post-Iterations <==

    Orbital Energies [Eh]
    ---------------------

    Doubly Occupied:                                                      

       1Ag   -10.193119     1B3u  -10.191094     2Ag    -0.751494  
       2B3u   -0.572800     3Ag    -0.499901     1B1u   -0.294427  
       1B2u   -0.294427  

    Virtual:                                                              

       1B2g    0.017938     1B1g    0.017938     3B3u    0.052325  
       4Ag     0.075569     5Ag     0.181089     4B3u    0.237437  
       2B1u    0.289406     2B2u    0.289406     2B2g    0.389927  
       2B1g    0.389927     5B3u    0.396645     6Ag     0.442074  
       7Ag     0.594649     1B3g    0.594649     3B2u    0.611376  
       3B1u    0.611376     8Ag     0.612459     6B3u    0.763327  
       7B3u    0.850151     3B2g    0.872836     3B1g    0.872836  
       8B3u    0.887813     1Au     0.887813     9Ag     1.009470  
       4B1u    1.223309     4B2u    1.223309     9B3u    1.357318  
      10Ag     1.420139     4B2g    1.437207     4B1g    1.437207  
      10B3u    1.719977     5B1u    1.975904     5B2u    1.975904  
      11Ag     2.179477    11B3u    2.368909     2B3g    2.397510  
      12Ag     2.397510     5B2g    2.406915     5B1g    2.406915  
       6B1u    2.529247     6B2u    2.529247     7B1u    2.680743  
       7B2u    2.680743    13Ag     2.816598    14Ag     2.874284  
      15Ag     2.899572     3B3g    2.899572    12B3u    2.904401  
       6B2g    2.909238     6B1g    2.909238     7B1g    2.920522  
       7B2g    2.920522    13B3u    2.993132     2Au     2.993132  
       8B1u    3.094782     8B2u    3.094782    14B3u    3.117002  
       3Au     3.117002    15B3u    3.530466    16Ag     3.580814  
       4B3g    3.580815     8B2g    3.805340     8B1g    3.805340  
       9B1u    3.959935     9B2u    3.959935    17Ag     4.103687  
      16B3u    4.145356     4Au     4.145357    17B3u    4.433763  
       9B2g    4.502912     9B1g    4.502912    18Ag     4.753437  
      10B2u    5.364543    10B1u    5.364543    18B3u    5.683718  
      10B2g    5.933004    10B1g    5.933004    19B3u    5.935396  
      19Ag     6.208171    20Ag     8.870092    20B3u   15.341690  

    Final Occupation by Irrep:
             Ag   B1g   B2g   B3g    Au   B1u   B2u   B3u 
    DOCC [     3,    0,    0,    0,    0,    1,    1,    2 ]

  @DF-RKS Final Energy:   -77.36128458133702

   => Energetics <=

    Nuclear Repulsion Energy =             24.3232181713792350
    One-Electron Energy =                -151.0907940215830649
    Two-Electron Energy =                  58.6863923382748069
    DFT Exchange-Correlation Energy =      -9.2801010694080048
    Empirical Dispersion Energy =           0.0000000000000000
    VV10 Nonlocal Energy =                  0.0000000000000000
    Total Energy =                        -77.3612845813370313

Computation Completed


Properties will be evaluated at   0.000000,   0.000000,   0.000000 [a0]

Properties computed using the SCF density matrix

  Nuclear Dipole Moment: [e a0]
     X:     0.0000      Y:     0.0000      Z:     0.0000

  Electronic Dipole Moment: [e a0]
     X:     0.0000      Y:     0.0000      Z:     0.0000

  Dipole Moment: [e a0]
     X:     0.0000      Y:     0.0000      Z:     0.0000     Total:     0.0000

  Dipole Moment: [D]
     X:     0.0000      Y:     0.0000      Z:     0.0000     Total:     0.0000


*** tstop() called on atlantis at Tue Apr 19 02:04:56 2022
Module time:
	user time   =       1.91 seconds =       0.03 minutes
	system time =       0.04 seconds =       0.00 minutes
	total time  =          2 seconds =       0.03 minutes
Total time:
	user time   =       1.91 seconds =       0.03 minutes
	system time =       0.04 seconds =       0.00 minutes
	total time  =          2 seconds =       0.03 minutes
gradient() will perform analytic gradient computation.

*** tstart() called on atlantis
*** at Tue Apr 19 02:04:56 2022

   => Loading Basis Set <=

    Name: CC-PVTZ
    Role: ORBITAL
    Keyword: BASIS
    atoms 1-2 entry C          line   186 file /home/akrom/software/anaconda3/envs/ffpenv/share/psi4/basis/cc-pvtz.gbs 
    atoms 3-4 entry H          line    23 file /home/akrom/software/anaconda3/envs/ffpenv/share/psi4/basis/cc-pvtz.gbs 


         ---------------------------------------------------------
                                   SCF
               by Justin Turney, Rob Parrish, Andy Simmonett
                          and Daniel G. A. Smith
                              RKS Reference
                        1 Threads,    500 MiB Core
         ---------------------------------------------------------

  ==> Geometry <==

    Molecular point group: d2h
    Full point group: D_inf_h

    Geometry (in Angstrom), charge = 0, multiplicity = 1:

       Center              X                  Y                   Z               Mass       
    ------------   -----------------  -----------------  -----------------  -----------------
         C           -0.614460000000    -0.000000000000     0.000000000000    12.000000000000
         C            0.614460000000     0.000000000000     0.000000000000    12.000000000000
         H           -1.689230000000    -0.000000000000     0.000000000000     1.007825032230
         H            1.689230000000     0.000000000000     0.000000000000     1.007825032230

  Running in d2h symmetry.

  Rotational constants: A = ************  B =      1.13802  C =      1.13802 [cm^-1]
  Rotational constants: A = ************  B =  34116.98697  C =  34116.98697 [MHz]
  Nuclear repulsion =   24.323218171379235

  Charge       = 0
  Multiplicity = 1
  Electrons    = 14
  Nalpha       = 7
  Nbeta        = 7

  ==> Algorithm <==

  SCF Algorithm Type is DF.
  DIIS enabled.
  MOM disabled.
  Fractional occupation disabled.
  Guess Type is SAD.
  Energy threshold   = 1.00e-08
  Density threshold  = 1.00e-08
  Integral threshold = 0.00e+00

  ==> Primary Basis <==

  Basis Set: CC-PVTZ
    Blend: CC-PVTZ
    Number of shells: 32
    Number of basis function: 88
    Number of Cartesian functions: 100
    Spherical Harmonics?: true
    Max angular momentum: 3

  ==> DFT Potential <==

   => Composite Functional: B3LYP <= 

    B3LYP Hyb-GGA Exchange-Correlation Functional

    P. J. Stephens, F. J. Devlin, C. F. Chabalowski, and M. J. Frisch, J. Phys. Chem. 98, 11623 (1994)

    Deriv               =              1
    GGA                 =           TRUE
    Meta                =          FALSE

    Exchange Hybrid     =           TRUE
    MP2 Hybrid          =          FALSE

   => Exchange Functionals <=

    0.0800   Slater exchange
    0.7200         Becke 88

   => Exact (HF) Exchange <=

    0.2000               HF 

   => Correlation Functionals <=

    0.1900   Vosko, Wilk & Nusair (VWN5_RPA)
    0.8100   Lee, Yang & Parr

   => Molecular Quadrature <=

    Radial Scheme          =       TREUTLER
    Pruning Scheme         =           FLAT
    Nuclear Scheme         =       TREUTLER

    BS radius alpha        =              1
    Pruning alpha          =              1
    Radial Points          =             75
    Spherical Points       =            302
    Total Points           =          88542
    Total Blocks           =            734
    Max Points             =            253
    Max Functions          =             88

   => Loading Basis Set <=

    Name: (CC-PVTZ AUX)
    Role: JKFIT
    Keyword: DF_BASIS_SCF
    atoms 1-2 entry C          line   125 file /home/akrom/software/anaconda3/envs/ffpenv/share/psi4/basis/cc-pvtz-jkfit.gbs 
    atoms 3-4 entry H          line    51 file /home/akrom/software/anaconda3/envs/ffpenv/share/psi4/basis/cc-pvtz-jkfit.gbs 

  ==> Pre-Iterations <==

   -------------------------------------------------------
    Irrep   Nso     Nmo     Nalpha   Nbeta   Ndocc  Nsocc
   -------------------------------------------------------
     Ag        20      20       0       0       0       0
     B1g       10      10       0       0       0       0
     B2g       10      10       0       0       0       0
     B3g        4       4       0       0       0       0
     Au         4       4       0       0       0       0
     B1u       10      10       0       0       0       0
     B2u       10      10       0       0       0       0
     B3u       20      20       0       0       0       0
   -------------------------------------------------------
    Total      88      88       7       7       7       0
   -------------------------------------------------------

  ==> Integral Setup <==

  DFHelper Memory: AOs need 0.015 GiB; user supplied 0.162 GiB. Using in-core AOs.

  ==> MemDFJK: Density-Fitted J/K Matrices <==

    J tasked:                   Yes
    K tasked:                   Yes
    wK tasked:                   No
    OpenMP threads:               1
    Memory [MiB]:               166
    Algorithm:                 Core
    Schwarz Cutoff:           1E-12
    Mask sparsity (%):       0.1033
    Fitting Condition:        1E-10

   => Auxiliary Basis Set <=

  Basis Set: (CC-PVTZ AUX)
    Blend: CC-PVTZ-JKFIT
    Number of shells: 70
    Number of basis function: 218
    Number of Cartesian functions: 262
    Spherical Harmonics?: true
    Max angular momentum: 4

  Cached 100.0% of DFT collocation blocks in 0.204 [GiB].

  Minimum eigenvalue in the overlap matrix is 1.4146724323E-04.
  Using Symmetric Orthogonalization.

  SCF Guess: Superposition of Atomic Densities via on-the-fly atomic UHF.

  ==> Iterations <==

                           Total Energy        Delta E     RMS |[F,P]|

   @DF-RKS iter SAD:   -76.71358070582124   -7.67136e+01   0.00000e+00 
   @DF-RKS iter   1:   -77.16970046769985   -4.56120e-01   1.73390e-02 DIIS
   @DF-RKS iter   2:   -77.14760002022466    2.21004e-02   1.76625e-02 DIIS
   @DF-RKS iter   3:   -77.36089950403347   -2.13299e-01   7.18111e-04 DIIS
   @DF-RKS iter   4:   -77.36128146980512   -3.81966e-04   6.66570e-05 DIIS
   @DF-RKS iter   5:   -77.36128454702870   -3.07722e-06   7.85497e-06 DIIS
   @DF-RKS iter   6:   -77.36128458133702   -3.43083e-08   8.63869e-07 DIIS
   @DF-RKS iter   7:   -77.36128458180725   -4.70237e-10   7.16691e-08 DIIS
   @DF-RKS iter   8:   -77.36128458181000   -2.74269e-12   3.46973e-09 DIIS
  Energy and wave function converged.


  ==> Post-Iterations <==

    Orbital Energies [Eh]
    ---------------------

    Doubly Occupied:                                                      

       1Ag   -10.193118     1B3u  -10.191094     2Ag    -0.751493  
       2B3u   -0.572799     3Ag    -0.499900     1B1u   -0.294426  
       1B2u   -0.294426  

    Virtual:                                                              

       1B2g    0.017939     1B1g    0.017939     3B3u    0.052326  
       4Ag     0.075570     5Ag     0.181089     4B3u    0.237437  
       2B1u    0.289406     2B2u    0.289406     2B2g    0.389927  
       2B1g    0.389927     5B3u    0.396646     6Ag     0.442075  
       7Ag     0.594649     1B3g    0.594649     3B2u    0.611376  
       3B1u    0.611376     8Ag     0.612459     6B3u    0.763327  
       7B3u    0.850151     3B2g    0.872836     3B1g    0.872836  
       8B3u    0.887813     1Au     0.887813     9Ag     1.009471  
       4B1u    1.223309     4B2u    1.223309     9B3u    1.357319  
      10Ag     1.420139     4B2g    1.437207     4B1g    1.437207  
      10B3u    1.719978     5B1u    1.975904     5B2u    1.975904  
      11Ag     2.179478    11B3u    2.368909     2B3g    2.397510  
      12Ag     2.397510     5B2g    2.406916     5B1g    2.406916  
       6B1u    2.529248     6B2u    2.529248     7B1u    2.680744  
       7B2u    2.680744    13Ag     2.816598    14Ag     2.874285  
      15Ag     2.899573     3B3g    2.899573    12B3u    2.904402  
       6B2g    2.909239     6B1g    2.909239     7B1g    2.920522  
       7B2g    2.920522    13B3u    2.993132     2Au     2.993133  
       8B1u    3.094783     8B2u    3.094783    14B3u    3.117003  
       3Au     3.117003    15B3u    3.530467    16Ag     3.580815  
       4B3g    3.580816     8B2g    3.805341     8B1g    3.805341  
       9B1u    3.959936     9B2u    3.959936    17Ag     4.103688  
      16B3u    4.145357     4Au     4.145358    17B3u    4.433764  
       9B2g    4.502913     9B1g    4.502913    18Ag     4.753438  
      10B2u    5.364544    10B1u    5.364544    18B3u    5.683719  
      10B2g    5.933005    10B1g    5.933005    19B3u    5.935397  
      19Ag     6.208172    20Ag     8.870093    20B3u   15.341690  

    Final Occupation by Irrep:
             Ag   B1g   B2g   B3g    Au   B1u   B2u   B3u 
    DOCC [     3,    0,    0,    0,    0,    1,    1,    2 ]

  @DF-RKS Final Energy:   -77.36128458181000

   => Energetics <=

    Nuclear Repulsion Energy =             24.3232181713792350
    One-Electron Energy =                -151.0906555111542957
    Two-Electron Energy =                  58.6862418740864697
    DFT Exchange-Correlation Energy =      -9.2800891161214096
    Empirical Dispersion Energy =           0.0000000000000000
    VV10 Nonlocal Energy =                  0.0000000000000000
    Total Energy =                        -77.3612845818099970

Computation Completed


Properties will be evaluated at   0.000000,   0.000000,   0.000000 [a0]

Properties computed using the SCF density matrix

  Nuclear Dipole Moment: [e a0]
     X:     0.0000      Y:     0.0000      Z:     0.0000

  Electronic Dipole Moment: [e a0]
     X:     0.0000      Y:     0.0000      Z:     0.0000

  Dipole Moment: [e a0]
     X:     0.0000      Y:     0.0000      Z:     0.0000     Total:     0.0000

  Dipole Moment: [D]
     X:     0.0000      Y:     0.0000      Z:     0.0000     Total:     0.0000


*** tstop() called on atlantis at Tue Apr 19 02:04:58 2022
Module time:
	user time   =       2.26 seconds =       0.04 minutes
	system time =       0.01 seconds =       0.00 minutes
	total time  =          2 seconds =       0.03 minutes
Total time:
	user time   =       4.18 seconds =       0.07 minutes
	system time =       0.05 seconds =       0.00 minutes
	total time  =          4 seconds =       0.07 minutes

*** tstart() called on atlantis
*** at Tue Apr 19 02:04:58 2022


         ------------------------------------------------------------
                                   SCF GRAD                          
                          Rob Parrish, Justin Turney,                
                       Andy Simmonett, and Alex Sokolov              
         ------------------------------------------------------------

  ==> Geometry <==

    Molecular point group: d2h
    Full point group: D_inf_h

    Geometry (in Angstrom), charge = 0, multiplicity = 1:

       Center              X                  Y                   Z               Mass       
    ------------   -----------------  -----------------  -----------------  -----------------
         C           -0.614460000000    -0.000000000000     0.000000000000    12.000000000000
         C            0.614460000000     0.000000000000     0.000000000000    12.000000000000
         H           -1.689230000000    -0.000000000000     0.000000000000     1.007825032230
         H            1.689230000000     0.000000000000     0.000000000000     1.007825032230

  Nuclear repulsion =   24.323218171379235

  ==> Basis Set <==

  Basis Set: CC-PVTZ
    Blend: CC-PVTZ
    Number of shells: 32
    Number of basis function: 88
    Number of Cartesian functions: 100
    Spherical Harmonics?: true
    Max angular momentum: 3

  ==> DFJKGrad: Density-Fitted SCF Gradients <==

    Gradient:                    1
    J tasked:                  Yes
    K tasked:                  Yes
    wK tasked:                  No
    OpenMP threads:              1
    Integrals threads:           1
    Memory [MiB]:              375
    Schwarz Cutoff:          0E+00
    Fitting Condition:       1E-10

   => Auxiliary Basis Set <=

  Basis Set: (CC-PVTZ AUX)
    Blend: CC-PVTZ-JKFIT
    Number of shells: 70
    Number of basis function: 218
    Number of Cartesian functions: 262
    Spherical Harmonics?: true
    Max angular momentum: 4

  ==> DFT Potential <==

   => Composite Functional: B3LYP <= 

    B3LYP Hyb-GGA Exchange-Correlation Functional

    P. J. Stephens, F. J. Devlin, C. F. Chabalowski, and M. J. Frisch, J. Phys. Chem. 98, 11623 (1994)

    Deriv               =              1
    GGA                 =           TRUE
    Meta                =          FALSE

    Exchange Hybrid     =           TRUE
    MP2 Hybrid          =          FALSE

   => Exchange Functionals <=

    0.0800   Slater exchange
    0.7200         Becke 88

   => Exact (HF) Exchange <=

    0.2000               HF 

   => Correlation Functionals <=

    0.1900   Vosko, Wilk & Nusair (VWN5_RPA)
    0.8100   Lee, Yang & Parr

   => Molecular Quadrature <=

    Radial Scheme          =       TREUTLER
    Pruning Scheme         =           FLAT
    Nuclear Scheme         =       TREUTLER

    BS radius alpha        =              1
    Pruning alpha          =              1
    Radial Points          =             75
    Spherical Points       =            302
    Total Points           =          88542
    Total Blocks           =            734
    Max Points             =            253
    Max Functions          =             88


  -Total Gradient:
     Atom            X                  Y                   Z
    ------   -----------------  -----------------  -----------------
       1       -0.053618436649    -0.000000000000     0.000000000000
       2        0.053618436649     0.000000000000     0.000000000000
       3       -0.009435961294    -0.000000000000    -0.000000000000
       4        0.009435961294     0.000000000000    -0.000000000000


*** tstop() called on atlantis at Tue Apr 19 02:04:59 2022
Module time:
	user time   =       0.71 seconds =       0.01 minutes
	system time =       0.00 seconds =       0.00 minutes
	total time  =          1 seconds =       0.02 minutes
Total time:
	user time   =       4.89 seconds =       0.08 minutes
	system time =       0.05 seconds =       0.00 minutes
	total time  =          5 seconds =       0.08 minutes

  Based on options and gradient (rms=2.22E-02), recommend projecting translations and not projecting rotations.
hessian() will perform frequency computation by finite difference of analytic gradients.

         ----------------------------------------------------------
                                   FINDIF
                     R. A. King and Jonathon Misiewicz
         ---------------------------------------------------------

  Using finite-differences of gradients to determine vibrational frequencies and 
  normal modes.  Resulting frequencies are only valid at stationary points.
    Generating geometries for use with 3-point formula.
    Displacement size will be 5.00e-03.
    Number of atoms is 4.
    Number of irreps is 8.
    Number of SALCs is 9.
    Translations projected? 1. Rotations projected? 0.
    Index of SALCs per irrep:
     1 :  0  1 
     2 :  2  3 
     3 :  4  5 
     4 : 
     5 : 
     6 :  6 
     7 :  7 
     8 :  8 
    Number of SALCs per irrep:
     Irrep 1: 2
     Irrep 2: 2
     Irrep 3: 2
     Irrep 4: 0
     Irrep 5: 0
     Irrep 6: 1
     Irrep 7: 1
     Irrep 8: 1
    Number of geometries (including reference) is 12.
    Number of displacements per irrep:
      Irrep 1: 4
      Irrep 2: 2
      Irrep 3: 2
      Irrep 4: 0
      Irrep 5: 0
      Irrep 6: 1
      Irrep 7: 1
      Irrep 8: 1

  //>>>>>>>>>>>>>>>>>>>>>>>>>>>>>>>>>>>//
  //    Loading displacement 1 of 12   //
  //<<<<<<<<<<<<<<<<<<<<<<<<<<<<<<<<<<<//
gradient() will perform analytic gradient computation.

*** tstart() called on atlantis
*** at Tue Apr 19 02:04:59 2022

   => Loading Basis Set <=

    Name: CC-PVTZ
    Role: ORBITAL
    Keyword: BASIS
    atoms 1-2 entry C          line   186 file /home/akrom/software/anaconda3/envs/ffpenv/share/psi4/basis/cc-pvtz.gbs 
    atoms 3-4 entry H          line    23 file /home/akrom/software/anaconda3/envs/ffpenv/share/psi4/basis/cc-pvtz.gbs 


         ---------------------------------------------------------
                                   SCF
               by Justin Turney, Rob Parrish, Andy Simmonett
                          and Daniel G. A. Smith
                              RKS Reference
                        1 Threads,    500 MiB Core
         ---------------------------------------------------------

  ==> Geometry <==

    Molecular point group: d2h
    Full point group: D_inf_h

    Geometry (in Angstrom), charge = 0, multiplicity = 1:

       Center              X                  Y                   Z               Mass       
    ------------   -----------------  -----------------  -----------------  -----------------
         C           -0.614460000000    -0.000000000000     0.000000000000    12.000000000000
         C            0.614460000000     0.000000000000     0.000000000000    12.000000000000
         H           -1.689230000000    -0.000000000000     0.000000000000     1.007825032230
         H            1.689230000000     0.000000000000     0.000000000000     1.007825032230

  Running in d2h symmetry.

  Rotational constants: A = ************  B =      1.13802  C =      1.13802 [cm^-1]
  Rotational constants: A = ************  B =  34116.98697  C =  34116.98697 [MHz]
  Nuclear repulsion =   24.323218171379235

  Charge       = 0
  Multiplicity = 1
  Electrons    = 14
  Nalpha       = 7
  Nbeta        = 7

  ==> Algorithm <==

  SCF Algorithm Type is DF.
  DIIS enabled.
  MOM disabled.
  Fractional occupation disabled.
  Guess Type is SAD.
  Energy threshold   = 1.00e-08
  Density threshold  = 1.00e-08
  Integral threshold = 0.00e+00

  ==> Primary Basis <==

  Basis Set: CC-PVTZ
    Blend: CC-PVTZ
    Number of shells: 32
    Number of basis function: 88
    Number of Cartesian functions: 100
    Spherical Harmonics?: true
    Max angular momentum: 3

  ==> DFT Potential <==

   => Composite Functional: B3LYP <= 

    B3LYP Hyb-GGA Exchange-Correlation Functional

    P. J. Stephens, F. J. Devlin, C. F. Chabalowski, and M. J. Frisch, J. Phys. Chem. 98, 11623 (1994)

    Deriv               =              1
    GGA                 =           TRUE
    Meta                =          FALSE

    Exchange Hybrid     =           TRUE
    MP2 Hybrid          =          FALSE

   => Exchange Functionals <=

    0.0800   Slater exchange
    0.7200         Becke 88

   => Exact (HF) Exchange <=

    0.2000               HF 

   => Correlation Functionals <=

    0.1900   Vosko, Wilk & Nusair (VWN5_RPA)
    0.8100   Lee, Yang & Parr

   => Molecular Quadrature <=

    Radial Scheme          =       TREUTLER
    Pruning Scheme         =           FLAT
    Nuclear Scheme         =       TREUTLER

    BS radius alpha        =              1
    Pruning alpha          =              1
    Radial Points          =             75
    Spherical Points       =            302
    Total Points           =          88542
    Total Blocks           =            734
    Max Points             =            253
    Max Functions          =             88

   => Loading Basis Set <=

    Name: (CC-PVTZ AUX)
    Role: JKFIT
    Keyword: DF_BASIS_SCF
    atoms 1-2 entry C          line   125 file /home/akrom/software/anaconda3/envs/ffpenv/share/psi4/basis/cc-pvtz-jkfit.gbs 
    atoms 3-4 entry H          line    51 file /home/akrom/software/anaconda3/envs/ffpenv/share/psi4/basis/cc-pvtz-jkfit.gbs 

  ==> Pre-Iterations <==

   -------------------------------------------------------
    Irrep   Nso     Nmo     Nalpha   Nbeta   Ndocc  Nsocc
   -------------------------------------------------------
     Ag        20      20       0       0       0       0
     B1g       10      10       0       0       0       0
     B2g       10      10       0       0       0       0
     B3g        4       4       0       0       0       0
     Au         4       4       0       0       0       0
     B1u       10      10       0       0       0       0
     B2u       10      10       0       0       0       0
     B3u       20      20       0       0       0       0
   -------------------------------------------------------
    Total      88      88       7       7       7       0
   -------------------------------------------------------

  ==> Integral Setup <==

  DFHelper Memory: AOs need 0.015 GiB; user supplied 0.162 GiB. Using in-core AOs.

  ==> MemDFJK: Density-Fitted J/K Matrices <==

    J tasked:                   Yes
    K tasked:                   Yes
    wK tasked:                   No
    OpenMP threads:               1
    Memory [MiB]:               166
    Algorithm:                 Core
    Schwarz Cutoff:           1E-12
    Mask sparsity (%):       0.1033
    Fitting Condition:        1E-10

   => Auxiliary Basis Set <=

  Basis Set: (CC-PVTZ AUX)
    Blend: CC-PVTZ-JKFIT
    Number of shells: 70
    Number of basis function: 218
    Number of Cartesian functions: 262
    Spherical Harmonics?: true
    Max angular momentum: 4

  Cached 100.0% of DFT collocation blocks in 0.204 [GiB].

  Minimum eigenvalue in the overlap matrix is 1.4146724323E-04.
  Using Symmetric Orthogonalization.

  SCF Guess: Superposition of Atomic Densities via on-the-fly atomic UHF.

  ==> Iterations <==

                           Total Energy        Delta E     RMS |[F,P]|

   @DF-RKS iter SAD:   -76.71358070582124   -7.67136e+01   0.00000e+00 
   @DF-RKS iter   1:   -77.16970046769985   -4.56120e-01   1.73390e-02 DIIS
   @DF-RKS iter   2:   -77.14760002022466    2.21004e-02   1.76625e-02 DIIS
   @DF-RKS iter   3:   -77.36089950403347   -2.13299e-01   7.18111e-04 DIIS
   @DF-RKS iter   4:   -77.36128146980512   -3.81966e-04   6.66570e-05 DIIS
   @DF-RKS iter   5:   -77.36128454702870   -3.07722e-06   7.85497e-06 DIIS
   @DF-RKS iter   6:   -77.36128458133702   -3.43083e-08   8.63869e-07 DIIS
   @DF-RKS iter   7:   -77.36128458180725   -4.70237e-10   7.16691e-08 DIIS
   @DF-RKS iter   8:   -77.36128458181000   -2.74269e-12   3.46973e-09 DIIS
  Energy and wave function converged.


  ==> Post-Iterations <==

    Orbital Energies [Eh]
    ---------------------

    Doubly Occupied:                                                      

       1Ag   -10.193118     1B3u  -10.191094     2Ag    -0.751493  
       2B3u   -0.572799     3Ag    -0.499900     1B1u   -0.294426  
       1B2u   -0.294426  

    Virtual:                                                              

       1B2g    0.017939     1B1g    0.017939     3B3u    0.052326  
       4Ag     0.075570     5Ag     0.181089     4B3u    0.237437  
       2B1u    0.289406     2B2u    0.289406     2B2g    0.389927  
       2B1g    0.389927     5B3u    0.396646     6Ag     0.442075  
       7Ag     0.594649     1B3g    0.594649     3B2u    0.611376  
       3B1u    0.611376     8Ag     0.612459     6B3u    0.763327  
       7B3u    0.850151     3B2g    0.872836     3B1g    0.872836  
       8B3u    0.887813     1Au     0.887813     9Ag     1.009471  
       4B1u    1.223309     4B2u    1.223309     9B3u    1.357319  
      10Ag     1.420139     4B2g    1.437207     4B1g    1.437207  
      10B3u    1.719978     5B1u    1.975904     5B2u    1.975904  
      11Ag     2.179478    11B3u    2.368909     2B3g    2.397510  
      12Ag     2.397510     5B2g    2.406916     5B1g    2.406916  
       6B1u    2.529248     6B2u    2.529248     7B1u    2.680744  
       7B2u    2.680744    13Ag     2.816598    14Ag     2.874285  
      15Ag     2.899573     3B3g    2.899573    12B3u    2.904402  
       6B2g    2.909239     6B1g    2.909239     7B1g    2.920522  
       7B2g    2.920522    13B3u    2.993132     2Au     2.993133  
       8B1u    3.094783     8B2u    3.094783    14B3u    3.117003  
       3Au     3.117003    15B3u    3.530467    16Ag     3.580815  
       4B3g    3.580816     8B2g    3.805341     8B1g    3.805341  
       9B1u    3.959936     9B2u    3.959936    17Ag     4.103688  
      16B3u    4.145357     4Au     4.145358    17B3u    4.433764  
       9B2g    4.502913     9B1g    4.502913    18Ag     4.753438  
      10B2u    5.364544    10B1u    5.364544    18B3u    5.683719  
      10B2g    5.933005    10B1g    5.933005    19B3u    5.935397  
      19Ag     6.208172    20Ag     8.870093    20B3u   15.341690  

    Final Occupation by Irrep:
             Ag   B1g   B2g   B3g    Au   B1u   B2u   B3u 
    DOCC [     3,    0,    0,    0,    0,    1,    1,    2 ]

  @DF-RKS Final Energy:   -77.36128458181000

   => Energetics <=

    Nuclear Repulsion Energy =             24.3232181713792350
    One-Electron Energy =                -151.0906555111542957
    Two-Electron Energy =                  58.6862418740864697
    DFT Exchange-Correlation Energy =      -9.2800891161214096
    Empirical Dispersion Energy =           0.0000000000000000
    VV10 Nonlocal Energy =                  0.0000000000000000
    Total Energy =                        -77.3612845818099970

Computation Completed


Properties will be evaluated at   0.000000,   0.000000,   0.000000 [a0]

Properties computed using the SCF density matrix

  Nuclear Dipole Moment: [e a0]
     X:     0.0000      Y:     0.0000      Z:     0.0000

  Electronic Dipole Moment: [e a0]
     X:     0.0000      Y:     0.0000      Z:     0.0000

  Dipole Moment: [e a0]
     X:     0.0000      Y:     0.0000      Z:     0.0000     Total:     0.0000

  Dipole Moment: [D]
     X:     0.0000      Y:     0.0000      Z:     0.0000     Total:     0.0000


*** tstop() called on atlantis at Tue Apr 19 02:05:01 2022
Module time:
	user time   =       2.27 seconds =       0.04 minutes
	system time =       0.00 seconds =       0.00 minutes
	total time  =          2 seconds =       0.03 minutes
Total time:
	user time   =       7.44 seconds =       0.12 minutes
	system time =       0.06 seconds =       0.00 minutes
	total time  =          7 seconds =       0.12 minutes

*** tstart() called on atlantis
*** at Tue Apr 19 02:05:01 2022


         ------------------------------------------------------------
                                   SCF GRAD                          
                          Rob Parrish, Justin Turney,                
                       Andy Simmonett, and Alex Sokolov              
         ------------------------------------------------------------

  ==> Geometry <==

    Molecular point group: d2h
    Full point group: D_inf_h

    Geometry (in Angstrom), charge = 0, multiplicity = 1:

       Center              X                  Y                   Z               Mass       
    ------------   -----------------  -----------------  -----------------  -----------------
         C           -0.614460000000    -0.000000000000     0.000000000000    12.000000000000
         C            0.614460000000     0.000000000000     0.000000000000    12.000000000000
         H           -1.689230000000    -0.000000000000     0.000000000000     1.007825032230
         H            1.689230000000     0.000000000000     0.000000000000     1.007825032230

  Nuclear repulsion =   24.323218171379235

  ==> Basis Set <==

  Basis Set: CC-PVTZ
    Blend: CC-PVTZ
    Number of shells: 32
    Number of basis function: 88
    Number of Cartesian functions: 100
    Spherical Harmonics?: true
    Max angular momentum: 3

  ==> DFJKGrad: Density-Fitted SCF Gradients <==

    Gradient:                    1
    J tasked:                  Yes
    K tasked:                  Yes
    wK tasked:                  No
    OpenMP threads:              1
    Integrals threads:           1
    Memory [MiB]:              375
    Schwarz Cutoff:          0E+00
    Fitting Condition:       1E-10

   => Auxiliary Basis Set <=

  Basis Set: (CC-PVTZ AUX)
    Blend: CC-PVTZ-JKFIT
    Number of shells: 70
    Number of basis function: 218
    Number of Cartesian functions: 262
    Spherical Harmonics?: true
    Max angular momentum: 4

  ==> DFT Potential <==

   => Composite Functional: B3LYP <= 

    B3LYP Hyb-GGA Exchange-Correlation Functional

    P. J. Stephens, F. J. Devlin, C. F. Chabalowski, and M. J. Frisch, J. Phys. Chem. 98, 11623 (1994)

    Deriv               =              1
    GGA                 =           TRUE
    Meta                =          FALSE

    Exchange Hybrid     =           TRUE
    MP2 Hybrid          =          FALSE

   => Exchange Functionals <=

    0.0800   Slater exchange
    0.7200         Becke 88

   => Exact (HF) Exchange <=

    0.2000               HF 

   => Correlation Functionals <=

    0.1900   Vosko, Wilk & Nusair (VWN5_RPA)
    0.8100   Lee, Yang & Parr

   => Molecular Quadrature <=

    Radial Scheme          =       TREUTLER
    Pruning Scheme         =           FLAT
    Nuclear Scheme         =       TREUTLER

    BS radius alpha        =              1
    Pruning alpha          =              1
    Radial Points          =             75
    Spherical Points       =            302
    Total Points           =          88542
    Total Blocks           =            734
    Max Points             =            253
    Max Functions          =             88


  -Total Gradient:
     Atom            X                  Y                   Z
    ------   -----------------  -----------------  -----------------
       1       -0.053618436649    -0.000000000000     0.000000000000
       2        0.053618436649     0.000000000000     0.000000000000
       3       -0.009435961294    -0.000000000000    -0.000000000000
       4        0.009435961294     0.000000000000    -0.000000000000


*** tstop() called on atlantis at Tue Apr 19 02:05:02 2022
Module time:
	user time   =       0.71 seconds =       0.01 minutes
	system time =       0.00 seconds =       0.00 minutes
	total time  =          1 seconds =       0.02 minutes
Total time:
	user time   =       8.15 seconds =       0.14 minutes
	system time =       0.06 seconds =       0.00 minutes
	total time  =          8 seconds =       0.13 minutes

  //>>>>>>>>>>>>>>>>>>>>>>>>>>>>>>>>>>>//
  //    Loading displacement 2 of 12   //
  //<<<<<<<<<<<<<<<<<<<<<<<<<<<<<<<<<<<//
gradient() will perform analytic gradient computation.

*** tstart() called on atlantis
*** at Tue Apr 19 02:05:02 2022

   => Loading Basis Set <=

    Name: CC-PVTZ
    Role: ORBITAL
    Keyword: BASIS
    atoms 1-2 entry C          line   186 file /home/akrom/software/anaconda3/envs/ffpenv/share/psi4/basis/cc-pvtz.gbs 
    atoms 3-4 entry H          line    23 file /home/akrom/software/anaconda3/envs/ffpenv/share/psi4/basis/cc-pvtz.gbs 


         ---------------------------------------------------------
                                   SCF
               by Justin Turney, Rob Parrish, Andy Simmonett
                          and Daniel G. A. Smith
                              RKS Reference
                        1 Threads,    500 MiB Core
         ---------------------------------------------------------

  ==> Geometry <==

    Molecular point group: d2h
    Full point group: D_inf_h

    Geometry (in Angstrom), charge = 0, multiplicity = 1:

       Center              X                  Y                   Z               Mass       
    ------------   -----------------  -----------------  -----------------  -----------------
         C           -0.615000089229    -0.000000000000     0.000000000000    12.000000000000
         C            0.615000089229     0.000000000000     0.000000000000    12.000000000000
         H           -1.689230000000    -0.000000000000     0.000000000000     1.007825032230
         H            1.689230000000     0.000000000000     0.000000000000     1.007825032230

  Running in d2h symmetry.

  Rotational constants: A = ************  B =      1.13680  C =      1.13680 [cm^-1]
  Rotational constants: A = ************  B =  34080.32226  C =  34080.32226 [MHz]
  Nuclear repulsion =   24.311929094340595

  Charge       = 0
  Multiplicity = 1
  Electrons    = 14
  Nalpha       = 7
  Nbeta        = 7

  ==> Algorithm <==

  SCF Algorithm Type is DF.
  DIIS enabled.
  MOM disabled.
  Fractional occupation disabled.
  Guess Type is SAD.
  Energy threshold   = 1.00e-08
  Density threshold  = 1.00e-08
  Integral threshold = 0.00e+00

  ==> Primary Basis <==

  Basis Set: CC-PVTZ
    Blend: CC-PVTZ
    Number of shells: 32
    Number of basis function: 88
    Number of Cartesian functions: 100
    Spherical Harmonics?: true
    Max angular momentum: 3

  ==> DFT Potential <==

   => Composite Functional: B3LYP <= 

    B3LYP Hyb-GGA Exchange-Correlation Functional

    P. J. Stephens, F. J. Devlin, C. F. Chabalowski, and M. J. Frisch, J. Phys. Chem. 98, 11623 (1994)

    Deriv               =              1
    GGA                 =           TRUE
    Meta                =          FALSE

    Exchange Hybrid     =           TRUE
    MP2 Hybrid          =          FALSE

   => Exchange Functionals <=

    0.0800   Slater exchange
    0.7200         Becke 88

   => Exact (HF) Exchange <=

    0.2000               HF 

   => Correlation Functionals <=

    0.1900   Vosko, Wilk & Nusair (VWN5_RPA)
    0.8100   Lee, Yang & Parr

   => Molecular Quadrature <=

    Radial Scheme          =       TREUTLER
    Pruning Scheme         =           FLAT
    Nuclear Scheme         =       TREUTLER

    BS radius alpha        =              1
    Pruning alpha          =              1
    Radial Points          =             75
    Spherical Points       =            302
    Total Points           =          88542
    Total Blocks           =            732
    Max Points             =            253
    Max Functions          =             88

   => Loading Basis Set <=

    Name: (CC-PVTZ AUX)
    Role: JKFIT
    Keyword: DF_BASIS_SCF
    atoms 1-2 entry C          line   125 file /home/akrom/software/anaconda3/envs/ffpenv/share/psi4/basis/cc-pvtz-jkfit.gbs 
    atoms 3-4 entry H          line    51 file /home/akrom/software/anaconda3/envs/ffpenv/share/psi4/basis/cc-pvtz-jkfit.gbs 

  ==> Pre-Iterations <==

   -------------------------------------------------------
    Irrep   Nso     Nmo     Nalpha   Nbeta   Ndocc  Nsocc
   -------------------------------------------------------
     Ag        20      20       0       0       0       0
     B1g       10      10       0       0       0       0
     B2g       10      10       0       0       0       0
     B3g        4       4       0       0       0       0
     Au         4       4       0       0       0       0
     B1u       10      10       0       0       0       0
     B2u       10      10       0       0       0       0
     B3u       20      20       0       0       0       0
   -------------------------------------------------------
    Total      88      88       7       7       7       0
   -------------------------------------------------------

  ==> Integral Setup <==

  DFHelper Memory: AOs need 0.015 GiB; user supplied 0.162 GiB. Using in-core AOs.

  ==> MemDFJK: Density-Fitted J/K Matrices <==

    J tasked:                   Yes
    K tasked:                   Yes
    wK tasked:                   No
    OpenMP threads:               1
    Memory [MiB]:               166
    Algorithm:                 Core
    Schwarz Cutoff:           1E-12
    Mask sparsity (%):       0.1033
    Fitting Condition:        1E-10

   => Auxiliary Basis Set <=

  Basis Set: (CC-PVTZ AUX)
    Blend: CC-PVTZ-JKFIT
    Number of shells: 70
    Number of basis function: 218
    Number of Cartesian functions: 262
    Spherical Harmonics?: true
    Max angular momentum: 4

  Cached 100.0% of DFT collocation blocks in 0.204 [GiB].

  Minimum eigenvalue in the overlap matrix is 1.4205928343E-04.
  Using Symmetric Orthogonalization.

  SCF Guess: Superposition of Atomic Densities via on-the-fly atomic UHF.

  ==> Iterations <==

                           Total Energy        Delta E     RMS |[F,P]|

   @DF-RKS iter SAD:   -76.71284172154748   -7.67128e+01   0.00000e+00 
   @DF-RKS iter   1:   -77.17020830230840   -4.57367e-01   1.73060e-02 DIIS
   @DF-RKS iter   2:   -77.14855940603668    2.16489e-02   1.76170e-02 DIIS
   @DF-RKS iter   3:   -77.36079104045120   -2.12232e-01   7.15056e-04 DIIS
   @DF-RKS iter   4:   -77.36116966261851   -3.78622e-04   6.67648e-05 DIIS
   @DF-RKS iter   5:   -77.36117274253101   -3.07991e-06   7.86562e-06 DIIS
   @DF-RKS iter   6:   -77.36117277696746   -3.44365e-08   8.55854e-07 DIIS
   @DF-RKS iter   7:   -77.36117277742964   -4.62180e-10   7.12555e-08 DIIS
   @DF-RKS iter   8:   -77.36117277743226   -2.61480e-12   3.42798e-09 DIIS
  Energy and wave function converged.


  ==> Post-Iterations <==

    Orbital Energies [Eh]
    ---------------------

    Doubly Occupied:                                                      

       1Ag   -10.193372     1B3u  -10.191365     2Ag    -0.751321  
       2B3u   -0.573090     3Ag    -0.500018     1B1u   -0.294287  
       1B2u   -0.294287  

    Virtual:                                                              

       1B2g    0.017626     1B1g    0.017626     3B3u    0.052342  
       4Ag     0.075605     5Ag     0.181145     4B3u    0.237184  
       2B2u    0.289479     2B1u    0.289479     2B1g    0.389794  
       2B2g    0.389794     5B3u    0.396748     6Ag     0.442182  
       7Ag     0.594628     1B3g    0.594628     3B2u    0.611247  
       3B1u    0.611247     8Ag     0.612430     6B3u    0.762349  
       7B3u    0.850008     3B1g    0.872784     3B2g    0.872784  
       8B3u    0.887563     1Au     0.887563     9Ag     1.009689  
       4B1u    1.223019     4B2u    1.223019     9B3u    1.357224  
      10Ag     1.420844     4B2g    1.437583     4B1g    1.437583  
      10B3u    1.719016     5B1u    1.976149     5B2u    1.976149  
      11Ag     2.179274    11B3u    2.367908     2B3g    2.397206  
      12Ag     2.397206     5B2g    2.405821     5B1g    2.405821  
       6B2u    2.529490     6B1u    2.529490     7B1u    2.680276  
       7B2u    2.680276    13Ag     2.816214    14Ag     2.874161  
      15Ag     2.899551     3B3g    2.899551    12B3u    2.905059  
       6B2g    2.909650     6B1g    2.909650     7B1g    2.919926  
       7B2g    2.919926    13B3u    2.992974     2Au     2.992975  
       8B2u    3.094153     8B1u    3.094153    14B3u    3.116525  
       3Au     3.116526    15B3u    3.530504    16Ag     3.581017  
       4B3g    3.581018     8B2g    3.805021     8B1g    3.805021  
       9B1u    3.959969     9B2u    3.959969    17Ag     4.102682  
      16B3u    4.144855     4Au     4.144856    17B3u    4.434500  
       9B2g    4.502840     9B1g    4.502840    18Ag     4.755571  
      10B1u    5.364639    10B2u    5.364639    18B3u    5.684756  
      10B2g    5.933667    10B1g    5.933667    19B3u    5.934781  
      19Ag     6.205337    20Ag     8.878034    20B3u   15.317284  

    Final Occupation by Irrep:
             Ag   B1g   B2g   B3g    Au   B1u   B2u   B3u 
    DOCC [     3,    0,    0,    0,    0,    1,    1,    2 ]

  @DF-RKS Final Energy:   -77.36117277743226

   => Energetics <=

    Nuclear Repulsion Energy =             24.3119290943405950
    One-Electron Energy =                -151.0672229886758942
    Two-Electron Energy =                  58.6737165199619426
    DFT Exchange-Correlation Energy =      -9.2795954030589094
    Empirical Dispersion Energy =           0.0000000000000000
    VV10 Nonlocal Energy =                  0.0000000000000000
    Total Energy =                        -77.3611727774322588

Computation Completed


Properties will be evaluated at   0.000000,   0.000000,   0.000000 [a0]

Properties computed using the SCF density matrix

  Nuclear Dipole Moment: [e a0]
     X:     0.0000      Y:     0.0000      Z:     0.0000

  Electronic Dipole Moment: [e a0]
     X:     0.0000      Y:     0.0000      Z:     0.0000

  Dipole Moment: [e a0]
     X:     0.0000      Y:     0.0000      Z:     0.0000     Total:     0.0000

  Dipole Moment: [D]
     X:     0.0000      Y:     0.0000      Z:     0.0000     Total:     0.0000


*** tstop() called on atlantis at Tue Apr 19 02:05:04 2022
Module time:
	user time   =       2.25 seconds =       0.04 minutes
	system time =       0.02 seconds =       0.00 minutes
	total time  =          2 seconds =       0.03 minutes
Total time:
	user time   =      10.41 seconds =       0.17 minutes
	system time =       0.08 seconds =       0.00 minutes
	total time  =         10 seconds =       0.17 minutes

*** tstart() called on atlantis
*** at Tue Apr 19 02:05:04 2022


         ------------------------------------------------------------
                                   SCF GRAD                          
                          Rob Parrish, Justin Turney,                
                       Andy Simmonett, and Alex Sokolov              
         ------------------------------------------------------------

  ==> Geometry <==

    Molecular point group: d2h
    Full point group: D_inf_h

    Geometry (in Angstrom), charge = 0, multiplicity = 1:

       Center              X                  Y                   Z               Mass       
    ------------   -----------------  -----------------  -----------------  -----------------
         C           -0.615000089229    -0.000000000000     0.000000000000    12.000000000000
         C            0.615000089229     0.000000000000     0.000000000000    12.000000000000
         H           -1.689230000000    -0.000000000000     0.000000000000     1.007825032230
         H            1.689230000000     0.000000000000     0.000000000000     1.007825032230

  Nuclear repulsion =   24.311929094340595

  ==> Basis Set <==

  Basis Set: CC-PVTZ
    Blend: CC-PVTZ
    Number of shells: 32
    Number of basis function: 88
    Number of Cartesian functions: 100
    Spherical Harmonics?: true
    Max angular momentum: 3

  ==> DFJKGrad: Density-Fitted SCF Gradients <==

    Gradient:                    1
    J tasked:                  Yes
    K tasked:                  Yes
    wK tasked:                  No
    OpenMP threads:              1
    Integrals threads:           1
    Memory [MiB]:              375
    Schwarz Cutoff:          0E+00
    Fitting Condition:       1E-10

   => Auxiliary Basis Set <=

  Basis Set: (CC-PVTZ AUX)
    Blend: CC-PVTZ-JKFIT
    Number of shells: 70
    Number of basis function: 218
    Number of Cartesian functions: 262
    Spherical Harmonics?: true
    Max angular momentum: 4

  ==> DFT Potential <==

   => Composite Functional: B3LYP <= 

    B3LYP Hyb-GGA Exchange-Correlation Functional

    P. J. Stephens, F. J. Devlin, C. F. Chabalowski, and M. J. Frisch, J. Phys. Chem. 98, 11623 (1994)

    Deriv               =              1
    GGA                 =           TRUE
    Meta                =          FALSE

    Exchange Hybrid     =           TRUE
    MP2 Hybrid          =          FALSE

   => Exchange Functionals <=

    0.0800   Slater exchange
    0.7200         Becke 88

   => Exact (HF) Exchange <=

    0.2000               HF 

   => Correlation Functionals <=

    0.1900   Vosko, Wilk & Nusair (VWN5_RPA)
    0.8100   Lee, Yang & Parr

   => Molecular Quadrature <=

    Radial Scheme          =       TREUTLER
    Pruning Scheme         =           FLAT
    Nuclear Scheme         =       TREUTLER

    BS radius alpha        =              1
    Pruning alpha          =              1
    Radial Points          =             75
    Spherical Points       =            302
    Total Points           =          88542
    Total Blocks           =            732
    Max Points             =            253
    Max Functions          =             88


  -Total Gradient:
     Atom            X                  Y                   Z
    ------   -----------------  -----------------  -----------------
       1       -0.055921786591    -0.000000000000     0.000000000000
       2        0.055921786591     0.000000000000     0.000000000000
       3       -0.009031496851    -0.000000000000     0.000000000000
       4        0.009031496851     0.000000000000     0.000000000000


*** tstop() called on atlantis at Tue Apr 19 02:05:05 2022
Module time:
	user time   =       0.71 seconds =       0.01 minutes
	system time =       0.00 seconds =       0.00 minutes
	total time  =          1 seconds =       0.02 minutes
Total time:
	user time   =      11.12 seconds =       0.19 minutes
	system time =       0.08 seconds =       0.00 minutes
	total time  =         11 seconds =       0.18 minutes

  //>>>>>>>>>>>>>>>>>>>>>>>>>>>>>>>>>>>//
  //    Loading displacement 3 of 12   //
  //<<<<<<<<<<<<<<<<<<<<<<<<<<<<<<<<<<<//
gradient() will perform analytic gradient computation.

*** tstart() called on atlantis
*** at Tue Apr 19 02:05:05 2022

   => Loading Basis Set <=

    Name: CC-PVTZ
    Role: ORBITAL
    Keyword: BASIS
    atoms 1-2 entry C          line   186 file /home/akrom/software/anaconda3/envs/ffpenv/share/psi4/basis/cc-pvtz.gbs 
    atoms 3-4 entry H          line    23 file /home/akrom/software/anaconda3/envs/ffpenv/share/psi4/basis/cc-pvtz.gbs 


         ---------------------------------------------------------
                                   SCF
               by Justin Turney, Rob Parrish, Andy Simmonett
                          and Daniel G. A. Smith
                              RKS Reference
                        1 Threads,    500 MiB Core
         ---------------------------------------------------------

  ==> Geometry <==

    Molecular point group: d2h
    Full point group: D_inf_h

    Geometry (in Angstrom), charge = 0, multiplicity = 1:

       Center              X                  Y                   Z               Mass       
    ------------   -----------------  -----------------  -----------------  -----------------
         C           -0.613919910771    -0.000000000000     0.000000000000    12.000000000000
         C            0.613919910771     0.000000000000     0.000000000000    12.000000000000
         H           -1.689230000000    -0.000000000000     0.000000000000     1.007825032230
         H            1.689230000000     0.000000000000     0.000000000000     1.007825032230

  Running in d2h symmetry.

  Rotational constants: A = ************  B =      1.13924  C =      1.13924 [cm^-1]
  Rotational constants: A = ************  B =  34153.69835  C =  34153.69835 [MHz]
  Nuclear repulsion =   24.334534488106961

  Charge       = 0
  Multiplicity = 1
  Electrons    = 14
  Nalpha       = 7
  Nbeta        = 7

  ==> Algorithm <==

  SCF Algorithm Type is DF.
  DIIS enabled.
  MOM disabled.
  Fractional occupation disabled.
  Guess Type is SAD.
  Energy threshold   = 1.00e-08
  Density threshold  = 1.00e-08
  Integral threshold = 0.00e+00

  ==> Primary Basis <==

  Basis Set: CC-PVTZ
    Blend: CC-PVTZ
    Number of shells: 32
    Number of basis function: 88
    Number of Cartesian functions: 100
    Spherical Harmonics?: true
    Max angular momentum: 3

  ==> DFT Potential <==

   => Composite Functional: B3LYP <= 

    B3LYP Hyb-GGA Exchange-Correlation Functional

    P. J. Stephens, F. J. Devlin, C. F. Chabalowski, and M. J. Frisch, J. Phys. Chem. 98, 11623 (1994)

    Deriv               =              1
    GGA                 =           TRUE
    Meta                =          FALSE

    Exchange Hybrid     =           TRUE
    MP2 Hybrid          =          FALSE

   => Exchange Functionals <=

    0.0800   Slater exchange
    0.7200         Becke 88

   => Exact (HF) Exchange <=

    0.2000               HF 

   => Correlation Functionals <=

    0.1900   Vosko, Wilk & Nusair (VWN5_RPA)
    0.8100   Lee, Yang & Parr

   => Molecular Quadrature <=

    Radial Scheme          =       TREUTLER
    Pruning Scheme         =           FLAT
    Nuclear Scheme         =       TREUTLER

    BS radius alpha        =              1
    Pruning alpha          =              1
    Radial Points          =             75
    Spherical Points       =            302
    Total Points           =          88542
    Total Blocks           =            734
    Max Points             =            254
    Max Functions          =             88

   => Loading Basis Set <=

    Name: (CC-PVTZ AUX)
    Role: JKFIT
    Keyword: DF_BASIS_SCF
    atoms 1-2 entry C          line   125 file /home/akrom/software/anaconda3/envs/ffpenv/share/psi4/basis/cc-pvtz-jkfit.gbs 
    atoms 3-4 entry H          line    51 file /home/akrom/software/anaconda3/envs/ffpenv/share/psi4/basis/cc-pvtz-jkfit.gbs 

  ==> Pre-Iterations <==

   -------------------------------------------------------
    Irrep   Nso     Nmo     Nalpha   Nbeta   Ndocc  Nsocc
   -------------------------------------------------------
     Ag        20      20       0       0       0       0
     B1g       10      10       0       0       0       0
     B2g       10      10       0       0       0       0
     B3g        4       4       0       0       0       0
     Au         4       4       0       0       0       0
     B1u       10      10       0       0       0       0
     B2u       10      10       0       0       0       0
     B3u       20      20       0       0       0       0
   -------------------------------------------------------
    Total      88      88       7       7       7       0
   -------------------------------------------------------

  ==> Integral Setup <==

  DFHelper Memory: AOs need 0.015 GiB; user supplied 0.162 GiB. Using in-core AOs.

  ==> MemDFJK: Density-Fitted J/K Matrices <==

    J tasked:                   Yes
    K tasked:                   Yes
    wK tasked:                   No
    OpenMP threads:               1
    Memory [MiB]:               166
    Algorithm:                 Core
    Schwarz Cutoff:           1E-12
    Mask sparsity (%):       0.1033
    Fitting Condition:        1E-10

   => Auxiliary Basis Set <=

  Basis Set: (CC-PVTZ AUX)
    Blend: CC-PVTZ-JKFIT
    Number of shells: 70
    Number of basis function: 218
    Number of Cartesian functions: 262
    Spherical Harmonics?: true
    Max angular momentum: 4

  Cached 100.0% of DFT collocation blocks in 0.204 [GiB].

  Minimum eigenvalue in the overlap matrix is 1.4087789024E-04.
  Using Symmetric Orthogonalization.

  SCF Guess: Superposition of Atomic Densities via on-the-fly atomic UHF.

  ==> Iterations <==

                           Total Energy        Delta E     RMS |[F,P]|

   @DF-RKS iter SAD:   -76.71431774348653   -7.67143e+01   0.00000e+00 
   @DF-RKS iter   1:   -77.16918511644816   -4.54867e-01   1.73721e-02 DIIS
   @DF-RKS iter   2:   -77.14662956912575    2.25555e-02   1.77082e-02 DIIS
   @DF-RKS iter   3:   -77.36100321420068   -2.14374e-01   7.21191e-04 DIIS
   @DF-RKS iter   4:   -77.36138856423993   -3.85350e-04   6.65517e-05 DIIS
   @DF-RKS iter   5:   -77.36139163901441   -3.07477e-06   7.84350e-06 DIIS
   @DF-RKS iter   6:   -77.36139167318808   -3.41737e-08   8.71968e-07 DIIS
   @DF-RKS iter   7:   -77.36139167366640   -4.78323e-10   7.20855e-08 DIIS
   @DF-RKS iter   8:   -77.36139167366913   -2.72848e-12   3.51201e-09 DIIS
  Energy and wave function converged.


  ==> Post-Iterations <==

    Orbital Energies [Eh]
    ---------------------

    Doubly Occupied:                                                      

       1Ag   -10.192864     1B3u  -10.190823     2Ag    -0.751665  
       2B3u   -0.572508     3Ag    -0.499782     1B1u   -0.294565  
       1B2u   -0.294565  

    Virtual:                                                              

       1B2g    0.018252     1B1g    0.018252     3B3u    0.052310  
       4Ag     0.075534     5Ag     0.181034     4B3u    0.237689  
       2B1u    0.289334     2B2u    0.289334     2B2g    0.390060  
       2B1g    0.390060     5B3u    0.396543     6Ag     0.441969  
       7Ag     0.594670     1B3g    0.594670     3B1u    0.611506  
       3B2u    0.611506     8Ag     0.612489     6B3u    0.764303  
       7B3u    0.850299     3B2g    0.872888     3B1g    0.872888  
       8B3u    0.888063     1Au     0.888063     9Ag     1.009255  
       4B1u    1.223600     4B2u    1.223600     9B3u    1.357415  
      10Ag     1.419436     4B2g    1.436831     4B1g    1.436831  
      10B3u    1.720949     5B1u    1.975659     5B2u    1.975659  
      11Ag     2.179683    11B3u    2.369911     2B3g    2.397816  
      12Ag     2.397816     5B1g    2.408011     5B2g    2.408011  
       6B2u    2.529006     6B1u    2.529006     7B1u    2.681213  
       7B2u    2.681213    13Ag     2.816975    14Ag     2.874414  
      15Ag     2.899595     3B3g    2.899595    12B3u    2.903748  
       6B2g    2.908826     6B1g    2.908826     7B1g    2.921119  
       7B2g    2.921119    13B3u    2.993289     2Au     2.993290  
       8B1u    3.095414     8B2u    3.095414    14B3u    3.117480  
       3Au     3.117481    15B3u    3.530429    16Ag     3.580614  
       4B3g    3.580615     8B1g    3.805659     8B2g    3.805659  
       9B1u    3.959904     9B2u    3.959904    17Ag     4.104693  
      16B3u    4.145862     4Au     4.145862    17B3u    4.433037  
       9B2g    4.502984     9B1g    4.502984    18Ag     4.751307  
      10B1u    5.364449    10B2u    5.364449    18B3u    5.682696  
      10B1g    5.932344    10B2g    5.932344    19B3u    5.936031  
      19Ag     6.211024    20Ag     8.862168    20B3u   15.366100  

    Final Occupation by Irrep:
             Ag   B1g   B2g   B3g    Au   B1u   B2u   B3u 
    DOCC [     3,    0,    0,    0,    0,    1,    1,    2 ]

  @DF-RKS Final Energy:   -77.36139167366913

   => Energetics <=

    Nuclear Repulsion Energy =             24.3345344881069607
    One-Electron Energy =                -151.1141319328240229
    Two-Electron Energy =                  58.6987905340549716
    DFT Exchange-Correlation Energy =      -9.2805847630070382
    Empirical Dispersion Energy =           0.0000000000000000
    VV10 Nonlocal Energy =                  0.0000000000000000
    Total Energy =                        -77.3613916736691323

Computation Completed


Properties will be evaluated at   0.000000,   0.000000,   0.000000 [a0]

Properties computed using the SCF density matrix

  Nuclear Dipole Moment: [e a0]
     X:     0.0000      Y:     0.0000      Z:     0.0000

  Electronic Dipole Moment: [e a0]
     X:     0.0000      Y:     0.0000      Z:     0.0000

  Dipole Moment: [e a0]
     X:     0.0000      Y:     0.0000      Z:     0.0000     Total:     0.0000

  Dipole Moment: [D]
     X:     0.0000      Y:     0.0000      Z:     0.0000     Total:     0.0000


*** tstop() called on atlantis at Tue Apr 19 02:05:07 2022
Module time:
	user time   =       2.23 seconds =       0.04 minutes
	system time =       0.03 seconds =       0.00 minutes
	total time  =          2 seconds =       0.03 minutes
Total time:
	user time   =      13.35 seconds =       0.22 minutes
	system time =       0.11 seconds =       0.00 minutes
	total time  =         13 seconds =       0.22 minutes

*** tstart() called on atlantis
*** at Tue Apr 19 02:05:07 2022


         ------------------------------------------------------------
                                   SCF GRAD                          
                          Rob Parrish, Justin Turney,                
                       Andy Simmonett, and Alex Sokolov              
         ------------------------------------------------------------

  ==> Geometry <==

    Molecular point group: d2h
    Full point group: D_inf_h

    Geometry (in Angstrom), charge = 0, multiplicity = 1:

       Center              X                  Y                   Z               Mass       
    ------------   -----------------  -----------------  -----------------  -----------------
         C           -0.613919910771    -0.000000000000     0.000000000000    12.000000000000
         C            0.613919910771     0.000000000000     0.000000000000    12.000000000000
         H           -1.689230000000    -0.000000000000     0.000000000000     1.007825032230
         H            1.689230000000     0.000000000000     0.000000000000     1.007825032230

  Nuclear repulsion =   24.334534488106961

  ==> Basis Set <==

  Basis Set: CC-PVTZ
    Blend: CC-PVTZ
    Number of shells: 32
    Number of basis function: 88
    Number of Cartesian functions: 100
    Spherical Harmonics?: true
    Max angular momentum: 3

  ==> DFJKGrad: Density-Fitted SCF Gradients <==

    Gradient:                    1
    J tasked:                  Yes
    K tasked:                  Yes
    wK tasked:                  No
    OpenMP threads:              1
    Integrals threads:           1
    Memory [MiB]:              375
    Schwarz Cutoff:          0E+00
    Fitting Condition:       1E-10

   => Auxiliary Basis Set <=

  Basis Set: (CC-PVTZ AUX)
    Blend: CC-PVTZ-JKFIT
    Number of shells: 70
    Number of basis function: 218
    Number of Cartesian functions: 262
    Spherical Harmonics?: true
    Max angular momentum: 4

  ==> DFT Potential <==

   => Composite Functional: B3LYP <= 

    B3LYP Hyb-GGA Exchange-Correlation Functional

    P. J. Stephens, F. J. Devlin, C. F. Chabalowski, and M. J. Frisch, J. Phys. Chem. 98, 11623 (1994)

    Deriv               =              1
    GGA                 =           TRUE
    Meta                =          FALSE

    Exchange Hybrid     =           TRUE
    MP2 Hybrid          =          FALSE

   => Exchange Functionals <=

    0.0800   Slater exchange
    0.7200         Becke 88

   => Exact (HF) Exchange <=

    0.2000               HF 

   => Correlation Functionals <=

    0.1900   Vosko, Wilk & Nusair (VWN5_RPA)
    0.8100   Lee, Yang & Parr

   => Molecular Quadrature <=

    Radial Scheme          =       TREUTLER
    Pruning Scheme         =           FLAT
    Nuclear Scheme         =       TREUTLER

    BS radius alpha        =              1
    Pruning alpha          =              1
    Radial Points          =             75
    Spherical Points       =            302
    Total Points           =          88542
    Total Blocks           =            734
    Max Points             =            254
    Max Functions          =             88


  -Total Gradient:
     Atom            X                  Y                   Z
    ------   -----------------  -----------------  -----------------
       1       -0.051304399172    -0.000000000000     0.000000000000
       2        0.051304399172     0.000000000000     0.000000000000
       3       -0.009839186569    -0.000000000000     0.000000000000
       4        0.009839186569     0.000000000000     0.000000000000


*** tstop() called on atlantis at Tue Apr 19 02:05:08 2022
Module time:
	user time   =       0.71 seconds =       0.01 minutes
	system time =       0.00 seconds =       0.00 minutes
	total time  =          1 seconds =       0.02 minutes
Total time:
	user time   =      14.06 seconds =       0.23 minutes
	system time =       0.11 seconds =       0.00 minutes
	total time  =         14 seconds =       0.23 minutes

  //>>>>>>>>>>>>>>>>>>>>>>>>>>>>>>>>>>>//
  //    Loading displacement 4 of 12   //
  //<<<<<<<<<<<<<<<<<<<<<<<<<<<<<<<<<<<//
gradient() will perform analytic gradient computation.

*** tstart() called on atlantis
*** at Tue Apr 19 02:05:08 2022

   => Loading Basis Set <=

    Name: CC-PVTZ
    Role: ORBITAL
    Keyword: BASIS
    atoms 1-2 entry C          line   186 file /home/akrom/software/anaconda3/envs/ffpenv/share/psi4/basis/cc-pvtz.gbs 
    atoms 3-4 entry H          line    23 file /home/akrom/software/anaconda3/envs/ffpenv/share/psi4/basis/cc-pvtz.gbs 


         ---------------------------------------------------------
                                   SCF
               by Justin Turney, Rob Parrish, Andy Simmonett
                          and Daniel G. A. Smith
                              RKS Reference
                        1 Threads,    500 MiB Core
         ---------------------------------------------------------

  ==> Geometry <==

    Molecular point group: d2h
    Full point group: D_inf_h

    Geometry (in Angstrom), charge = 0, multiplicity = 1:

       Center              X                  Y                   Z               Mass       
    ------------   -----------------  -----------------  -----------------  -----------------
         C           -0.614460000000    -0.000000000000     0.000000000000    12.000000000000
         C            0.614460000000     0.000000000000     0.000000000000    12.000000000000
         H           -1.691093646632    -0.000000000000     0.000000000000     1.007825032230
         H            1.691093646632     0.000000000000     0.000000000000     1.007825032230

  Running in d2h symmetry.

  Rotational constants: A = ************  B =      1.13705  C =      1.13705 [cm^-1]
  Rotational constants: A = ************  B =  34087.76638  C =  34087.76638 [MHz]
  Nuclear repulsion =   24.310590060340044

  Charge       = 0
  Multiplicity = 1
  Electrons    = 14
  Nalpha       = 7
  Nbeta        = 7

  ==> Algorithm <==

  SCF Algorithm Type is DF.
  DIIS enabled.
  MOM disabled.
  Fractional occupation disabled.
  Guess Type is SAD.
  Energy threshold   = 1.00e-08
  Density threshold  = 1.00e-08
  Integral threshold = 0.00e+00

  ==> Primary Basis <==

  Basis Set: CC-PVTZ
    Blend: CC-PVTZ
    Number of shells: 32
    Number of basis function: 88
    Number of Cartesian functions: 100
    Spherical Harmonics?: true
    Max angular momentum: 3

  ==> DFT Potential <==

   => Composite Functional: B3LYP <= 

    B3LYP Hyb-GGA Exchange-Correlation Functional

    P. J. Stephens, F. J. Devlin, C. F. Chabalowski, and M. J. Frisch, J. Phys. Chem. 98, 11623 (1994)

    Deriv               =              1
    GGA                 =           TRUE
    Meta                =          FALSE

    Exchange Hybrid     =           TRUE
    MP2 Hybrid          =          FALSE

   => Exchange Functionals <=

    0.0800   Slater exchange
    0.7200         Becke 88

   => Exact (HF) Exchange <=

    0.2000               HF 

   => Correlation Functionals <=

    0.1900   Vosko, Wilk & Nusair (VWN5_RPA)
    0.8100   Lee, Yang & Parr

   => Molecular Quadrature <=

    Radial Scheme          =       TREUTLER
    Pruning Scheme         =           FLAT
    Nuclear Scheme         =       TREUTLER

    BS radius alpha        =              1
    Pruning alpha          =              1
    Radial Points          =             75
    Spherical Points       =            302
    Total Points           =          88542
    Total Blocks           =            735
    Max Points             =            256
    Max Functions          =             88

   => Loading Basis Set <=

    Name: (CC-PVTZ AUX)
    Role: JKFIT
    Keyword: DF_BASIS_SCF
    atoms 1-2 entry C          line   125 file /home/akrom/software/anaconda3/envs/ffpenv/share/psi4/basis/cc-pvtz-jkfit.gbs 
    atoms 3-4 entry H          line    51 file /home/akrom/software/anaconda3/envs/ffpenv/share/psi4/basis/cc-pvtz-jkfit.gbs 

  ==> Pre-Iterations <==

   -------------------------------------------------------
    Irrep   Nso     Nmo     Nalpha   Nbeta   Ndocc  Nsocc
   -------------------------------------------------------
     Ag        20      20       0       0       0       0
     B1g       10      10       0       0       0       0
     B2g       10      10       0       0       0       0
     B3g        4       4       0       0       0       0
     Au         4       4       0       0       0       0
     B1u       10      10       0       0       0       0
     B2u       10      10       0       0       0       0
     B3u       20      20       0       0       0       0
   -------------------------------------------------------
    Total      88      88       7       7       7       0
   -------------------------------------------------------

  ==> Integral Setup <==

  DFHelper Memory: AOs need 0.015 GiB; user supplied 0.162 GiB. Using in-core AOs.

  ==> MemDFJK: Density-Fitted J/K Matrices <==

    J tasked:                   Yes
    K tasked:                   Yes
    wK tasked:                   No
    OpenMP threads:               1
    Memory [MiB]:               166
    Algorithm:                 Core
    Schwarz Cutoff:           1E-12
    Mask sparsity (%):       0.1033
    Fitting Condition:        1E-10

   => Auxiliary Basis Set <=

  Basis Set: (CC-PVTZ AUX)
    Blend: CC-PVTZ-JKFIT
    Number of shells: 70
    Number of basis function: 218
    Number of Cartesian functions: 262
    Spherical Harmonics?: true
    Max angular momentum: 4

  Cached 100.0% of DFT collocation blocks in 0.204 [GiB].

  Minimum eigenvalue in the overlap matrix is 1.4158751247E-04.
  Using Symmetric Orthogonalization.

  SCF Guess: Superposition of Atomic Densities via on-the-fly atomic UHF.

  ==> Iterations <==

                           Total Energy        Delta E     RMS |[F,P]|

   @DF-RKS iter SAD:   -76.71311371804536   -7.67131e+01   0.00000e+00 
   @DF-RKS iter   1:   -77.16947330327615   -4.56360e-01   1.73432e-02 DIIS
   @DF-RKS iter   2:   -77.14672831663333    2.27450e-02   1.76900e-02 DIIS
   @DF-RKS iter   3:   -77.36082676632502   -2.14098e-01   7.19058e-04 DIIS
   @DF-RKS iter   4:   -77.36121029457203   -3.83528e-04   6.64321e-05 DIIS
   @DF-RKS iter   5:   -77.36121336360685   -3.06903e-06   7.82464e-06 DIIS
   @DF-RKS iter   6:   -77.36121339762737   -3.40205e-08   8.72580e-07 DIIS
   @DF-RKS iter   7:   -77.36121339810632   -4.78948e-10   7.21377e-08 DIIS
   @DF-RKS iter   8:   -77.36121339810909   -2.77112e-12   3.51485e-09 DIIS
  Energy and wave function converged.


  ==> Post-Iterations <==

    Orbital Energies [Eh]
    ---------------------

    Doubly Occupied:                                                      

       1Ag   -10.193252     1B3u  -10.191229     2Ag    -0.751401  
       2B3u   -0.572257     3Ag    -0.499458     1B2u   -0.294391  
       1B1u   -0.294391  

    Virtual:                                                              

       1B1g    0.017992     1B2g    0.017992     3B3u    0.051954  
       4Ag     0.075374     5Ag     0.181149     4B3u    0.237114  
       2B1u    0.289412     2B2u    0.289412     2B1g    0.389925  
       2B2g    0.389925     5B3u    0.396490     6Ag     0.441620  
       7Ag     0.594692     1B3g    0.594692     3B1u    0.611103  
       3B2u    0.611103     8Ag     0.611972     6B3u    0.763621  
       7B3u    0.848952     3B1g    0.872238     3B2g    0.872238  
       8B3u    0.887859     1Au     0.887859     9Ag     1.010199  
       4B2u    1.222437     4B1u    1.222437     9B3u    1.356286  
      10Ag     1.417304     4B1g    1.436713     4B2g    1.436713  
      10B3u    1.720548     5B2u    1.975700     5B1u    1.975700  
      11Ag     2.179702    11B3u    2.370742     2B3g    2.397393  
      12Ag     2.397393     5B1g    2.406523     5B2g    2.406523  
       6B1u    2.529287     6B2u    2.529287     7B2u    2.681249  
       7B1u    2.681249    13Ag     2.815327    14Ag     2.873151  
      15Ag     2.900068     3B3g    2.900068    12B3u    2.901544  
       6B1g    2.909856     6B2g    2.909856     7B2g    2.920566  
       7B1g    2.920566    13B3u    2.993374     2Au     2.993375  
       8B1u    3.093676     8B2u    3.093676    14B3u    3.116302  
       3Au     3.116302    15B3u    3.528197    16Ag     3.578604  
       4B3g    3.578604     8B1g    3.804965     8B2g    3.804965  
       9B1u    3.958059     9B2u    3.958059    17Ag     4.100596  
      16B3u    4.142577     4Au     4.142577    17B3u    4.429918  
       9B1g    4.498312     9B2g    4.498312    18Ag     4.745858  
      10B1u    5.357480    10B2u    5.357480    18B3u    5.677285  
      10B1g    5.929497    10B2g    5.929497    19B3u    5.933396  
      19Ag     6.201896    20Ag     8.843086    20B3u   15.338184  

    Final Occupation by Irrep:
             Ag   B1g   B2g   B3g    Au   B1u   B2u   B3u 
[...]

  ==> Integral Setup <==

  DFHelper Memory: AOs need 0.015 GiB; user supplied 0.163 GiB. Using in-core AOs.

  ==> MemDFJK: Density-Fitted J/K Matrices <==

    J tasked:                   Yes
    K tasked:                   Yes
    wK tasked:                   No
    OpenMP threads:               1
    Memory [MiB]:               166
    Algorithm:                 Core
    Schwarz Cutoff:           1E-12
    Mask sparsity (%):       0.1033
    Fitting Condition:        1E-10

   => Auxiliary Basis Set <=

  Basis Set: (CC-PVTZ AUX)
    Blend: CC-PVTZ-JKFIT
    Number of shells: 70
    Number of basis function: 218
    Number of Cartesian functions: 262
    Spherical Harmonics?: true
    Max angular momentum: 4

  Cached 100.0% of DFT collocation blocks in 0.204 [GiB].

  Minimum eigenvalue in the overlap matrix is 1.4146759250E-04.
  Using Symmetric Orthogonalization.

  SCF Guess: Superposition of Atomic Densities via on-the-fly atomic UHF.

  ==> Iterations <==

                           Total Energy        Delta E     RMS |[F,P]|

   @DF-RKS iter SAD:   -76.71357672699764   -7.67136e+01   0.00000e+00 
   @DF-RKS iter   1:   -77.16969158673780   -4.56115e-01   1.22607e-02 DIIS
   @DF-RKS iter   2:   -77.14757822389225    2.21134e-02   1.24897e-02 DIIS
   @DF-RKS iter   3:   -77.36088794807598   -2.13310e-01   5.12614e-04 DIIS
   @DF-RKS iter   4:   -77.36124093779445   -3.52990e-04   1.74204e-04 DIIS
   @DF-RKS iter   5:   -77.36124418410104   -3.24631e-06   1.67583e-04 DIIS
   @DF-RKS iter   6:   -77.36127943229609   -3.52482e-05   4.08079e-06 DIIS
   @DF-RKS iter   7:   -77.36127945082785   -1.85318e-08   4.59652e-07 DIIS
   @DF-RKS iter   8:   -77.36127945109341   -2.65558e-10   3.62305e-08 DIIS
   @DF-RKS iter   9:   -77.36127945109472   -1.30740e-12   1.77676e-09 DIIS
  Energy and wave function converged.


  ==> Post-Iterations <==

    Orbital Energies [Eh]
    ---------------------

    Doubly Occupied:                                                      

       1A1   -10.193133     2A1   -10.191079     3A1    -0.751494  
       4A1    -0.572802     5A1    -0.499898     1B1    -0.294426  
       1B2    -0.294426  

    Virtual:                                                              

       2B1     0.017939     2B2     0.017939     6A1     0.052320  
       7A1     0.075573     8A1     0.181090     9A1     0.237437  
       3B2     0.289406     3B1     0.289406     4B1     0.389927  
       4B2     0.389927    10A1     0.396646    11A1     0.442078  
      12A1     0.594649     1A2     0.594649     5B1     0.611376  
       5B2     0.611376    13A1     0.612457    14A1     0.763326  
      15A1     0.850155     6B1     0.872836     6B2     0.872836  
      16A1     0.887813     2A2     0.887813    17A1     1.009475  
       7B2     1.223308     7B1     1.223308    18A1     1.357229  
      19A1     1.420254     8B2     1.437208     8B1     1.437208  
      20A1     1.719995     9B1     1.975905     9B2     1.975905  
      21A1     2.179478    22A1     2.368914     3A2     2.397512  
      23A1     2.397512    10B1     2.406914    10B2     2.406914  
      11B2     2.529248    11B1     2.529248    12B1     2.680744  
      12B2     2.680744    24A1     2.816575    25A1     2.874186  
      26A1     2.899570     4A2     2.899570    27A1     2.904514  
      13B1     2.909235    13B2     2.909235    14B1     2.920522  
      14B2     2.920522    28A1     2.993137     5A2     2.993138  
      15B2     3.094783    15B1     3.094783    29A1     3.117003  
       6A2     3.117003    30A1     3.530473    31A1     3.580812  
       7A2     3.580813    16B1     3.805336    16B2     3.805336  
      17B2     3.959933    17B1     3.959933    32A1     4.103665  
      33A1     4.145369     8A2     4.145369    34A1     4.433803  
      18B2     4.502903    18B1     4.502903    35A1     4.753453  
      19B2     5.364543    19B1     5.364543    36A1     5.683764  
      20B1     5.933021    20B2     5.933021    37A1     5.935419  
      38A1     6.208218    39A1     8.870189    40A1    15.341756  

    Final Occupation by Irrep:
             A1    A2    B1    B2 
    DOCC [     5,    0,    1,    1 ]

  @DF-RKS Final Energy:   -77.36127945109472

   => Energetics <=

    Nuclear Repulsion Energy =             24.3232393838559098
    One-Electron Energy =                -151.0906844218117442
    Two-Electron Energy =                  58.6862564856135620
    DFT Exchange-Correlation Energy =      -9.2800908987524462
    Empirical Dispersion Energy =           0.0000000000000000
    VV10 Nonlocal Energy =                  0.0000000000000000
    Total Energy =                        -77.3612794510947168

Computation Completed


Properties will be evaluated at   0.000000,   0.000000,   0.000000 [a0]

Properties computed using the SCF density matrix

  Nuclear Dipole Moment: [e a0]
     X:     0.0034      Y:     0.0000      Z:     0.0000

  Electronic Dipole Moment: [e a0]
     X:    -0.0018      Y:     0.0000      Z:     0.0000

  Dipole Moment: [e a0]
     X:     0.0016      Y:     0.0000      Z:     0.0000     Total:     0.0016

  Dipole Moment: [D]
     X:     0.0040      Y:     0.0000      Z:     0.0000     Total:     0.0040


*** tstop() called on atlantis at Tue Apr 19 02:05:35 2022
Module time:
	user time   =       2.44 seconds =       0.04 minutes
	system time =       0.02 seconds =       0.00 minutes
	total time  =          3 seconds =       0.05 minutes
Total time:
	user time   =      40.41 seconds =       0.67 minutes
	system time =       0.28 seconds =       0.00 minutes
	total time  =         41 seconds =       0.68 minutes

*** tstart() called on atlantis
*** at Tue Apr 19 02:05:35 2022


         ------------------------------------------------------------
                                   SCF GRAD                          
                          Rob Parrish, Justin Turney,                
                       Andy Simmonett, and Alex Sokolov              
         ------------------------------------------------------------

  ==> Geometry <==

    Molecular point group: c2v
    Full point group: C_inf_v

    Geometry (in Angstrom), charge = 0, multiplicity = 1:

       Center              X                  Y                   Z               Mass       
    ------------   -----------------  -----------------  -----------------  -----------------
         C           -0.614610333491     0.000000000000     0.000000000000    12.000000000000
         C            0.614309666509     0.000000000000     0.000000000000    12.000000000000
         H           -1.687440004874     0.000000000000     0.000000000000     1.007825032230
         H            1.691019995126     0.000000000000     0.000000000000     1.007825032230

  Nuclear repulsion =   24.323239383855910

  ==> Basis Set <==

  Basis Set: CC-PVTZ
    Blend: CC-PVTZ
    Number of shells: 32
    Number of basis function: 88
    Number of Cartesian functions: 100
    Spherical Harmonics?: true
    Max angular momentum: 3

  ==> DFJKGrad: Density-Fitted SCF Gradients <==

    Gradient:                    1
    J tasked:                  Yes
    K tasked:                  Yes
    wK tasked:                  No
    OpenMP threads:              1
    Integrals threads:           1
    Memory [MiB]:              375
    Schwarz Cutoff:          0E+00
    Fitting Condition:       1E-10

   => Auxiliary Basis Set <=

  Basis Set: (CC-PVTZ AUX)
    Blend: CC-PVTZ-JKFIT
    Number of shells: 70
    Number of basis function: 218
    Number of Cartesian functions: 262
    Spherical Harmonics?: true
    Max angular momentum: 4

  ==> DFT Potential <==

   => Composite Functional: B3LYP <= 

    B3LYP Hyb-GGA Exchange-Correlation Functional

    P. J. Stephens, F. J. Devlin, C. F. Chabalowski, and M. J. Frisch, J. Phys. Chem. 98, 11623 (1994)

    Deriv               =              1
    GGA                 =           TRUE
    Meta                =          FALSE

    Exchange Hybrid     =           TRUE
    MP2 Hybrid          =          FALSE

   => Exchange Functionals <=

    0.0800   Slater exchange
    0.7200         Becke 88

   => Exact (HF) Exchange <=

    0.2000               HF 

   => Correlation Functionals <=

    0.1900   Vosko, Wilk & Nusair (VWN5_RPA)
    0.8100   Lee, Yang & Parr

   => Molecular Quadrature <=

    Radial Scheme          =       TREUTLER
    Pruning Scheme         =           FLAT
    Nuclear Scheme         =       TREUTLER

    BS radius alpha        =              1
    Pruning alpha          =              1
    Radial Points          =             75
    Spherical Points       =            302
    Total Points           =          88542
    Total Blocks           =            740
    Max Points             =            256
    Max Functions          =             88


  -Total Gradient:
     Atom            X                  Y                   Z
    ------   -----------------  -----------------  -----------------
       1       -0.055025602775     0.000000000000     0.000000000000
       2        0.052227032369     0.000000000000     0.000000000000
       3       -0.008028958466     0.000000000000     0.000000000000
       4        0.010827540434     0.000000000000     0.000000000000


*** tstop() called on atlantis at Tue Apr 19 02:05:35 2022
Module time:
	user time   =       0.71 seconds =       0.01 minutes
	system time =       0.01 seconds =       0.00 minutes
	total time  =          0 seconds =       0.00 minutes
Total time:
	user time   =      41.12 seconds =       0.69 minutes
	system time =       0.29 seconds =       0.00 minutes
	total time  =         41 seconds =       0.68 minutes

         ----------------------------------------------------------
                                   FINDIF
                     R. A. King and Jonathon Misiewicz
         ---------------------------------------------------------

  Computing second-derivative from gradients using projected, 
  symmetry-adapted, cartesian coordinates.

  12 gradients passed in, including the reference geometry.
  Generating complete list of displacements from unique ones.

    Operation 3 takes plus displacements of irrep B1g to minus ones.
    Operation 2 takes plus displacements of irrep B2g to minus ones.
    Operation 3 takes plus displacements of irrep B1u to minus ones.
    Operation 2 takes plus displacements of irrep B2u to minus ones.
    Operation 2 takes plus displacements of irrep B3u to minus ones.

-------------------------------------------------------------


  ==> Harmonic Vibrational Analysis <==

  non-mass-weighted Hessian:       Symmetric? True   Hermitian? True   Lin Dep Dim?  3 (0)
  projection of translations (True) and rotations (False) removed 3 degrees of freedom (5)
  total projector:                 Symmetric? True   Hermitian? True   Lin Dep Dim?  3 (3)
  mass-weighted Hessian:           Symmetric? True   Hermitian? True   Lin Dep Dim?  3 (0)
  pre-proj  low-frequency mode:    0.0000i [cm^-1]
  pre-proj  low-frequency mode:    0.0000  [cm^-1]
  pre-proj  low-frequency mode:    0.0000  [cm^-1]
  pre-proj  low-frequency mode:  303.2312  [cm^-1]
  pre-proj  low-frequency mode:  303.2312  [cm^-1]
  pre-proj  all modes:['0.0000i' '0.0000' '0.0000' '303.2312' '303.2312' '696.5242' '696.5242'
 '824.1451' '824.1452' '1891.1132' '3293.3683' '3378.7355']
  projected mass-weighted Hessian: Symmetric? True   Hermitian? True   Lin Dep Dim?  3 (3)
  post-proj low-frequency mode:    0.0000i [cm^-1] (TR)
  post-proj low-frequency mode:    0.0000  [cm^-1] (TR)
  post-proj low-frequency mode:    0.0000  [cm^-1] (TR)
  post-proj low-frequency mode:  303.2312  [cm^-1] (V)
  post-proj low-frequency mode:  303.2312  [cm^-1] (V)
  post-proj  all modes:['0.0000i' '0.0000' '0.0000' '303.2312' '303.2312' '696.5242' '696.5242'
 '824.1451' '824.1452' '1891.1132' '3293.3683' '3378.7355']

  Note that "Vibration"s include 2 un-projected rotation-like modes.
  Vibration                       4                   5                   6           
  Freq [cm^-1]                 303.2312            303.2312            696.5242       
  Irrep                          B1g                 B2g                 B1g          
  Reduced mass [u]              2.1607              2.1607              1.6320        
  Force const [mDyne/A]         0.1171              0.1171              0.4665        
  Turning point v=0 [a0]        0.4287              0.4287              0.3255        
  RMS dev v=0 [a0 u^1/2]        0.4456              0.4456              0.2940        
  Char temp [K]                436.2822            436.2822           1002.1432       
  ----------------------------------------------------------------------------------
      1   C                0.00  0.23  0.00    0.00 -0.00  0.23   -0.00 -0.17 -0.00   
      2   C                0.00 -0.23 -0.00    0.00  0.00 -0.23   -0.00  0.17  0.00   
      3   H                0.00  0.67  0.00    0.00 -0.00  0.67   -0.00  0.69  0.00   
      4   H                0.00 -0.67 -0.00    0.00  0.00 -0.67   -0.00 -0.69 -0.00   

  Vibration                       7                   8                   9           
  Freq [cm^-1]                 696.5242            824.1451            824.1452       
  Irrep                          B2g                 B2u                 B1u          
  Reduced mass [u]              1.6320              1.0848              1.0848        
  Force const [mDyne/A]         0.4665              0.4341              0.4341        
  Turning point v=0 [a0]        0.3255              0.3670              0.3670        
  RMS dev v=0 [a0 u^1/2]        0.2940              0.2703              0.2703        
  Char temp [K]               1002.1432           1185.7614           1185.7614       
  ----------------------------------------------------------------------------------
      1   C               -0.00  0.00 -0.17   -0.00 -0.06 -0.00   -0.00  0.00 -0.06   
      2   C               -0.00 -0.00  0.17   -0.00 -0.06 -0.00   -0.00  0.00 -0.06   
      3   H               -0.00 -0.00  0.69   -0.00  0.70  0.00    0.00 -0.00  0.70   
      4   H               -0.00  0.00 -0.69   -0.00  0.70  0.00    0.00 -0.00  0.70   

  Vibration                       10                  11                  12          
  Freq [cm^-1]                1891.1132           3293.3683           3378.7355       
  Irrep                           Ag                 B3u                  Ag          
  Reduced mass [u]              4.0616              1.0848              1.2057        
  Force const [mDyne/A]         8.5582              6.9325              8.1099        
  Turning point v=0 [a0]        0.1252              0.1836              0.1719        
  RMS dev v=0 [a0 u^1/2]        0.1784              0.1352              0.1335        
  Char temp [K]               2720.8908           4738.4237           4861.2481       
  ----------------------------------------------------------------------------------
      1   C                0.37 -0.00 -0.00   -0.06  0.00  0.00   -0.09 -0.00 -0.00   
      2   C               -0.37  0.00  0.00   -0.06 -0.00 -0.00    0.09  0.00  0.00   
      3   H                0.60  0.00  0.00    0.70 -0.00 -0.00    0.70  0.00  0.00   
      4   H               -0.60 -0.00 -0.00    0.70  0.00  0.00   -0.70  0.00 -0.00   

  ==> Thermochemistry Components <==

  Entropy, S
    Electronic S            0.000 [cal/(mol K)]        0.000 [J/(mol K)]       0.00000000 [mEh/K] (multiplicity = 1)
    Translational S        35.704 [cal/(mol K)]      149.387 [J/(mol K)]       0.05689862 [mEh/K] (mol. weight = 26.0157 [u], P = 101325.00 [Pa])
    Rotational S           10.952 [cal/(mol K)]       45.824 [J/(mol K)]       0.01745345 [mEh/K] (symmetry no. = 2)
    Vibrational S           3.798 [cal/(mol K)]       15.890 [J/(mol K)]       0.00605206 [mEh/K]
  Total S                  50.454 [cal/(mol K)]      211.101 [J/(mol K)]       0.08040413 [mEh/K]
  Correction S              0.000 [cal/(mol K)]        0.000 [J/(mol K)]       0.00000000 [mEh/K]

  Constant volume heat capacity, Cv
    Electronic Cv           0.000 [cal/(mol K)]        0.000 [J/(mol K)]       0.00000000 [mEh/K]
    Translational Cv        2.981 [cal/(mol K)]       12.472 [J/(mol K)]       0.00475022 [mEh/K]
    Rotational Cv           1.987 [cal/(mol K)]        8.314 [J/(mol K)]       0.00316681 [mEh/K]
    Vibrational Cv          6.249 [cal/(mol K)]       26.144 [J/(mol K)]       0.00995774 [mEh/K]
  Total Cv                 11.217 [cal/(mol K)]       46.930 [J/(mol K)]       0.01787477 [mEh/K]
  Correction Cv             0.000 [cal/(mol K)]        0.000 [J/(mol K)]       0.00000000 [mEh/K]

  Constant pressure heat capacity, Cp
    Electronic Cp           0.000 [cal/(mol K)]        0.000 [J/(mol K)]       0.00000000 [mEh/K]
    Translational Cp        4.968 [cal/(mol K)]       20.786 [J/(mol K)]       0.00791703 [mEh/K]
    Rotational Cp           1.987 [cal/(mol K)]        8.314 [J/(mol K)]       0.00316681 [mEh/K]
    Vibrational Cp          6.249 [cal/(mol K)]       26.144 [J/(mol K)]       0.00995774 [mEh/K]
  Total Cp                 13.204 [cal/(mol K)]       55.245 [J/(mol K)]       0.02104158 [mEh/K]
  Correction Cp             0.000 [cal/(mol K)]        0.000 [J/(mol K)]       0.00000000 [mEh/K]

  ==> Thermochemistry Energy Analysis <==

  Raw electronic energy, E0
  Total E0, Electronic energy at well bottom at 0 [K]                  -77.36128458 [Eh]

  Zero-point energy, ZPE_vib = Sum_i nu_i / 2
    Electronic ZPE          0.000 [kcal/mol]        0.000 [kJ/mol]       0.00000000 [Eh]
    Translational ZPE       0.000 [kcal/mol]        0.000 [kJ/mol]       0.00000000 [Eh]
    Rotational ZPE          0.000 [kcal/mol]        0.000 [kJ/mol]       0.00000000 [Eh]
    Vibrational ZPE        17.457 [kcal/mol]       73.038 [kJ/mol]       0.02781875 [Eh]        6105.509 [cm^-1]
  Correction ZPE           17.457 [kcal/mol]       73.038 [kJ/mol]       0.02781875 [Eh]        6105.509 [cm^-1]
  Total ZPE, Electronic energy at 0 [K]                                -77.33346584 [Eh]

  Thermal Energy, E (includes ZPE)
    Electronic E            0.000 [kcal/mol]        0.000 [kJ/mol]       0.00000000 [Eh]
    Translational E         0.889 [kcal/mol]        3.718 [kJ/mol]       0.00141628 [Eh]
    Rotational E            0.592 [kcal/mol]        2.479 [kJ/mol]       0.00094418 [Eh]
    Vibrational E          18.213 [kcal/mol]       76.201 [kJ/mol]       0.02902350 [Eh]
  Correction E             19.694 [kcal/mol]       82.399 [kJ/mol]       0.03138396 [Eh]
  Total E, Electronic energy at  298.15 [K]                            -77.32990062 [Eh]

  Enthalpy, H_trans = E_trans + k_B * T
    Electronic H            0.000 [kcal/mol]        0.000 [kJ/mol]       0.00000000 [Eh]
    Translational H         1.481 [kcal/mol]        6.197 [kJ/mol]       0.00236046 [Eh]
    Rotational H            0.592 [kcal/mol]        2.479 [kJ/mol]       0.00094418 [Eh]
    Vibrational H          18.213 [kcal/mol]       76.201 [kJ/mol]       0.02902350 [Eh]
  Correction H             20.286 [kcal/mol]       84.878 [kJ/mol]       0.03232814 [Eh]
  Total H, Enthalpy at  298.15 [K]                                     -77.32895644 [Eh]

  Gibbs free energy, G = H - T * S
    Electronic G            0.000 [kcal/mol]        0.000 [kJ/mol]       0.00000000 [Eh]
    Translational G        -9.164 [kcal/mol]      -38.342 [kJ/mol]      -0.01460386 [Eh]
    Rotational G           -2.673 [kcal/mol]      -11.183 [kJ/mol]      -0.00425956 [Eh]
    Vibrational G          17.080 [kcal/mol]       71.464 [kJ/mol]       0.02721907 [Eh]
  Correction G              5.243 [kcal/mol]       21.938 [kJ/mol]       0.00835565 [Eh]
  Total G, Free enthalpy at  298.15 [K]                                -77.35292893 [Eh]

    Psi4 stopped on: Tuesday, 19 April 2022 02:05AM
    Psi4 wall time for execution: 0:00:41.63

*** Psi4 exiting successfully. Buy a developer a beer!
