
    -----------------------------------------------------------------------
          Psi4: An Open-Source Ab Initio Electronic Structure Package
                               Psi4 1.3.2 release

                         Git: Rev {HEAD} ecbda83 


    R. M. Parrish, L. A. Burns, D. G. A. Smith, A. C. Simmonett,
    A. E. DePrince III, E. G. Hohenstein, U. Bozkaya, A. Yu. Sokolov,
    R. Di Remigio, R. M. Richard, J. F. Gonthier, A. M. James,
    H. R. McAlexander, A. Kumar, M. Saitow, X. Wang, B. P. Pritchard,
    P. Verma, H. F. Schaefer III, K. Patkowski, R. A. King, E. F. Valeev,
    F. A. Evangelista, J. M. Turney, T. D. Crawford, and C. D. Sherrill,
    J. Chem. Theory Comput. 13(7) pp 3185--3197 (2017).
    (doi: 10.1021/acs.jctc.7b00174)


                         Additional Contributions by
    P. Kraus, H. Kruse, M. H. Lechner, M. C. Schieber, R. A. Shaw,
    A. Alenaizan, R. Galvelis, Z. L. Glick, S. Lehtola, and J. P. Misiewicz

    -----------------------------------------------------------------------


    Psi4 started on: Tuesday, 19 April 2022 12:37AM

    Process ID: 25633
    Host:       atlantis
    PSIDATADIR: /home/akrom/software/anaconda3/envs/ffpenv/share/psi4
    Memory:     500.0 MiB
    Threads:    1
    
  ==> Input File <==

--------------------------------------------------------------------------
set basis  aug-cc-pVTZ
molecule {
0 1
   O        0.00000        0.00000        0.49152
   C        0.00000        0.00000       -0.65516
}
energy('m06-2x')
frequencies('m06-2x')
--------------------------------------------------------------------------

*** tstart() called on atlantis
*** at Tue Apr 19 00:37:37 2022

   => Loading Basis Set <=

    Name: AUG-CC-PVTZ
    Role: ORBITAL
    Keyword: BASIS
    atoms 1 entry O          line   327 file /home/akrom/software/anaconda3/envs/ffpenv/share/psi4/basis/aug-cc-pvtz.gbs 
    atoms 2 entry C          line   235 file /home/akrom/software/anaconda3/envs/ffpenv/share/psi4/basis/aug-cc-pvtz.gbs 


         ---------------------------------------------------------
                                   SCF
               by Justin Turney, Rob Parrish, Andy Simmonett
                          and Daniel G. A. Smith
                              RKS Reference
                        1 Threads,    500 MiB Core
         ---------------------------------------------------------

  ==> Geometry <==

    Molecular point group: c2v
    Full point group: C_inf_v

    Geometry (in Angstrom), charge = 0, multiplicity = 1:

       Center              X                  Y                   Z               Mass       
    ------------   -----------------  -----------------  -----------------  -----------------
         O            0.000000000000     0.000000000000     0.491523556581    15.994914619570
         C            0.000000000000     0.000000000000    -0.655156443419    12.000000000000

  Running in c2v symmetry.

  Rotational constants: A = ************  B =      1.86994  C =      1.86994 [cm^-1]
  Rotational constants: A = ************  B =  56059.43274  C =  56059.43274 [MHz]
  Nuclear repulsion =   22.151346593783796

  Charge       = 0
  Multiplicity = 1
  Electrons    = 14
  Nalpha       = 7
  Nbeta        = 7

  ==> Algorithm <==

  SCF Algorithm Type is DF.
  DIIS enabled.
  MOM disabled.
  Fractional occupation disabled.
  Guess Type is SAD.
  Energy threshold   = 1.00e-06
  Density threshold  = 1.00e-06
  Integral threshold = 0.00e+00

  ==> Primary Basis <==

  Basis Set: AUG-CC-PVTZ
    Blend: AUG-CC-PVTZ
    Number of shells: 28
    Number of basis function: 92
    Number of Cartesian functions: 110
    Spherical Harmonics?: true
    Max angular momentum: 3

  ==> DFT Potential <==

   => Composite Functional: M06-2X <= 

    Hybrid M06-2X Meta-GGA XC Functional

    Y. Zhao and D. G. Truhlar,  Theor. Chem. Acc., 120, 215, 2008


    Deriv               =              1
    GGA                 =           TRUE
    Meta                =           TRUE

    Exchange Hybrid     =           TRUE
    MP2 Hybrid          =          FALSE

   => Exchange Functionals <=

    1.0000   XC_HYB_MGGA_X_M06_2X

   => Exact (HF) Exchange <=

    0.5400               HF 

   => Correlation Functionals <=

    1.0000   XC_MGGA_C_M06_2X

   => Molecular Quadrature <=

    Radial Scheme          =       TREUTLER
    Pruning Scheme         =           FLAT
    Nuclear Scheme         =       TREUTLER

    BS radius alpha        =              1
    Pruning alpha          =              1
    Radial Points          =             75
    Spherical Points       =            302
    Total Points           =          45300
    Total Blocks           =            420
    Max Points             =            256
    Max Functions          =             92

   => Loading Basis Set <=

    Name: (AUG-CC-PVTZ AUX)
    Role: JKFIT
    Keyword: DF_BASIS_SCF
    atoms 1 entry O          line   286 file /home/akrom/software/anaconda3/envs/ffpenv/share/psi4/basis/aug-cc-pvtz-jkfit.gbs 
    atoms 2 entry C          line   162 file /home/akrom/software/anaconda3/envs/ffpenv/share/psi4/basis/aug-cc-pvtz-jkfit.gbs 

  ==> Pre-Iterations <==

   -------------------------------------------------------
    Irrep   Nso     Nmo     Nalpha   Nbeta   Ndocc  Nsocc
   -------------------------------------------------------
     A1        38      38       0       0       0       0
     A2        10      10       0       0       0       0
     B1        22      22       0       0       0       0
     B2        22      22       0       0       0       0
   -------------------------------------------------------
    Total      92      92       7       7       7       0
   -------------------------------------------------------

  ==> Integral Setup <==

  DFHelper Memory: AOs need 0.015 GiB; user supplied 0.082 GiB. Using in-core AOs.

  ==> MemDFJK: Density-Fitted J/K Matrices <==

    J tasked:                   Yes
    K tasked:                   Yes
    wK tasked:                   No
    OpenMP threads:               1
    Memory [MiB]:                84
    Algorithm:                 Core
    Schwarz Cutoff:           1E-12
    Mask sparsity (%):       0.0000
    Fitting Condition:        1E-10

   => Auxiliary Basis Set <=

  Basis Set: (AUG-CC-PVTZ AUX)
    Blend: AUG-CC-PVTZ-JKFIT
    Number of shells: 60
    Number of basis function: 208
    Number of Cartesian functions: 262
    Spherical Harmonics?: true
    Max angular momentum: 4

  Cached 100.0% of DFT collocation blocks in 0.284 [GiB].

  Minimum eigenvalue in the overlap matrix is 4.8582112806E-04.
  Using Symmetric Orthogonalization.

  SCF Guess: Superposition of Atomic Densities via on-the-fly atomic UHF.

  ==> Iterations <==

                           Total Energy        Delta E     RMS |[F,P]|

   @DF-RKS iter SAD:  -112.63301232738510   -1.12633e+02   0.00000e+00 
   @DF-RKS iter   1:  -113.27954821742794   -6.46536e-01   7.02442e-03 DIIS
   @DF-RKS iter   2:  -113.23376809386291    4.57801e-02   1.01415e-02 DIIS
   @DF-RKS iter   3:  -113.31696881803637   -8.32007e-02   1.28901e-03 DIIS
   @DF-RKS iter   4:  -113.31874426320664   -1.77545e-03   1.33717e-04 DIIS
   @DF-RKS iter   5:  -113.31876030143273   -1.60382e-05   3.23012e-05 DIIS
   @DF-RKS iter   6:  -113.31876124344939   -9.42017e-07   4.65202e-06 DIIS
   @DF-RKS iter   7:  -113.31876126492601   -2.14766e-08   4.19309e-07 DIIS
  Energy and wave function converged.


  ==> Post-Iterations <==

    Orbital Energies [Eh]
    ---------------------

    Doubly Occupied:                                                      

       1A1   -19.738366     2A1   -10.669071     3A1    -1.283833  
       4A1    -0.674956     1B2    -0.550968     1B1    -0.550968  
       5A1    -0.453940  

    Virtual:                                                              

       2B2     0.002845     2B1     0.002845     6A1     0.027433  
       7A1     0.048256     3B2     0.059479     3B1     0.059479  
       8A1     0.131077     4B2     0.142099     4B1     0.142099  
       9A1     0.212526     1A2     0.232519    10A1     0.232519  
      11A1     0.325532     5B2     0.343298     5B1     0.343298  
       6B2     0.412838     6B1     0.412838    12A1     0.418037  
      13A1     0.560267    14A1     0.615167     2A2     0.615168  
      15A1     0.625983     7B2     0.715717     7B1     0.715717  
      16A1     0.853200     3A2     0.900777    17A1     0.900780  
       8B2     0.928435     8B1     0.928435     9B1     0.953013  
       9B2     0.953013    10B2     1.085060    10B1     1.085060  
      18A1     1.110774    19A1     1.148348     4A2     1.148351  
      20A1     1.222721    11B2     1.316398    11B1     1.316398  
      21A1     1.332692    12B2     1.939752    12B1     1.939752  
      22A1     1.947444     5A2     1.947455    13B2     2.073171  
      13B1     2.073171    23A1     2.079560    24A1     2.205188  
      14B2     2.310397    14B1     2.310397    25A1     2.354972  
       6A2     2.354980    26A1     2.407634    15B2     2.715486  
      15B1     2.715486    27A1     3.093970     7A2     3.094039  
      16B2     3.131736    16B1     3.131736    28A1     3.153039  
      17B1     3.287278    17B2     3.287278     8A2     3.414120  
      29A1     3.414125    18B1     3.610080    18B2     3.610080  
      30A1     3.645364    31A1     3.989815    19B2     4.772558  
      19B1     4.772558    32A1     4.852658    20B2     6.025466  
      20B1     6.025466    33A1     6.280756     9A2     6.280799  
      10A2     6.512460    34A1     6.512509    21B2     6.570417  
      21B1     6.570417    35A1     6.673620    22B2     6.905145  
      22B1     6.905145    36A1     7.052094    37A1    11.781531  
      38A1    14.165357  

    Final Occupation by Irrep:
             A1    A2    B1    B2 
    DOCC [     5,    0,    1,    1 ]

  @DF-RKS Final Energy:  -113.31876126492601

   => Energetics <=

    Nuclear Repulsion Energy =             22.1513465937837957
    One-Electron Energy =                -197.5886167257512795
    Two-Electron Energy =                  68.7763213376235996
    DFT Exchange-Correlation Energy =      -6.6578124705821082
    Empirical Dispersion Energy =           0.0000000000000000
    VV10 Nonlocal Energy =                  0.0000000000000000
    Total Energy =                       -113.3187612649259961

Computation Completed


Properties will be evaluated at   0.000000,   0.000000,   0.000000 [a0]

Properties computed using the SCF density matrix

  Nuclear Dipole Moment: [e a0]
     X:     0.0000      Y:     0.0000      Z:     0.0024

  Electronic Dipole Moment: [e a0]
     X:     0.0000      Y:     0.0000      Z:    -0.0314

  Dipole Moment: [e a0]
     X:     0.0000      Y:     0.0000      Z:    -0.0290     Total:     0.0290

  Dipole Moment: [D]
     X:     0.0000      Y:     0.0000      Z:    -0.0737     Total:     0.0737


*** tstop() called on atlantis at Tue Apr 19 00:37:39 2022
Module time:
	user time   =       2.41 seconds =       0.04 minutes
	system time =       0.07 seconds =       0.00 minutes
	total time  =          2 seconds =       0.03 minutes
Total time:
	user time   =       2.41 seconds =       0.04 minutes
	system time =       0.07 seconds =       0.00 minutes
	total time  =          2 seconds =       0.03 minutes
gradient() will perform analytic gradient computation.

*** tstart() called on atlantis
*** at Tue Apr 19 00:37:39 2022

   => Loading Basis Set <=

    Name: AUG-CC-PVTZ
    Role: ORBITAL
    Keyword: BASIS
    atoms 1 entry O          line   327 file /home/akrom/software/anaconda3/envs/ffpenv/share/psi4/basis/aug-cc-pvtz.gbs 
    atoms 2 entry C          line   235 file /home/akrom/software/anaconda3/envs/ffpenv/share/psi4/basis/aug-cc-pvtz.gbs 


         ---------------------------------------------------------
                                   SCF
               by Justin Turney, Rob Parrish, Andy Simmonett
                          and Daniel G. A. Smith
                              RKS Reference
                        1 Threads,    500 MiB Core
         ---------------------------------------------------------

  ==> Geometry <==

    Molecular point group: c2v
    Full point group: C_inf_v

    Geometry (in Angstrom), charge = 0, multiplicity = 1:

       Center              X                  Y                   Z               Mass       
    ------------   -----------------  -----------------  -----------------  -----------------
         O            0.000000000000     0.000000000000     0.491523556581    15.994914619570
         C            0.000000000000     0.000000000000    -0.655156443419    12.000000000000

  Running in c2v symmetry.

  Rotational constants: A = ************  B =      1.86994  C =      1.86994 [cm^-1]
  Rotational constants: A = ************  B =  56059.43274  C =  56059.43274 [MHz]
  Nuclear repulsion =   22.151346593783796

  Charge       = 0
  Multiplicity = 1
  Electrons    = 14
  Nalpha       = 7
  Nbeta        = 7

  ==> Algorithm <==

  SCF Algorithm Type is DF.
  DIIS enabled.
  MOM disabled.
  Fractional occupation disabled.
  Guess Type is SAD.
  Energy threshold   = 1.00e-08
  Density threshold  = 1.00e-08
  Integral threshold = 0.00e+00

  ==> Primary Basis <==

  Basis Set: AUG-CC-PVTZ
    Blend: AUG-CC-PVTZ
    Number of shells: 28
    Number of basis function: 92
    Number of Cartesian functions: 110
    Spherical Harmonics?: true
    Max angular momentum: 3

  ==> DFT Potential <==

   => Composite Functional: M06-2X <= 

    Hybrid M06-2X Meta-GGA XC Functional

    Y. Zhao and D. G. Truhlar,  Theor. Chem. Acc., 120, 215, 2008


    Deriv               =              1
    GGA                 =           TRUE
    Meta                =           TRUE

    Exchange Hybrid     =           TRUE
    MP2 Hybrid          =          FALSE

   => Exchange Functionals <=

    1.0000   XC_HYB_MGGA_X_M06_2X

   => Exact (HF) Exchange <=

    0.5400               HF 

   => Correlation Functionals <=

    1.0000   XC_MGGA_C_M06_2X

   => Molecular Quadrature <=

    Radial Scheme          =       TREUTLER
    Pruning Scheme         =           FLAT
    Nuclear Scheme         =       TREUTLER

    BS radius alpha        =              1
    Pruning alpha          =              1
    Radial Points          =             75
    Spherical Points       =            302
    Total Points           =          45300
    Total Blocks           =            420
    Max Points             =            256
    Max Functions          =             92

   => Loading Basis Set <=

    Name: (AUG-CC-PVTZ AUX)
    Role: JKFIT
    Keyword: DF_BASIS_SCF
    atoms 1 entry O          line   286 file /home/akrom/software/anaconda3/envs/ffpenv/share/psi4/basis/aug-cc-pvtz-jkfit.gbs 
    atoms 2 entry C          line   162 file /home/akrom/software/anaconda3/envs/ffpenv/share/psi4/basis/aug-cc-pvtz-jkfit.gbs 

  ==> Pre-Iterations <==

   -------------------------------------------------------
    Irrep   Nso     Nmo     Nalpha   Nbeta   Ndocc  Nsocc
   -------------------------------------------------------
     A1        38      38       0       0       0       0
     A2        10      10       0       0       0       0
     B1        22      22       0       0       0       0
     B2        22      22       0       0       0       0
   -------------------------------------------------------
    Total      92      92       7       7       7       0
   -------------------------------------------------------

  ==> Integral Setup <==

  DFHelper Memory: AOs need 0.015 GiB; user supplied 0.082 GiB. Using in-core AOs.

  ==> MemDFJK: Density-Fitted J/K Matrices <==

    J tasked:                   Yes
    K tasked:                   Yes
    wK tasked:                   No
    OpenMP threads:               1
    Memory [MiB]:                84
    Algorithm:                 Core
    Schwarz Cutoff:           1E-12
    Mask sparsity (%):       0.0000
    Fitting Condition:        1E-10

   => Auxiliary Basis Set <=

  Basis Set: (AUG-CC-PVTZ AUX)
    Blend: AUG-CC-PVTZ-JKFIT
    Number of shells: 60
    Number of basis function: 208
    Number of Cartesian functions: 262
    Spherical Harmonics?: true
    Max angular momentum: 4

  Cached 100.0% of DFT collocation blocks in 0.284 [GiB].

  Minimum eigenvalue in the overlap matrix is 4.8582112806E-04.
  Using Symmetric Orthogonalization.

  SCF Guess: Superposition of Atomic Densities via on-the-fly atomic UHF.

  ==> Iterations <==

                           Total Energy        Delta E     RMS |[F,P]|

   @DF-RKS iter SAD:  -112.63301232738510   -1.12633e+02   0.00000e+00 
   @DF-RKS iter   1:  -113.27954821742794   -6.46536e-01   7.02442e-03 DIIS
   @DF-RKS iter   2:  -113.23376809386291    4.57801e-02   1.01415e-02 DIIS
   @DF-RKS iter   3:  -113.31696881803637   -8.32007e-02   1.28901e-03 DIIS
   @DF-RKS iter   4:  -113.31874426320664   -1.77545e-03   1.33717e-04 DIIS
   @DF-RKS iter   5:  -113.31876030143273   -1.60382e-05   3.23012e-05 DIIS
   @DF-RKS iter   6:  -113.31876124344939   -9.42017e-07   4.65202e-06 DIIS
   @DF-RKS iter   7:  -113.31876126492601   -2.14766e-08   4.19309e-07 DIIS
   @DF-RKS iter   8:  -113.31876126522521   -2.99195e-10   8.19908e-08 DIIS
   @DF-RKS iter   9:  -113.31876126523240   -7.19069e-12   5.43211e-09 DIIS
  Energy and wave function converged.


  ==> Post-Iterations <==

    Orbital Energies [Eh]
    ---------------------

    Doubly Occupied:                                                      

       1A1   -19.738367     2A1   -10.669070     3A1    -1.283834  
       4A1    -0.674957     1B2    -0.550969     1B1    -0.550969  
       5A1    -0.453940  

    Virtual:                                                              

       2B2     0.002846     2B1     0.002846     6A1     0.027433  
       7A1     0.048256     3B2     0.059479     3B1     0.059479  
       8A1     0.131077     4B2     0.142099     4B1     0.142099  
       9A1     0.212526     1A2     0.232520    10A1     0.232520  
      11A1     0.325532     5B2     0.343298     5B1     0.343298  
       6B2     0.412838     6B1     0.412838    12A1     0.418037  
      13A1     0.560267    14A1     0.615167     2A2     0.615168  
      15A1     0.625983     7B2     0.715717     7B1     0.715717  
      16A1     0.853199     3A2     0.900778    17A1     0.900781  
       8B2     0.928435     8B1     0.928435     9B1     0.953014  
       9B2     0.953014    10B2     1.085061    10B1     1.085061  
      18A1     1.110774    19A1     1.148348     4A2     1.148351  
      20A1     1.222720    11B2     1.316399    11B1     1.316399  
      21A1     1.332692    12B2     1.939751    12B1     1.939751  
      22A1     1.947444     5A2     1.947454    13B2     2.073171  
      13B1     2.073171    23A1     2.079560    24A1     2.205187  
      14B2     2.310397    14B1     2.310397    25A1     2.354972  
       6A2     2.354979    26A1     2.407634    15B2     2.715486  
      15B1     2.715486    27A1     3.093971     7A2     3.094040  
      16B2     3.131736    16B1     3.131736    28A1     3.153040  
      17B1     3.287278    17B2     3.287278     8A2     3.414120  
      29A1     3.414126    18B1     3.610080    18B2     3.610080  
      30A1     3.645364    31A1     3.989814    19B2     4.772558  
      19B1     4.772558    32A1     4.852657    20B2     6.025465  
      20B1     6.025465    33A1     6.280755     9A2     6.280798  
      10A2     6.512458    34A1     6.512508    21B2     6.570417  
      21B1     6.570417    35A1     6.673620    22B2     6.905144  
      22B1     6.905144    36A1     7.052093    37A1    11.781531  
      38A1    14.165356  

    Final Occupation by Irrep:
             A1    A2    B1    B2 
    DOCC [     5,    0,    1,    1 ]

  @DF-RKS Final Energy:  -113.31876126523240

   => Energetics <=

    Nuclear Repulsion Energy =             22.1513465937837957
    One-Electron Energy =                -197.5885864323396959
    Two-Electron Energy =                  68.7762888130584571
    DFT Exchange-Correlation Energy =      -6.6578102397349364
    Empirical Dispersion Energy =           0.0000000000000000
    VV10 Nonlocal Energy =                  0.0000000000000000
    Total Energy =                       -113.3187612652323963

Computation Completed


Properties will be evaluated at   0.000000,   0.000000,   0.000000 [a0]

Properties computed using the SCF density matrix

  Nuclear Dipole Moment: [e a0]
     X:     0.0000      Y:     0.0000      Z:     0.0024

  Electronic Dipole Moment: [e a0]
     X:     0.0000      Y:     0.0000      Z:    -0.0314

  Dipole Moment: [e a0]
     X:     0.0000      Y:     0.0000      Z:    -0.0290     Total:     0.0290

  Dipole Moment: [D]
     X:     0.0000      Y:     0.0000      Z:    -0.0737     Total:     0.0737


*** tstop() called on atlantis at Tue Apr 19 00:37:42 2022
Module time:
	user time   =       2.92 seconds =       0.05 minutes
	system time =       0.01 seconds =       0.00 minutes
	total time  =          3 seconds =       0.05 minutes
Total time:
	user time   =       5.34 seconds =       0.09 minutes
	system time =       0.08 seconds =       0.00 minutes
	total time  =          5 seconds =       0.08 minutes

*** tstart() called on atlantis
*** at Tue Apr 19 00:37:42 2022


         ------------------------------------------------------------
                                   SCF GRAD                          
                          Rob Parrish, Justin Turney,                
                       Andy Simmonett, and Alex Sokolov              
         ------------------------------------------------------------

  ==> Geometry <==

    Molecular point group: c2v
    Full point group: C_inf_v

    Geometry (in Angstrom), charge = 0, multiplicity = 1:

       Center              X                  Y                   Z               Mass       
    ------------   -----------------  -----------------  -----------------  -----------------
         O            0.000000000000     0.000000000000     0.491523556581    15.994914619570
         C            0.000000000000     0.000000000000    -0.655156443419    12.000000000000

  Nuclear repulsion =   22.151346593783796

  ==> Basis Set <==

  Basis Set: AUG-CC-PVTZ
    Blend: AUG-CC-PVTZ
    Number of shells: 28
    Number of basis function: 92
    Number of Cartesian functions: 110
    Spherical Harmonics?: true
    Max angular momentum: 3

  ==> DFJKGrad: Density-Fitted SCF Gradients <==

    Gradient:                    1
    J tasked:                  Yes
    K tasked:                  Yes
    wK tasked:                  No
    OpenMP threads:              1
    Integrals threads:           1
    Memory [MiB]:              375
    Schwarz Cutoff:          0E+00
    Fitting Condition:       1E-10

   => Auxiliary Basis Set <=

  Basis Set: (AUG-CC-PVTZ AUX)
    Blend: AUG-CC-PVTZ-JKFIT
    Number of shells: 60
    Number of basis function: 208
    Number of Cartesian functions: 262
    Spherical Harmonics?: true
    Max angular momentum: 4

  ==> DFT Potential <==

   => Composite Functional: M06-2X <= 

    Hybrid M06-2X Meta-GGA XC Functional

    Y. Zhao and D. G. Truhlar,  Theor. Chem. Acc., 120, 215, 2008


    Deriv               =              1
    GGA                 =           TRUE
    Meta                =           TRUE

    Exchange Hybrid     =           TRUE
    MP2 Hybrid          =          FALSE

   => Exchange Functionals <=

    1.0000   XC_HYB_MGGA_X_M06_2X

   => Exact (HF) Exchange <=

    0.5400               HF 

   => Correlation Functionals <=

    1.0000   XC_MGGA_C_M06_2X

   => Molecular Quadrature <=

    Radial Scheme          =       TREUTLER
    Pruning Scheme         =           FLAT
    Nuclear Scheme         =       TREUTLER

    BS radius alpha        =              1
    Pruning alpha          =              1
    Radial Points          =             75
    Spherical Points       =            302
    Total Points           =          45300
    Total Blocks           =            420
    Max Points             =            256
    Max Functions          =             92


  -Total Gradient:
     Atom            X                  Y                   Z
    ------   -----------------  -----------------  -----------------
       1        0.000000000000     0.000000000000     0.058435433719
       2       -0.000000000000    -0.000000000000    -0.058506334517


*** tstop() called on atlantis at Tue Apr 19 00:37:43 2022
Module time:
	user time   =       0.69 seconds =       0.01 minutes
	system time =       0.00 seconds =       0.00 minutes
	total time  =          1 seconds =       0.02 minutes
Total time:
	user time   =       6.03 seconds =       0.10 minutes
	system time =       0.08 seconds =       0.00 minutes
	total time  =          6 seconds =       0.10 minutes

  Based on options and gradient (rms=3.38E-02), recommend projecting translations and not projecting rotations.
hessian() will perform frequency computation by finite difference of analytic gradients.

         ----------------------------------------------------------
                                   FINDIF
                     R. A. King and Jonathon Misiewicz
         ---------------------------------------------------------

  Using finite-differences of gradients to determine vibrational frequencies and 
  normal modes.  Resulting frequencies are only valid at stationary points.
    Generating geometries for use with 3-point formula.
    Displacement size will be 5.00e-03.
    Number of atoms is 2.
    Number of irreps is 4.
    Number of SALCs is 3.
    Translations projected? 1. Rotations projected? 0.
    Index of SALCs per irrep:
     1 :  0 
     2 : 
     3 :  1 
     4 :  2 
    Number of SALCs per irrep:
     Irrep 1: 1
     Irrep 2: 0
     Irrep 3: 1
     Irrep 4: 1
    Number of geometries (including reference) is 5.
    Number of displacements per irrep:
      Irrep 1: 2
      Irrep 2: 0
      Irrep 3: 1
      Irrep 4: 1

  //>>>>>>>>>>>>>>>>>>>>>>>>>>>>>>>>>>>//
  //    Loading displacement 1 of 5    //
  //<<<<<<<<<<<<<<<<<<<<<<<<<<<<<<<<<<<//
gradient() will perform analytic gradient computation.

*** tstart() called on atlantis
*** at Tue Apr 19 00:37:43 2022

   => Loading Basis Set <=

    Name: AUG-CC-PVTZ
    Role: ORBITAL
    Keyword: BASIS
    atoms 1 entry O          line   327 file /home/akrom/software/anaconda3/envs/ffpenv/share/psi4/basis/aug-cc-pvtz.gbs 
    atoms 2 entry C          line   235 file /home/akrom/software/anaconda3/envs/ffpenv/share/psi4/basis/aug-cc-pvtz.gbs 


         ---------------------------------------------------------
                                   SCF
               by Justin Turney, Rob Parrish, Andy Simmonett
                          and Daniel G. A. Smith
                              RKS Reference
                        1 Threads,    500 MiB Core
         ---------------------------------------------------------

  ==> Geometry <==

    Molecular point group: c2v
    Full point group: C_inf_v

    Geometry (in Angstrom), charge = 0, multiplicity = 1:

       Center              X                  Y                   Z               Mass       
    ------------   -----------------  -----------------  -----------------  -----------------
         O            0.000000000000     0.000000000000     0.491523556581    15.994914619570
         C            0.000000000000     0.000000000000    -0.655156443419    12.000000000000

  Running in c2v symmetry.

  Rotational constants: A = ************  B =      1.86994  C =      1.86994 [cm^-1]
  Rotational constants: A = ************  B =  56059.43274  C =  56059.43274 [MHz]
  Nuclear repulsion =   22.151346593783796

  Charge       = 0
  Multiplicity = 1
  Electrons    = 14
  Nalpha       = 7
  Nbeta        = 7

  ==> Algorithm <==

  SCF Algorithm Type is DF.
  DIIS enabled.
  MOM disabled.
  Fractional occupation disabled.
  Guess Type is SAD.
  Energy threshold   = 1.00e-08
  Density threshold  = 1.00e-08
  Integral threshold = 0.00e+00

  ==> Primary Basis <==

  Basis Set: AUG-CC-PVTZ
    Blend: AUG-CC-PVTZ
    Number of shells: 28
    Number of basis function: 92
    Number of Cartesian functions: 110
    Spherical Harmonics?: true
    Max angular momentum: 3

  ==> DFT Potential <==

   => Composite Functional: M06-2X <= 

    Hybrid M06-2X Meta-GGA XC Functional

    Y. Zhao and D. G. Truhlar,  Theor. Chem. Acc., 120, 215, 2008


    Deriv               =              1
    GGA                 =           TRUE
    Meta                =           TRUE

    Exchange Hybrid     =           TRUE
    MP2 Hybrid          =          FALSE

   => Exchange Functionals <=

    1.0000   XC_HYB_MGGA_X_M06_2X

   => Exact (HF) Exchange <=

    0.5400               HF 

   => Correlation Functionals <=

    1.0000   XC_MGGA_C_M06_2X

   => Molecular Quadrature <=

    Radial Scheme          =       TREUTLER
    Pruning Scheme         =           FLAT
    Nuclear Scheme         =       TREUTLER

    BS radius alpha        =              1
    Pruning alpha          =              1
    Radial Points          =             75
    Spherical Points       =            302
    Total Points           =          45300
    Total Blocks           =            420
    Max Points             =            256
    Max Functions          =             92

   => Loading Basis Set <=

    Name: (AUG-CC-PVTZ AUX)
    Role: JKFIT
    Keyword: DF_BASIS_SCF
    atoms 1 entry O          line   286 file /home/akrom/software/anaconda3/envs/ffpenv/share/psi4/basis/aug-cc-pvtz-jkfit.gbs 
    atoms 2 entry C          line   162 file /home/akrom/software/anaconda3/envs/ffpenv/share/psi4/basis/aug-cc-pvtz-jkfit.gbs 

  ==> Pre-Iterations <==

   -------------------------------------------------------
    Irrep   Nso     Nmo     Nalpha   Nbeta   Ndocc  Nsocc
   -------------------------------------------------------
     A1        38      38       0       0       0       0
     A2        10      10       0       0       0       0
     B1        22      22       0       0       0       0
     B2        22      22       0       0       0       0
   -------------------------------------------------------
    Total      92      92       7       7       7       0
   -------------------------------------------------------

  ==> Integral Setup <==

  DFHelper Memory: AOs need 0.015 GiB; user supplied 0.082 GiB. Using in-core AOs.

  ==> MemDFJK: Density-Fitted J/K Matrices <==

    J tasked:                   Yes
    K tasked:                   Yes
    wK tasked:                   No
    OpenMP threads:               1
    Memory [MiB]:                84
    Algorithm:                 Core
    Schwarz Cutoff:           1E-12
    Mask sparsity (%):       0.0000
    Fitting Condition:        1E-10

   => Auxiliary Basis Set <=

  Basis Set: (AUG-CC-PVTZ AUX)
    Blend: AUG-CC-PVTZ-JKFIT
    Number of shells: 60
    Number of basis function: 208
    Number of Cartesian functions: 262
    Spherical Harmonics?: true
    Max angular momentum: 4

  Cached 100.0% of DFT collocation blocks in 0.284 [GiB].

  Minimum eigenvalue in the overlap matrix is 4.8582112806E-04.
  Using Symmetric Orthogonalization.

  SCF Guess: Superposition of Atomic Densities via on-the-fly atomic UHF.

  ==> Iterations <==

                           Total Energy        Delta E     RMS |[F,P]|

   @DF-RKS iter SAD:  -112.63301232738510   -1.12633e+02   0.00000e+00 
   @DF-RKS iter   1:  -113.27954821742794   -6.46536e-01   7.02442e-03 DIIS
   @DF-RKS iter   2:  -113.23376809386291    4.57801e-02   1.01415e-02 DIIS
   @DF-RKS iter   3:  -113.31696881803637   -8.32007e-02   1.28901e-03 DIIS
   @DF-RKS iter   4:  -113.31874426320664   -1.77545e-03   1.33717e-04 DIIS
   @DF-RKS iter   5:  -113.31876030143273   -1.60382e-05   3.23012e-05 DIIS
   @DF-RKS iter   6:  -113.31876124344939   -9.42017e-07   4.65202e-06 DIIS
   @DF-RKS iter   7:  -113.31876126492601   -2.14766e-08   4.19309e-07 DIIS
   @DF-RKS iter   8:  -113.31876126522521   -2.99195e-10   8.19908e-08 DIIS
   @DF-RKS iter   9:  -113.31876126523240   -7.19069e-12   5.43211e-09 DIIS
  Energy and wave function converged.


  ==> Post-Iterations <==

    Orbital Energies [Eh]
    ---------------------

    Doubly Occupied:                                                      

       1A1   -19.738367     2A1   -10.669070     3A1    -1.283834  
       4A1    -0.674957     1B2    -0.550969     1B1    -0.550969  
       5A1    -0.453940  

    Virtual:                                                              

       2B2     0.002846     2B1     0.002846     6A1     0.027433  
       7A1     0.048256     3B2     0.059479     3B1     0.059479  
       8A1     0.131077     4B2     0.142099     4B1     0.142099  
       9A1     0.212526     1A2     0.232520    10A1     0.232520  
      11A1     0.325532     5B2     0.343298     5B1     0.343298  
       6B2     0.412838     6B1     0.412838    12A1     0.418037  
      13A1     0.560267    14A1     0.615167     2A2     0.615168  
      15A1     0.625983     7B2     0.715717     7B1     0.715717  
      16A1     0.853199     3A2     0.900778    17A1     0.900781  
       8B2     0.928435     8B1     0.928435     9B1     0.953014  
       9B2     0.953014    10B2     1.085061    10B1     1.085061  
      18A1     1.110774    19A1     1.148348     4A2     1.148351  
      20A1     1.222720    11B2     1.316399    11B1     1.316399  
      21A1     1.332692    12B2     1.939751    12B1     1.939751  
      22A1     1.947444     5A2     1.947454    13B2     2.073171  
      13B1     2.073171    23A1     2.079560    24A1     2.205187  
      14B2     2.310397    14B1     2.310397    25A1     2.354972  
       6A2     2.354979    26A1     2.407634    15B2     2.715486  
      15B1     2.715486    27A1     3.093971     7A2     3.094040  
      16B2     3.131736    16B1     3.131736    28A1     3.153040  
      17B1     3.287278    17B2     3.287278     8A2     3.414120  
      29A1     3.414126    18B1     3.610080    18B2     3.610080  
      30A1     3.645364    31A1     3.989814    19B2     4.772558  
      19B1     4.772558    32A1     4.852657    20B2     6.025465  
      20B1     6.025465    33A1     6.280755     9A2     6.280798  
      10A2     6.512458    34A1     6.512508    21B2     6.570417  
      21B1     6.570417    35A1     6.673620    22B2     6.905144  
      22B1     6.905144    36A1     7.052093    37A1    11.781531  
      38A1    14.165356  

    Final Occupation by Irrep:
             A1    A2    B1    B2 
    DOCC [     5,    0,    1,    1 ]

  @DF-RKS Final Energy:  -113.31876126523240

   => Energetics <=

    Nuclear Repulsion Energy =             22.1513465937837957
    One-Electron Energy =                -197.5885864323396959
    Two-Electron Energy =                  68.7762888130584571
    DFT Exchange-Correlation Energy =      -6.6578102397349364
    Empirical Dispersion Energy =           0.0000000000000000
    VV10 Nonlocal Energy =                  0.0000000000000000
    Total Energy =                       -113.3187612652323963

Computation Completed


Properties will be evaluated at   0.000000,   0.000000,   0.000000 [a0]

Properties computed using the SCF density matrix

  Nuclear Dipole Moment: [e a0]
     X:     0.0000      Y:     0.0000      Z:     0.0024

  Electronic Dipole Moment: [e a0]
     X:     0.0000      Y:     0.0000      Z:    -0.0314

  Dipole Moment: [e a0]
     X:     0.0000      Y:     0.0000      Z:    -0.0290     Total:     0.0290

  Dipole Moment: [D]
     X:     0.0000      Y:     0.0000      Z:    -0.0737     Total:     0.0737


*** tstop() called on atlantis at Tue Apr 19 00:37:46 2022
Module time:
	user time   =       2.87 seconds =       0.05 minutes
	system time =       0.02 seconds =       0.00 minutes
	total time  =          3 seconds =       0.05 minutes
Total time:
	user time   =       9.18 seconds =       0.15 minutes
	system time =       0.10 seconds =       0.00 minutes
	total time  =          9 seconds =       0.15 minutes

*** tstart() called on atlantis
*** at Tue Apr 19 00:37:46 2022


         ------------------------------------------------------------
                                   SCF GRAD                          
                          Rob Parrish, Justin Turney,                
                       Andy Simmonett, and Alex Sokolov              
         ------------------------------------------------------------

  ==> Geometry <==

    Molecular point group: c2v
    Full point group: C_inf_v

    Geometry (in Angstrom), charge = 0, multiplicity = 1:

       Center              X                  Y                   Z               Mass       
    ------------   -----------------  -----------------  -----------------  -----------------
         O            0.000000000000     0.000000000000     0.491523556581    15.994914619570
         C            0.000000000000     0.000000000000    -0.655156443419    12.000000000000

  Nuclear repulsion =   22.151346593783796

  ==> Basis Set <==

  Basis Set: AUG-CC-PVTZ
    Blend: AUG-CC-PVTZ
    Number of shells: 28
    Number of basis function: 92
    Number of Cartesian functions: 110
    Spherical Harmonics?: true
    Max angular momentum: 3

  ==> DFJKGrad: Density-Fitted SCF Gradients <==

    Gradient:                    1
    J tasked:                  Yes
    K tasked:                  Yes
    wK tasked:                  No
    OpenMP threads:              1
    Integrals threads:           1
    Memory [MiB]:              375
    Schwarz Cutoff:          0E+00
    Fitting Condition:       1E-10

   => Auxiliary Basis Set <=

  Basis Set: (AUG-CC-PVTZ AUX)
    Blend: AUG-CC-PVTZ-JKFIT
    Number of shells: 60
    Number of basis function: 208
    Number of Cartesian functions: 262
    Spherical Harmonics?: true
    Max angular momentum: 4

  ==> DFT Potential <==

   => Composite Functional: M06-2X <= 

    Hybrid M06-2X Meta-GGA XC Functional

    Y. Zhao and D. G. Truhlar,  Theor. Chem. Acc., 120, 215, 2008


    Deriv               =              1
    GGA                 =           TRUE
    Meta                =           TRUE

    Exchange Hybrid     =           TRUE
    MP2 Hybrid          =          FALSE

   => Exchange Functionals <=

    1.0000   XC_HYB_MGGA_X_M06_2X

   => Exact (HF) Exchange <=

    0.5400               HF 

   => Correlation Functionals <=

    1.0000   XC_MGGA_C_M06_2X

   => Molecular Quadrature <=

    Radial Scheme          =       TREUTLER
    Pruning Scheme         =           FLAT
    Nuclear Scheme         =       TREUTLER

    BS radius alpha        =              1
    Pruning alpha          =              1
    Radial Points          =             75
    Spherical Points       =            302
    Total Points           =          45300
    Total Blocks           =            420
    Max Points             =            256
    Max Functions          =             92


  -Total Gradient:
     Atom            X                  Y                   Z
    ------   -----------------  -----------------  -----------------
       1        0.000000000000     0.000000000000     0.058435433719
       2       -0.000000000000    -0.000000000000    -0.058506334517


*** tstop() called on atlantis at Tue Apr 19 00:37:47 2022
Module time:
	user time   =       0.70 seconds =       0.01 minutes
	system time =       0.00 seconds =       0.00 minutes
	total time  =          1 seconds =       0.02 minutes
Total time:
	user time   =       9.88 seconds =       0.16 minutes
	system time =       0.10 seconds =       0.00 minutes
	total time  =         10 seconds =       0.17 minutes

  //>>>>>>>>>>>>>>>>>>>>>>>>>>>>>>>>>>>//
  //    Loading displacement 2 of 5    //
  //<<<<<<<<<<<<<<<<<<<<<<<<<<<<<<<<<<<//
gradient() will perform analytic gradient computation.

*** tstart() called on atlantis
*** at Tue Apr 19 00:37:47 2022

   => Loading Basis Set <=

    Name: AUG-CC-PVTZ
    Role: ORBITAL
    Keyword: BASIS
    atoms 1 entry O          line   327 file /home/akrom/software/anaconda3/envs/ffpenv/share/psi4/basis/aug-cc-pvtz.gbs 
    atoms 2 entry C          line   235 file /home/akrom/software/anaconda3/envs/ffpenv/share/psi4/basis/aug-cc-pvtz.gbs 


         ---------------------------------------------------------
                                   SCF
               by Justin Turney, Rob Parrish, Andy Simmonett
                          and Daniel G. A. Smith
                              RKS Reference
                        1 Threads,    500 MiB Core
         ---------------------------------------------------------

  ==> Geometry <==

    Molecular point group: c2v
    Full point group: C_inf_v

    Geometry (in Angstrom), charge = 0, multiplicity = 1:

       Center              X                  Y                   Z               Mass       
    ------------   -----------------  -----------------  -----------------  -----------------
         O            0.000000000000     0.000000000000     0.491090413658    15.994914619570
         C            0.000000000000     0.000000000000    -0.654579103079    12.000000000000

  Running in c2v symmetry.

  Rotational constants: A = ************  B =      1.87324  C =      1.87324 [cm^-1]
  Rotational constants: A = ************  B =  56158.36546  C =  56158.36546 [MHz]
  Nuclear repulsion =   22.170884134640527

  Charge       = 0
  Multiplicity = 1
  Electrons    = 14
  Nalpha       = 7
  Nbeta        = 7

  ==> Algorithm <==

  SCF Algorithm Type is DF.
  DIIS enabled.
  MOM disabled.
  Fractional occupation disabled.
  Guess Type is SAD.
  Energy threshold   = 1.00e-08
  Density threshold  = 1.00e-08
  Integral threshold = 0.00e+00

  ==> Primary Basis <==

  Basis Set: AUG-CC-PVTZ
    Blend: AUG-CC-PVTZ
    Number of shells: 28
    Number of basis function: 92
    Number of Cartesian functions: 110
    Spherical Harmonics?: true
    Max angular momentum: 3

  ==> DFT Potential <==

   => Composite Functional: M06-2X <= 

    Hybrid M06-2X Meta-GGA XC Functional

    Y. Zhao and D. G. Truhlar,  Theor. Chem. Acc., 120, 215, 2008


    Deriv               =              1
    GGA                 =           TRUE
    Meta                =           TRUE

    Exchange Hybrid     =           TRUE
    MP2 Hybrid          =          FALSE

   => Exchange Functionals <=

    1.0000   XC_HYB_MGGA_X_M06_2X

   => Exact (HF) Exchange <=

    0.5400               HF 

   => Correlation Functionals <=

    1.0000   XC_MGGA_C_M06_2X

   => Molecular Quadrature <=

    Radial Scheme          =       TREUTLER
    Pruning Scheme         =           FLAT
    Nuclear Scheme         =       TREUTLER

    BS radius alpha        =              1
    Pruning alpha          =              1
    Radial Points          =             75
    Spherical Points       =            302
    Total Points           =          45300
    Total Blocks           =            421
    Max Points             =            256
    Max Functions          =             92

   => Loading Basis Set <=

    Name: (AUG-CC-PVTZ AUX)
    Role: JKFIT
    Keyword: DF_BASIS_SCF
    atoms 1 entry O          line   286 file /home/akrom/software/anaconda3/envs/ffpenv/share/psi4/basis/aug-cc-pvtz-jkfit.gbs 
    atoms 2 entry C          line   162 file /home/akrom/software/anaconda3/envs/ffpenv/share/psi4/basis/aug-cc-pvtz-jkfit.gbs 

  ==> Pre-Iterations <==

   -------------------------------------------------------
    Irrep   Nso     Nmo     Nalpha   Nbeta   Ndocc  Nsocc
   -------------------------------------------------------
     A1        38      38       0       0       0       0
     A2        10      10       0       0       0       0
     B1        22      22       0       0       0       0
     B2        22      22       0       0       0       0
   -------------------------------------------------------
    Total      92      92       7       7       7       0
   -------------------------------------------------------

  ==> Integral Setup <==

  DFHelper Memory: AOs need 0.015 GiB; user supplied 0.082 GiB. Using in-core AOs.

  ==> MemDFJK: Density-Fitted J/K Matrices <==

    J tasked:                   Yes
    K tasked:                   Yes
    wK tasked:                   No
    OpenMP threads:               1
    Memory [MiB]:                84
    Algorithm:                 Core
    Schwarz Cutoff:           1E-12
    Mask sparsity (%):       0.0000
    Fitting Condition:        1E-10

   => Auxiliary Basis Set <=

  Basis Set: (AUG-CC-PVTZ AUX)
    Blend: AUG-CC-PVTZ-JKFIT
    Number of shells: 60
    Number of basis function: 208
    Number of Cartesian functions: 262
    Spherical Harmonics?: true
    Max angular momentum: 4

  Cached 100.0% of DFT collocation blocks in 0.284 [GiB].

  Minimum eigenvalue in the overlap matrix is 4.8515855779E-04.
  Using Symmetric Orthogonalization.

  SCF Guess: Superposition of Atomic Densities via on-the-fly atomic UHF.

  ==> Iterations <==

                           Total Energy        Delta E     RMS |[F,P]|

   @DF-RKS iter SAD:  -112.63468300446873   -1.12635e+02   0.00000e+00 
   @DF-RKS iter   1:  -113.27966884391529   -6.44986e-01   7.02570e-03 DIIS
   @DF-RKS iter   2:  -113.23445267253061    4.52162e-02   1.01109e-02 DIIS
   @DF-RKS iter   3:  -113.31707012999341   -8.26175e-02   1.29282e-03 DIIS
   @DF-RKS iter   4:  -113.31885401259191   -1.78388e-03   1.33510e-04 DIIS
   @DF-RKS iter   5:  -113.31886999854979   -1.59860e-05   3.22438e-05 DIIS
   @DF-RKS iter   6:  -113.31887093733513   -9.38785e-07   4.63328e-06 DIIS
   @DF-RKS iter   7:  -113.31887095864055   -2.13054e-08   4.18258e-07 DIIS
   @DF-RKS iter   8:  -113.31887095893754   -2.96993e-10   8.13579e-08 DIIS
   @DF-RKS iter   9:  -113.31887095894456   -7.02016e-12   5.41647e-09 DIIS
  Energy and wave function converged.


  ==> Post-Iterations <==

    Orbital Energies [Eh]
    ---------------------

    Doubly Occupied:                                                      

       1A1   -19.738319     2A1   -10.668684     3A1    -1.284421  
       4A1    -0.674989     1B1    -0.551341     1B2    -0.551341  
       5A1    -0.453847  

    Virtual:                                                              

       2B1     0.003127     2B2     0.003127     6A1     0.027426  
       7A1     0.048282     3B1     0.059573     3B2     0.059573  
       8A1     0.131090     4B1     0.142089     4B2     0.142089  
       9A1     0.212541     1A2     0.232527    10A1     0.232527  
      11A1     0.325611     5B1     0.343407     5B2     0.343407  
       6B1     0.412809     6B2     0.412809    12A1     0.418117  
      13A1     0.560311    14A1     0.615172     2A2     0.615173  
      15A1     0.626890     7B1     0.715782     7B2     0.715782  
      16A1     0.853399     3A2     0.900888    17A1     0.900891  
       8B1     0.928632     8B2     0.928632     9B1     0.953050  
       9B2     0.953050    10B1     1.085015    10B2     1.085015  
      18A1     1.111083    19A1     1.148519     4A2     1.148522  
      20A1     1.222889    11B1     1.316718    11B2     1.316718  
      21A1     1.333191    12B2     1.939914    12B1     1.939914  
      22A1     1.947469     5A2     1.947480    13B1     2.073454  
      13B2     2.073454    23A1     2.080107    24A1     2.205786  
      14B1     2.311438    14B2     2.311438    25A1     2.355435  
       6A2     2.355443    26A1     2.407560    15B1     2.714694  
      15B2     2.714694    27A1     3.094199     7A2     3.094268  
      16B1     3.131872    16B2     3.131872    28A1     3.154116  
      17B2     3.287743    17B1     3.287743     8A2     3.415115  
      29A1     3.415120    18B1     3.610906    18B2     3.610906  
      30A1     3.646826    31A1     3.990435    19B1     4.775183  
      19B2     4.775183    32A1     4.855702    20B1     6.025467  
      20B2     6.025467    33A1     6.281305     9A2     6.281347  
      10A2     6.512557    34A1     6.512606    21B1     6.572124  
      21B2     6.572124    35A1     6.675676    22B1     6.905038  
      22B2     6.905038    36A1     7.053440    37A1    11.789576  
      38A1    14.188661  

    Final Occupation by Irrep:
             A1    A2    B1    B2 
    DOCC [     5,    0,    1,    1 ]

  @DF-RKS Final Energy:  -113.31887095894456

   => Energetics <=

    Nuclear Repulsion Energy =             22.1708841346405272
    One-Electron Energy =                -197.6258344743060320
    Two-Electron Energy =                  68.7943385971799302
    DFT Exchange-Correlation Energy =      -6.6582592164589736
    Empirical Dispersion Energy =           0.0000000000000000
    VV10 Nonlocal Energy =                  0.0000000000000000
    Total Energy =                       -113.3188709589445580

Computation Completed


Properties will be evaluated at   0.000000,   0.000000,   0.000000 [a0]

Properties computed using the SCF density matrix

  Nuclear Dipole Moment: [e a0]
     X:     0.0000      Y:     0.0000      Z:     0.0024

  Electronic Dipole Moment: [e a0]
     X:     0.0000      Y:     0.0000      Z:    -0.0298

  Dipole Moment: [e a0]
     X:     0.0000      Y:     0.0000      Z:    -0.0274     Total:     0.0274

  Dipole Moment: [D]
     X:     0.0000      Y:     0.0000      Z:    -0.0696     Total:     0.0696


*** tstop() called on atlantis at Tue Apr 19 00:37:50 2022
Module time:
	user time   =       2.90 seconds =       0.05 minutes
	system time =       0.02 seconds =       0.00 minutes
	total time  =          3 seconds =       0.05 minutes
Total time:
	user time   =      12.78 seconds =       0.21 minutes
	system time =       0.12 seconds =       0.00 minutes
	total time  =         13 seconds =       0.22 minutes

*** tstart() called on atlantis
*** at Tue Apr 19 00:37:50 2022


         ------------------------------------------------------------
                                   SCF GRAD                          
                          Rob Parrish, Justin Turney,                
                       Andy Simmonett, and Alex Sokolov              
         ------------------------------------------------------------

  ==> Geometry <==

    Molecular point group: c2v
    Full point group: C_inf_v

    Geometry (in Angstrom), charge = 0, multiplicity = 1:

       Center              X                  Y                   Z               Mass       
    ------------   -----------------  -----------------  -----------------  -----------------
         O            0.000000000000     0.000000000000     0.491090413658    15.994914619570
         C            0.000000000000     0.000000000000    -0.654579103079    12.000000000000

  Nuclear repulsion =   22.170884134640527

  ==> Basis Set <==

  Basis Set: AUG-CC-PVTZ
    Blend: AUG-CC-PVTZ
    Number of shells: 28
    Number of basis function: 92
    Number of Cartesian functions: 110
    Spherical Harmonics?: true
    Max angular momentum: 3

  ==> DFJKGrad: Density-Fitted SCF Gradients <==

    Gradient:                    1
    J tasked:                  Yes
    K tasked:                  Yes
    wK tasked:                  No
    OpenMP threads:              1
    Integrals threads:           1
    Memory [MiB]:              375
    Schwarz Cutoff:          0E+00
    Fitting Condition:       1E-10

   => Auxiliary Basis Set <=

  Basis Set: (AUG-CC-PVTZ AUX)
    Blend: AUG-CC-PVTZ-JKFIT
    Number of shells: 60
    Number of basis function: 208
    Number of Cartesian functions: 262
    Spherical Harmonics?: true
    Max angular momentum: 4

  ==> DFT Potential <==

   => Composite Functional: M06-2X <= 

    Hybrid M06-2X Meta-GGA XC Functional

    Y. Zhao and D. G. Truhlar,  Theor. Chem. Acc., 120, 215, 2008


    Deriv               =              1
    GGA                 =           TRUE
    Meta                =           TRUE

    Exchange Hybrid     =           TRUE
    MP2 Hybrid          =          FALSE

   => Exchange Functionals <=

    1.0000   XC_HYB_MGGA_X_M06_2X

   => Exact (HF) Exchange <=

    0.5400               HF 

   => Correlation Functionals <=

    1.0000   XC_MGGA_C_M06_2X

   => Molecular Quadrature <=

    Radial Scheme          =       TREUTLER
    Pruning Scheme         =           FLAT
    Nuclear Scheme         =       TREUTLER

    BS radius alpha        =              1
    Pruning alpha          =              1
    Radial Points          =             75
    Spherical Points       =            302
    Total Points           =          45300
    Total Blocks           =            421
    Max Points             =            256
    Max Functions          =             92


  -Total Gradient:
     Atom            X                  Y                   Z
    ------   -----------------  -----------------  -----------------
       1        0.000000000000    -0.000000000000     0.056288284766
       2        0.000000000000     0.000000000000    -0.056354744136


*** tstop() called on atlantis at Tue Apr 19 00:37:51 2022
Module time:
	user time   =       0.70 seconds =       0.01 minutes
	system time =       0.00 seconds =       0.00 minutes
	total time  =          1 seconds =       0.02 minutes
Total time:
	user time   =      13.48 seconds =       0.22 minutes
	system time =       0.12 seconds =       0.00 minutes
	total time  =         14 seconds =       0.23 minutes

  //>>>>>>>>>>>>>>>>>>>>>>>>>>>>>>>>>>>//
  //    Loading displacement 3 of 5    //
  //<<<<<<<<<<<<<<<<<<<<<<<<<<<<<<<<<<<//
gradient() will perform analytic gradient computation.

*** tstart() called on atlantis
*** at Tue Apr 19 00:37:51 2022

   => Loading Basis Set <=

    Name: AUG-CC-PVTZ
    Role: ORBITAL
    Keyword: BASIS
    atoms 1 entry O          line   327 file /home/akrom/software/anaconda3/envs/ffpenv/share/psi4/basis/aug-cc-pvtz.gbs 
    atoms 2 entry C          line   235 file /home/akrom/software/anaconda3/envs/ffpenv/share/psi4/basis/aug-cc-pvtz.gbs 


         ---------------------------------------------------------
                                   SCF
               by Justin Turney, Rob Parrish, Andy Simmonett
                          and Daniel G. A. Smith
                              RKS Reference
                        1 Threads,    500 MiB Core
         ---------------------------------------------------------

  ==> Geometry <==

    Molecular point group: c2v
    Full point group: C_inf_v

    Geometry (in Angstrom), charge = 0, multiplicity = 1:

       Center              X                  Y                   Z               Mass       
    ------------   -----------------  -----------------  -----------------  -----------------
         O            0.000000000000     0.000000000000     0.491956699505    15.994914619570
         C            0.000000000000     0.000000000000    -0.655733783759    12.000000000000

  Running in c2v symmetry.

  Rotational constants: A = ************  B =      1.86665  C =      1.86665 [cm^-1]
  Rotational constants: A = ************  B =  55960.76123  C =  55960.76123 [MHz]
  Nuclear repulsion =   22.131843456554755

  Charge       = 0
  Multiplicity = 1
  Electrons    = 14
  Nalpha       = 7
  Nbeta        = 7

  ==> Algorithm <==

  SCF Algorithm Type is DF.
  DIIS enabled.
  MOM disabled.
  Fractional occupation disabled.
  Guess Type is SAD.
  Energy threshold   = 1.00e-08
  Density threshold  = 1.00e-08
  Integral threshold = 0.00e+00

  ==> Primary Basis <==

  Basis Set: AUG-CC-PVTZ
    Blend: AUG-CC-PVTZ
    Number of shells: 28
    Number of basis function: 92
    Number of Cartesian functions: 110
    Spherical Harmonics?: true
    Max angular momentum: 3

  ==> DFT Potential <==

   => Composite Functional: M06-2X <= 

    Hybrid M06-2X Meta-GGA XC Functional

    Y. Zhao and D. G. Truhlar,  Theor. Chem. Acc., 120, 215, 2008


    Deriv               =              1
    GGA                 =           TRUE
    Meta                =           TRUE

    Exchange Hybrid     =           TRUE
    MP2 Hybrid          =          FALSE

   => Exchange Functionals <=

    1.0000   XC_HYB_MGGA_X_M06_2X

   => Exact (HF) Exchange <=

    0.5400               HF 

   => Correlation Functionals <=

    1.0000   XC_MGGA_C_M06_2X

   => Molecular Quadrature <=

    Radial Scheme          =       TREUTLER
    Pruning Scheme         =           FLAT
    Nuclear Scheme         =       TREUTLER

    BS radius alpha        =              1
    Pruning alpha          =              1
    Radial Points          =             75
    Spherical Points       =            302
    Total Points           =          45300
    Total Blocks           =            421
    Max Points             =            256
    Max Functions          =             92

   => Loading Basis Set <=

    Name: (AUG-CC-PVTZ AUX)
    Role: JKFIT
    Keyword: DF_BASIS_SCF
    atoms 1 entry O          line   286 file /home/akrom/software/anaconda3/envs/ffpenv/share/psi4/basis/aug-cc-pvtz-jkfit.gbs 
    atoms 2 entry C          line   162 file /home/akrom/software/anaconda3/envs/ffpenv/share/psi4/basis/aug-cc-pvtz-jkfit.gbs 

  ==> Pre-Iterations <==

   -------------------------------------------------------
    Irrep   Nso     Nmo     Nalpha   Nbeta   Ndocc  Nsocc
   -------------------------------------------------------
     A1        38      38       0       0       0       0
     A2        10      10       0       0       0       0
     B1        22      22       0       0       0       0
     B2        22      22       0       0       0       0
   -------------------------------------------------------
    Total      92      92       7       7       7       0
   -------------------------------------------------------

  ==> Integral Setup <==

  DFHelper Memory: AOs need 0.015 GiB; user supplied 0.082 GiB. Using in-core AOs.

  ==> MemDFJK: Density-Fitted J/K Matrices <==

    J tasked:                   Yes
    K tasked:                   Yes
    wK tasked:                   No
    OpenMP threads:               1
    Memory [MiB]:                84
    Algorithm:                 Core
    Schwarz Cutoff:           1E-12
    Mask sparsity (%):       0.0000
    Fitting Condition:        1E-10

   => Auxiliary Basis Set <=

  Basis Set: (AUG-CC-PVTZ AUX)
    Blend: AUG-CC-PVTZ-JKFIT
    Number of shells: 60
    Number of basis function: 208
    Number of Cartesian functions: 262
    Spherical Harmonics?: true
    Max angular momentum: 4

  Cached 100.0% of DFT collocation blocks in 0.284 [GiB].

  Minimum eigenvalue in the overlap matrix is 4.8648567103E-04.
  Using Symmetric Orthogonalization.

  SCF Guess: Superposition of Atomic Densities via on-the-fly atomic UHF.

  ==> Iterations <==

                           Total Energy        Delta E     RMS |[F,P]|

   @DF-RKS iter SAD:  -112.63134277162217   -1.12631e+02   0.00000e+00 
   @DF-RKS iter   1:  -113.27942217810515   -6.48079e-01   7.02325e-03 DIIS
   @DF-RKS iter   2:  -113.23307345697775    4.63487e-02   1.01722e-02 DIIS
   @DF-RKS iter   3:  -113.31686339024675   -8.37899e-02   1.28520e-03 DIIS
   @DF-RKS iter   4:  -113.31863041951073   -1.76703e-03   1.33927e-04 DIIS
   @DF-RKS iter   5:  -113.31864651099318   -1.60915e-05   3.23583e-05 DIIS
   @DF-RKS iter   6:  -113.31864745623099   -9.45238e-07   4.67071e-06 DIIS
   @DF-RKS iter   7:  -113.31864747787930   -2.16483e-08   4.20368e-07 DIIS
   @DF-RKS iter   8:  -113.31864747818065   -3.01355e-10   8.26290e-08 DIIS
   @DF-RKS iter   9:  -113.31864747818769   -7.03437e-12   5.44773e-09 DIIS
  Energy and wave function converged.


  ==> Post-Iterations <==

    Orbital Energies [Eh]
    ---------------------

    Doubly Occupied:                                                      

       1A1   -19.738415     2A1   -10.669457     3A1    -1.283247  
       4A1    -0.674926     1B1    -0.550597     1B2    -0.550597  
       5A1    -0.454032  

    Virtual:                                                              

       2B1     0.002564     2B2     0.002564     6A1     0.027439  
       7A1     0.048231     3B1     0.059387     3B2     0.059387  
       8A1     0.131065     4B1     0.142110     4B2     0.142110  
       9A1     0.212511     1A2     0.232512    10A1     0.232512  
      11A1     0.325452     5B2     0.343189     5B1     0.343189  
       6B2     0.412868     6B1     0.412868    12A1     0.417957  
      13A1     0.560223    14A1     0.615162     2A2     0.615163  
      15A1     0.625075     7B1     0.715651     7B2     0.715651  
      16A1     0.853003     3A2     0.900668    17A1     0.900671  
       8B2     0.928237     8B1     0.928237     9B2     0.952977  
       9B1     0.952977    10B1     1.085106    10B2     1.085106  
      18A1     1.110465    19A1     1.148176     4A2     1.148180  
      20A1     1.222546    11B2     1.316081    11B1     1.316081  
      21A1     1.332204    12B2     1.939589    12B1     1.939589  
      22A1     1.947418     5A2     1.947429    13B1     2.072886  
      13B2     2.072886    23A1     2.079012    24A1     2.204587  
      14B1     2.309358    14B2     2.309358    25A1     2.354508  
       6A2     2.354516    26A1     2.407715    15B1     2.716276  
      15B2     2.716276    27A1     3.093744     7A2     3.093813  
      16B2     3.131600    16B1     3.131600    28A1     3.151962  
      17B2     3.286814    17B1     3.286814     8A2     3.413128  
      29A1     3.413135    18B1     3.609257    18B2     3.609257  
      30A1     3.643905    31A1     3.989184    19B1     4.769931  
      19B2     4.769931    32A1     4.849630    20B1     6.025463  
      20B2     6.025463    33A1     6.280207     9A2     6.280251  
      10A2     6.512360    34A1     6.512410    21B2     6.568717  
      21B1     6.568717    35A1     6.671576    22B1     6.905246  
      22B2     6.905246    36A1     7.050751    37A1    11.773439  
      38A1    14.142150  

    Final Occupation by Irrep:
             A1    A2    B1    B2 
    DOCC [     5,    0,    1,    1 ]

  @DF-RKS Final Energy:  -113.31864747818769

   => Energetics <=

    Nuclear Repulsion Energy =             22.1318434565547548
    One-Electron Energy =                -197.5513969106103787
    Two-Electron Energy =                  68.7582683507480255
    DFT Exchange-Correlation Energy =      -6.6573623748800754
    Empirical Dispersion Energy =           0.0000000000000000
    VV10 Nonlocal Energy =                  0.0000000000000000
    Total Energy =                       -113.3186474781876854

Computation Completed


Properties will be evaluated at   0.000000,   0.000000,   0.000000 [a0]

Properties computed using the SCF density matrix

  Nuclear Dipole Moment: [e a0]
     X:     0.0000      Y:     0.0000      Z:     0.0024

  Electronic Dipole Moment: [e a0]
     X:     0.0000      Y:     0.0000      Z:    -0.0330

  Dipole Moment: [e a0]
     X:     0.0000      Y:     0.0000      Z:    -0.0306     Total:     0.0306

  Dipole Moment: [D]
     X:     0.0000      Y:     0.0000      Z:    -0.0778     Total:     0.0778


*** tstop() called on atlantis at Tue Apr 19 00:37:53 2022
Module time:
	user time   =       2.88 seconds =       0.05 minutes
	system time =       0.02 seconds =       0.00 minutes
	total time  =          2 seconds =       0.03 minutes
Total time:
	user time   =      16.36 seconds =       0.27 minutes
	system time =       0.14 seconds =       0.00 minutes
	total time  =         16 seconds =       0.27 minutes

*** tstart() called on atlantis
*** at Tue Apr 19 00:37:53 2022


         ------------------------------------------------------------
                                   SCF GRAD                          
                          Rob Parrish, Justin Turney,                
                       Andy Simmonett, and Alex Sokolov              
         ------------------------------------------------------------

  ==> Geometry <==

    Molecular point group: c2v
    Full point group: C_inf_v

    Geometry (in Angstrom), charge = 0, multiplicity = 1:

       Center              X                  Y                   Z               Mass       
    ------------   -----------------  -----------------  -----------------  -----------------
         O            0.000000000000     0.000000000000     0.491956699505    15.994914619570
         C            0.000000000000     0.000000000000    -0.655733783759    12.000000000000

  Nuclear repulsion =   22.131843456554755

  ==> Basis Set <==

  Basis Set: AUG-CC-PVTZ
    Blend: AUG-CC-PVTZ
    Number of shells: 28
    Number of basis function: 92
    Number of Cartesian functions: 110
    Spherical Harmonics?: true
    Max angular momentum: 3

  ==> DFJKGrad: Density-Fitted SCF Gradients <==

    Gradient:                    1
    J tasked:                  Yes
    K tasked:                  Yes
    wK tasked:                  No
    OpenMP threads:              1
    Integrals threads:           1
    Memory [MiB]:              375
    Schwarz Cutoff:          0E+00
    Fitting Condition:       1E-10

   => Auxiliary Basis Set <=

  Basis Set: (AUG-CC-PVTZ AUX)
    Blend: AUG-CC-PVTZ-JKFIT
    Number of shells: 60
    Number of basis function: 208
    Number of Cartesian functions: 262
    Spherical Harmonics?: true
    Max angular momentum: 4

  ==> DFT Potential <==

   => Composite Functional: M06-2X <= 

    Hybrid M06-2X Meta-GGA XC Functional

    Y. Zhao and D. G. Truhlar,  Theor. Chem. Acc., 120, 215, 2008


    Deriv               =              1
    GGA                 =           TRUE
    Meta                =           TRUE

    Exchange Hybrid     =           TRUE
    MP2 Hybrid          =          FALSE

   => Exchange Functionals <=

    1.0000   XC_HYB_MGGA_X_M06_2X

   => Exact (HF) Exchange <=

    0.5400               HF 

   => Correlation Functionals <=

    1.0000   XC_MGGA_C_M06_2X

   => Molecular Quadrature <=

    Radial Scheme          =       TREUTLER
    Pruning Scheme         =           FLAT
    Nuclear Scheme         =       TREUTLER

    BS radius alpha        =              1
    Pruning alpha          =              1
    Radial Points          =             75
    Spherical Points       =            302
    Total Points           =          45300
    Total Blocks           =            421
    Max Points             =            256
    Max Functions          =             92


  -Total Gradient:
     Atom            X                  Y                   Z
    ------   -----------------  -----------------  -----------------
       1       -0.000000000000     0.000000000000     0.060567746433
       2        0.000000000000     0.000000000000    -0.060642231458


*** tstop() called on atlantis at Tue Apr 19 00:37:54 2022
Module time:
	user time   =       0.69 seconds =       0.01 minutes
	system time =       0.00 seconds =       0.00 minutes
	total time  =          1 seconds =       0.02 minutes
Total time:
	user time   =      17.05 seconds =       0.28 minutes
	system time =       0.14 seconds =       0.00 minutes
	total time  =         17 seconds =       0.28 minutes

  //>>>>>>>>>>>>>>>>>>>>>>>>>>>>>>>>>>>//
  //    Loading displacement 4 of 5    //
  //<<<<<<<<<<<<<<<<<<<<<<<<<<<<<<<<<<<//
gradient() will perform analytic gradient computation.

*** tstart() called on atlantis
*** at Tue Apr 19 00:37:54 2022

   => Loading Basis Set <=

    Name: AUG-CC-PVTZ
    Role: ORBITAL
    Keyword: BASIS
    atoms 1 entry O          line   327 file /home/akrom/software/anaconda3/envs/ffpenv/share/psi4/basis/aug-cc-pvtz.gbs 
    atoms 2 entry C          line   235 file /home/akrom/software/anaconda3/envs/ffpenv/share/psi4/basis/aug-cc-pvtz.gbs 


         ---------------------------------------------------------
                                   SCF
               by Justin Turney, Rob Parrish, Andy Simmonett
                          and Daniel G. A. Smith
                              RKS Reference
                        1 Threads,    500 MiB Core
         ---------------------------------------------------------

  ==> Geometry <==

    Molecular point group: cs
    Full point group: C_inf_v

    Geometry (in Angstrom), charge = 0, multiplicity = 1:

       Center              X                  Y                   Z               Mass       
    ------------   -----------------  -----------------  -----------------  -----------------
         O           -0.000433142923     0.000000000000     0.491523556581    15.994914619570
         C            0.000577340340     0.000000000000    -0.655156443419    12.000000000000

  Running in cs symmetry.

  Rotational constants: A = ************  B =      1.86994  C =      1.86994 [cm^-1]
  Rotational constants: A = ************  B =  56059.38921  C =  56059.38921 [MHz]
  Nuclear repulsion =   22.151337992888561

  Charge       = 0
  Multiplicity = 1
  Electrons    = 14
  Nalpha       = 7
  Nbeta        = 7

  ==> Algorithm <==

  SCF Algorithm Type is DF.
  DIIS enabled.
  MOM disabled.
  Fractional occupation disabled.
  Guess Type is SAD.
  Energy threshold   = 1.00e-08
  Density threshold  = 1.00e-08
  Integral threshold = 0.00e+00

  ==> Primary Basis <==

  Basis Set: AUG-CC-PVTZ
    Blend: AUG-CC-PVTZ
    Number of shells: 28
    Number of basis function: 92
    Number of Cartesian functions: 110
    Spherical Harmonics?: true
    Max angular momentum: 3

  ==> DFT Potential <==

   => Composite Functional: M06-2X <= 

    Hybrid M06-2X Meta-GGA XC Functional

    Y. Zhao and D. G. Truhlar,  Theor. Chem. Acc., 120, 215, 2008


    Deriv               =              1
    GGA                 =           TRUE
    Meta                =           TRUE

    Exchange Hybrid     =           TRUE
    MP2 Hybrid          =          FALSE

   => Exchange Functionals <=

    1.0000   XC_HYB_MGGA_X_M06_2X

   => Exact (HF) Exchange <=

    0.5400               HF 

   => Correlation Functionals <=

    1.0000   XC_MGGA_C_M06_2X

   => Molecular Quadrature <=

    Radial Scheme          =       TREUTLER
    Pruning Scheme         =           FLAT
    Nuclear Scheme         =       TREUTLER

    BS radius alpha        =              1
    Pruning alpha          =              1
    Radial Points          =             75
    Spherical Points       =            302
    Total Points           =          45300
    Total Blocks           =            411
    Max Points             =            253
    Max Functions          =             92

   => Loading Basis Set <=

    Name: (AUG-CC-PVTZ AUX)
    Role: JKFIT
    Keyword: DF_BASIS_SCF
    atoms 1 entry O          line   286 file /home/akrom/software/anaconda3/envs/ffpenv/share/psi4/basis/aug-cc-pvtz-jkfit.gbs 
    atoms 2 entry C          line   162 file /home/akrom/software/anaconda3/envs/ffpenv/share/psi4/basis/aug-cc-pvtz-jkfit.gbs 

  ==> Pre-Iterations <==

   -------------------------------------------------------
    Irrep   Nso     Nmo     Nalpha   Nbeta   Ndocc  Nsocc
   -------------------------------------------------------
     A'        60      60       0       0       0       0
     A"        32      32       0       0       0       0
   -------------------------------------------------------
    Total      92      92       7       7       7       0
   -------------------------------------------------------

  ==> Integral Setup <==

  DFHelper Memory: AOs need 0.015 GiB; user supplied 0.082 GiB. Using in-core AOs.

  ==> MemDFJK: Density-Fitted J/K Matrices <==

    J tasked:                   Yes
    K tasked:                   Yes
    wK tasked:                   No
    OpenMP threads:               1
    Memory [MiB]:                84
    Algorithm:                 Core
    Schwarz Cutoff:           1E-12
    Mask sparsity (%):       0.0000
    Fitting Condition:        1E-10

   => Auxiliary Basis Set <=

  Basis Set: (AUG-CC-PVTZ AUX)
    Blend: AUG-CC-PVTZ-JKFIT
    Number of shells: 60
    Number of basis function: 208
    Number of Cartesian functions: 262
    Spherical Harmonics?: true
    Max angular momentum: 4

  Cached 100.0% of DFT collocation blocks in 0.284 [GiB].

  Minimum eigenvalue in the overlap matrix is 4.8582142044E-04.
  Using Symmetric Orthogonalization.

  SCF Guess: Superposition of Atomic Densities via on-the-fly atomic UHF.

  ==> Iterations <==

                           Total Energy        Delta E     RMS |[F,P]|

   @DF-RKS iter SAD:  -112.63301159152509   -1.12633e+02   0.00000e+00 
   @DF-RKS iter   1:  -113.27954816309837   -6.46537e-01   5.17739e-03 DIIS
   @DF-RKS iter   2:  -113.23376779002963    4.57804e-02   7.47485e-03 DIIS
   @DF-RKS iter   3:  -113.31696877250310   -8.32010e-02   9.50071e-04 DIIS
   @DF-RKS iter   4:  -113.31874421396057   -1.77544e-03   9.85572e-05 DIIS
   @DF-RKS iter   5:  -113.31876025220981   -1.60382e-05   2.38078e-05 DIIS
   @DF-RKS iter   6:  -113.31876119422779   -9.42018e-07   3.42881e-06 DIIS
   @DF-RKS iter   7:  -113.31876121570471   -2.14769e-08   3.09054e-07 DIIS
   @DF-RKS iter   8:  -113.31876121600364   -2.98925e-10   6.04320e-08 DIIS
   @DF-RKS iter   9:  -113.31876121601071   -7.07701e-12   4.00378e-09 DIIS
  Energy and wave function converged.


  ==> Post-Iterations <==

    Orbital Energies [Eh]
    ---------------------

    Doubly Occupied:                                                      

       1Ap   -19.738367     2Ap   -10.669071     3Ap    -1.283833  
       4Ap    -0.674957     1App   -0.550969     5Ap    -0.550969  
       6Ap    -0.453940  

    Virtual:                                                              

       7Ap     0.002846     2App    0.002846     8Ap     0.027433  
       9Ap     0.048256    10Ap     0.059479     3App    0.059479  
      11Ap     0.131077     4App    0.142099    12Ap     0.142099  
      13Ap     0.212526     5App    0.232520    14Ap     0.232520  
      15Ap     0.325532     6App    0.343298    16Ap     0.343298  
       7App    0.412838    17Ap     0.412838    18Ap     0.418037  
      19Ap     0.560267    20Ap     0.615167     8App    0.615168  
      21Ap     0.625983     9App    0.715717    22Ap     0.715717  
      23Ap     0.853199    10App    0.900778    24Ap     0.900781  
      11App    0.928435    25Ap     0.928435    12App    0.953014  
      26Ap     0.953014    13App    1.085061    27Ap     1.085061  
      28Ap     1.110774    29Ap     1.148348    14App    1.148351  
      30Ap     1.222720    15App    1.316399    31Ap     1.316399  
      32Ap     1.332692    16App    1.939751    33Ap     1.939751  
      34Ap     1.947444    17App    1.947454    18App    2.073170  
      35Ap     2.073170    36Ap     2.079560    37Ap     2.205187  
      38Ap     2.310396    19App    2.310396    39Ap     2.354972  
      20App    2.354979    40Ap     2.407634    21App    2.715486  
      41Ap     2.715486    42Ap     3.093971    22App    3.094040  
      43Ap     3.131736    23App    3.131736    44Ap     3.153039  
      45Ap     3.287278    24App    3.287278    25App    3.414120  
      46Ap     3.414126    26App    3.610080    47Ap     3.610080  
      48Ap     3.645364    49Ap     3.989814    50Ap     4.772556  
      27App    4.772556    51Ap     4.852656    52Ap     6.025465  
      28App    6.025465    53Ap     6.280755    29App    6.280798  
      30App    6.512458    54Ap     6.512508    31App    6.570416  
      55Ap     6.570416    56Ap     6.673619    57Ap     6.905144  
      32App    6.905144    58Ap     7.052093    59Ap    11.781528  
      60Ap    14.165346  

    Final Occupation by Irrep:
             Ap   App 
    DOCC [     6,    1 ]

  @DF-RKS Final Energy:  -113.31876121601071

   => Energetics <=

    Nuclear Repulsion Energy =             22.1513379928885605
    One-Electron Energy =                -197.5885700332910915
    Two-Electron Energy =                  68.7762808665469834
    DFT Exchange-Correlation Energy =      -6.6578100421551616
    Empirical Dispersion Energy =           0.0000000000000000
    VV10 Nonlocal Energy =                  0.0000000000000000
    Total Energy =                       -113.3187612160107136

Computation Completed


Properties will be evaluated at   0.000000,   0.000000,   0.000000 [a0]

Properties computed using the SCF density matrix

  Nuclear Dipole Moment: [e a0]
     X:    -0.0000      Y:     0.0000      Z:     0.0024

  Electronic Dipole Moment: [e a0]
     X:     0.0000      Y:     0.0000      Z:    -0.0314

  Dipole Moment: [e a0]
     X:     0.0000      Y:     0.0000      Z:    -0.0290     Total:     0.0290

  Dipole Moment: [D]
     X:     0.0001      Y:     0.0000      Z:    -0.0737     Total:     0.0737


*** tstop() called on atlantis at Tue Apr 19 00:37:57 2022
Module time:
	user time   =       2.85 seconds =       0.05 minutes
	system time =       0.00 seconds =       0.00 minutes
	total time  =          3 seconds =       0.05 minutes
Total time:
	user time   =      19.91 seconds =       0.33 minutes
	system time =       0.14 seconds =       0.00 minutes
	total time  =         20 seconds =       0.33 minutes

*** tstart() called on atlantis
*** at Tue Apr 19 00:37:57 2022


         ------------------------------------------------------------
                                   SCF GRAD                          
                          Rob Parrish, Justin Turney,                
                       Andy Simmonett, and Alex Sokolov              
         ------------------------------------------------------------

  ==> Geometry <==

    Molecular point group: cs
    Full point group: C_inf_v

    Geometry (in Angstrom), charge = 0, multiplicity = 1:

       Center              X                  Y                   Z               Mass       
    ------------   -----------------  -----------------  -----------------  -----------------
         O           -0.000433142923     0.000000000000     0.491523556581    15.994914619570
         C            0.000577340340     0.000000000000    -0.655156443419    12.000000000000

  Nuclear repulsion =   22.151337992888561

  ==> Basis Set <==

  Basis Set: AUG-CC-PVTZ
    Blend: AUG-CC-PVTZ
    Number of shells: 28
    Number of basis function: 92
    Number of Cartesian functions: 110
    Spherical Harmonics?: true
    Max angular momentum: 3

  ==> DFJKGrad: Density-Fitted SCF Gradients <==

    Gradient:                    1
    J tasked:                  Yes
    K tasked:                  Yes
    wK tasked:                  No
    OpenMP threads:              1
    Integrals threads:           1
    Memory [MiB]:              375
    Schwarz Cutoff:          0E+00
    Fitting Condition:       1E-10

   => Auxiliary Basis Set <=

  Basis Set: (AUG-CC-PVTZ AUX)
    Blend: AUG-CC-PVTZ-JKFIT
    Number of shells: 60
    Number of basis function: 208
    Number of Cartesian functions: 262
    Spherical Harmonics?: true
    Max angular momentum: 4

  ==> DFT Potential <==

   => Composite Functional: M06-2X <= 

    Hybrid M06-2X Meta-GGA XC Functional

    Y. Zhao and D. G. Truhlar,  Theor. Chem. Acc., 120, 215, 2008


    Deriv               =              1
    GGA                 =           TRUE
    Meta                =           TRUE

    Exchange Hybrid     =           TRUE
    MP2 Hybrid          =          FALSE

   => Exchange Functionals <=

    1.0000   XC_HYB_MGGA_X_M06_2X

   => Exact (HF) Exchange <=

    0.5400               HF 

   => Correlation Functionals <=

    1.0000   XC_MGGA_C_M06_2X

   => Molecular Quadrature <=

    Radial Scheme          =       TREUTLER
    Pruning Scheme         =           FLAT
    Nuclear Scheme         =       TREUTLER

    BS radius alpha        =              1
    Pruning alpha          =              1
    Radial Points          =             75
    Spherical Points       =            302
    Total Points           =          45300
    Total Blocks           =            411
    Max Points             =            253
[...]

       Center              X                  Y                   Z               Mass       
    ------------   -----------------  -----------------  -----------------  -----------------
         O            0.000000000000    -0.000433142923     0.491523556581    15.994914619570
         C            0.000000000000     0.000577340340    -0.655156443419    12.000000000000

  Running in cs symmetry.

  Rotational constants: A = ************  B =      1.86994  C =      1.86994 [cm^-1]
  Rotational constants: A = ************  B =  56059.38921  C =  56059.38921 [MHz]
  Nuclear repulsion =   22.151337992888561

  Charge       = 0
  Multiplicity = 1
  Electrons    = 14
  Nalpha       = 7
  Nbeta        = 7

  ==> Algorithm <==

  SCF Algorithm Type is DF.
  DIIS enabled.
  MOM disabled.
  Fractional occupation disabled.
  Guess Type is SAD.
  Energy threshold   = 1.00e-08
  Density threshold  = 1.00e-08
  Integral threshold = 0.00e+00

  ==> Primary Basis <==

  Basis Set: AUG-CC-PVTZ
    Blend: AUG-CC-PVTZ
    Number of shells: 28
    Number of basis function: 92
    Number of Cartesian functions: 110
    Spherical Harmonics?: true
    Max angular momentum: 3

  ==> DFT Potential <==

   => Composite Functional: M06-2X <= 

    Hybrid M06-2X Meta-GGA XC Functional

    Y. Zhao and D. G. Truhlar,  Theor. Chem. Acc., 120, 215, 2008


    Deriv               =              1
    GGA                 =           TRUE
    Meta                =           TRUE

    Exchange Hybrid     =           TRUE
    MP2 Hybrid          =          FALSE

   => Exchange Functionals <=

    1.0000   XC_HYB_MGGA_X_M06_2X

   => Exact (HF) Exchange <=

    0.5400               HF 

   => Correlation Functionals <=

    1.0000   XC_MGGA_C_M06_2X

   => Molecular Quadrature <=

    Radial Scheme          =       TREUTLER
    Pruning Scheme         =           FLAT
    Nuclear Scheme         =       TREUTLER

    BS radius alpha        =              1
    Pruning alpha          =              1
    Radial Points          =             75
    Spherical Points       =            302
    Total Points           =          45300
    Total Blocks           =            408
    Max Points             =            253
    Max Functions          =             92

   => Loading Basis Set <=

    Name: (AUG-CC-PVTZ AUX)
    Role: JKFIT
    Keyword: DF_BASIS_SCF
    atoms 1 entry O          line   286 file /home/akrom/software/anaconda3/envs/ffpenv/share/psi4/basis/aug-cc-pvtz-jkfit.gbs 
    atoms 2 entry C          line   162 file /home/akrom/software/anaconda3/envs/ffpenv/share/psi4/basis/aug-cc-pvtz-jkfit.gbs 

  ==> Pre-Iterations <==

   -------------------------------------------------------
    Irrep   Nso     Nmo     Nalpha   Nbeta   Ndocc  Nsocc
   -------------------------------------------------------
     A'        60      60       0       0       0       0
     A"        32      32       0       0       0       0
   -------------------------------------------------------
    Total      92      92       7       7       7       0
   -------------------------------------------------------

  ==> Integral Setup <==

  DFHelper Memory: AOs need 0.015 GiB; user supplied 0.082 GiB. Using in-core AOs.

  ==> MemDFJK: Density-Fitted J/K Matrices <==

    J tasked:                   Yes
    K tasked:                   Yes
    wK tasked:                   No
    OpenMP threads:               1
    Memory [MiB]:                84
    Algorithm:                 Core
    Schwarz Cutoff:           1E-12
    Mask sparsity (%):       0.0000
    Fitting Condition:        1E-10

   => Auxiliary Basis Set <=

  Basis Set: (AUG-CC-PVTZ AUX)
    Blend: AUG-CC-PVTZ-JKFIT
    Number of shells: 60
    Number of basis function: 208
    Number of Cartesian functions: 262
    Spherical Harmonics?: true
    Max angular momentum: 4

  Cached 100.0% of DFT collocation blocks in 0.284 [GiB].

  Minimum eigenvalue in the overlap matrix is 4.8582142044E-04.
  Using Symmetric Orthogonalization.

  SCF Guess: Superposition of Atomic Densities via on-the-fly atomic UHF.

  ==> Iterations <==

                           Total Energy        Delta E     RMS |[F,P]|

   @DF-RKS iter SAD:  -112.63301159151443   -1.12633e+02   0.00000e+00 
   @DF-RKS iter   1:  -113.27954816308758   -6.46537e-01   5.17739e-03 DIIS
   @DF-RKS iter   2:  -113.23376779001893    4.57804e-02   7.47485e-03 DIIS
   @DF-RKS iter   3:  -113.31696877249212   -8.32010e-02   9.50071e-04 DIIS
   @DF-RKS iter   4:  -113.31874421394964   -1.77544e-03   9.85572e-05 DIIS
   @DF-RKS iter   5:  -113.31876025219883   -1.60382e-05   2.38078e-05 DIIS
   @DF-RKS iter   6:  -113.31876119421675   -9.42018e-07   3.42881e-06 DIIS
   @DF-RKS iter   7:  -113.31876121569360   -2.14769e-08   3.09054e-07 DIIS
   @DF-RKS iter   8:  -113.31876121599265   -2.99053e-10   6.04320e-08 DIIS
   @DF-RKS iter   9:  -113.31876121599981   -7.16227e-12   4.00378e-09 DIIS
  Energy and wave function converged.


  ==> Post-Iterations <==

    Orbital Energies [Eh]
    ---------------------

    Doubly Occupied:                                                      

       1Ap   -19.738367     2Ap   -10.669071     3Ap    -1.283833  
       4Ap    -0.674957     1App   -0.550969     5Ap    -0.550969  
       6Ap    -0.453940  

    Virtual:                                                              

       2App    0.002846     7Ap     0.002846     8Ap     0.027433  
       9Ap     0.048256    10Ap     0.059479     3App    0.059479  
      11Ap     0.131077     4App    0.142099    12Ap     0.142099  
      13Ap     0.212526     5App    0.232520    14Ap     0.232520  
      15Ap     0.325532     6App    0.343298    16Ap     0.343298  
       7App    0.412838    17Ap     0.412838    18Ap     0.418037  
      19Ap     0.560267    20Ap     0.615167     8App    0.615168  
      21Ap     0.625983     9App    0.715717    22Ap     0.715717  
      23Ap     0.853199    10App    0.900778    24Ap     0.900781  
      11App    0.928435    25Ap     0.928435    12App    0.953014  
      26Ap     0.953014    27Ap     1.085061    13App    1.085061  
      28Ap     1.110774    29Ap     1.148348    14App    1.148351  
      30Ap     1.222720    31Ap     1.316399    15App    1.316399  
      32Ap     1.332692    16App    1.939751    33Ap     1.939751  
      34Ap     1.947444    17App    1.947454    18App    2.073170  
      35Ap     2.073170    36Ap     2.079560    37Ap     2.205187  
      19App    2.310396    38Ap     2.310396    39Ap     2.354972  
      20App    2.354979    40Ap     2.407634    41Ap     2.715486  
      21App    2.715486    42Ap     3.093971    22App    3.094040  
      23App    3.131736    43Ap     3.131736    44Ap     3.153039  
      45Ap     3.287278    24App    3.287278    25App    3.414120  
      46Ap     3.414126    26App    3.610080    47Ap     3.610080  
      48Ap     3.645364    49Ap     3.989814    50Ap     4.772556  
      27App    4.772556    51Ap     4.852656    52Ap     6.025465  
      28App    6.025465    53Ap     6.280755    29App    6.280798  
      30App    6.512458    54Ap     6.512508    31App    6.570416  
      55Ap     6.570416    56Ap     6.673619    57Ap     6.905144  
      32App    6.905144    58Ap     7.052093    59Ap    11.781528  
      60Ap    14.165346  

    Final Occupation by Irrep:
             Ap   App 
    DOCC [     6,    1 ]

  @DF-RKS Final Energy:  -113.31876121599981

   => Energetics <=

    Nuclear Repulsion Energy =             22.1513379928885605
    One-Electron Energy =                -197.5885700332886472
    Two-Electron Energy =                  68.7762808665550835
    DFT Exchange-Correlation Energy =      -6.6578100421548019
    Empirical Dispersion Energy =           0.0000000000000000
    VV10 Nonlocal Energy =                  0.0000000000000000
    Total Energy =                       -113.3187612159998139

Computation Completed


Properties will be evaluated at   0.000000,   0.000000,   0.000000 [a0]

Properties computed using the SCF density matrix

  Nuclear Dipole Moment: [e a0]
     X:     0.0000      Y:    -0.0000      Z:     0.0024

  Electronic Dipole Moment: [e a0]
     X:     0.0000      Y:     0.0000      Z:    -0.0314

  Dipole Moment: [e a0]
     X:     0.0000      Y:     0.0000      Z:    -0.0290     Total:     0.0290

  Dipole Moment: [D]
     X:     0.0000      Y:     0.0001      Z:    -0.0737     Total:     0.0737


*** tstop() called on atlantis at Tue Apr 19 00:38:01 2022
Module time:
	user time   =       2.88 seconds =       0.05 minutes
	system time =       0.01 seconds =       0.00 minutes
	total time  =          3 seconds =       0.05 minutes
Total time:
	user time   =      23.48 seconds =       0.39 minutes
	system time =       0.15 seconds =       0.00 minutes
	total time  =         24 seconds =       0.40 minutes

*** tstart() called on atlantis
*** at Tue Apr 19 00:38:01 2022


         ------------------------------------------------------------
                                   SCF GRAD                          
                          Rob Parrish, Justin Turney,                
                       Andy Simmonett, and Alex Sokolov              
         ------------------------------------------------------------

  ==> Geometry <==

    Molecular point group: cs
    Full point group: C_inf_v

    Geometry (in Angstrom), charge = 0, multiplicity = 1:

       Center              X                  Y                   Z               Mass       
    ------------   -----------------  -----------------  -----------------  -----------------
         O            0.000000000000    -0.000433142923     0.491523556581    15.994914619570
         C            0.000000000000     0.000577340340    -0.655156443419    12.000000000000

  Nuclear repulsion =   22.151337992888561

  ==> Basis Set <==

  Basis Set: AUG-CC-PVTZ
    Blend: AUG-CC-PVTZ
    Number of shells: 28
    Number of basis function: 92
    Number of Cartesian functions: 110
    Spherical Harmonics?: true
    Max angular momentum: 3

  ==> DFJKGrad: Density-Fitted SCF Gradients <==

    Gradient:                    1
    J tasked:                  Yes
    K tasked:                  Yes
    wK tasked:                  No
    OpenMP threads:              1
    Integrals threads:           1
    Memory [MiB]:              375
    Schwarz Cutoff:          0E+00
    Fitting Condition:       1E-10

   => Auxiliary Basis Set <=

  Basis Set: (AUG-CC-PVTZ AUX)
    Blend: AUG-CC-PVTZ-JKFIT
    Number of shells: 60
    Number of basis function: 208
    Number of Cartesian functions: 262
    Spherical Harmonics?: true
    Max angular momentum: 4

  ==> DFT Potential <==

   => Composite Functional: M06-2X <= 

    Hybrid M06-2X Meta-GGA XC Functional

    Y. Zhao and D. G. Truhlar,  Theor. Chem. Acc., 120, 215, 2008


    Deriv               =              1
    GGA                 =           TRUE
    Meta                =           TRUE

    Exchange Hybrid     =           TRUE
    MP2 Hybrid          =          FALSE

   => Exchange Functionals <=

    1.0000   XC_HYB_MGGA_X_M06_2X

   => Exact (HF) Exchange <=

    0.5400               HF 

   => Correlation Functionals <=

    1.0000   XC_MGGA_C_M06_2X

   => Molecular Quadrature <=

    Radial Scheme          =       TREUTLER
    Pruning Scheme         =           FLAT
    Nuclear Scheme         =       TREUTLER

    BS radius alpha        =              1
    Pruning alpha          =              1
    Radial Points          =             75
    Spherical Points       =            302
    Total Points           =          45300
    Total Blocks           =            408
    Max Points             =            253
    Max Functions          =             92


  -Total Gradient:
     Atom            X                  Y                   Z
    ------   -----------------  -----------------  -----------------
       1        0.000000000000    -0.000051495584     0.058436352886
       2        0.000000000000     0.000051558065    -0.058507255424


*** tstop() called on atlantis at Tue Apr 19 00:38:01 2022
Module time:
	user time   =       0.69 seconds =       0.01 minutes
	system time =       0.00 seconds =       0.00 minutes
	total time  =          0 seconds =       0.00 minutes
Total time:
	user time   =      24.17 seconds =       0.40 minutes
	system time =       0.15 seconds =       0.00 minutes
	total time  =         24 seconds =       0.40 minutes

         ----------------------------------------------------------
                                   FINDIF
                     R. A. King and Jonathon Misiewicz
         ---------------------------------------------------------

  Computing second-derivative from gradients using projected, 
  symmetry-adapted, cartesian coordinates.

  5 gradients passed in, including the reference geometry.
  Generating complete list of displacements from unique ones.

    Operation 2 takes plus displacements of irrep B1 to minus ones.
    Operation 2 takes plus displacements of irrep B2 to minus ones.

-------------------------------------------------------------


  ==> Harmonic Vibrational Analysis <==

  non-mass-weighted Hessian:       Symmetric? True   Hermitian? True   Lin Dep Dim?  3 (0)
  projection of translations (True) and rotations (False) removed 3 degrees of freedom (5)
  total projector:                 Symmetric? True   Hermitian? True   Lin Dep Dim?  3 (3)
  mass-weighted Hessian:           Symmetric? True   Hermitian? True   Lin Dep Dim?  3 (0)
  pre-proj  low-frequency mode:    0.0000i [cm^-1]
  pre-proj  low-frequency mode:    0.0000i [cm^-1]
  pre-proj  low-frequency mode:    0.0000  [cm^-1]
  pre-proj  low-frequency mode:  322.5030  [cm^-1]
  pre-proj  low-frequency mode:  322.5030  [cm^-1]
  pre-proj  all modes:['0.0000i' '0.0000i' '0.0000' '322.5030' '322.5030' '2079.2676']
  projected mass-weighted Hessian: Symmetric? True   Hermitian? True   Lin Dep Dim?  3 (3)
  post-proj low-frequency mode:    0.0000i [cm^-1] (TR)
  post-proj low-frequency mode:    0.0000i [cm^-1] (TR)
  post-proj low-frequency mode:    0.0000  [cm^-1] (TR)
  post-proj low-frequency mode:  322.5030  [cm^-1] (V)
  post-proj low-frequency mode:  322.5030  [cm^-1] (V)
  post-proj  all modes:['0.0000i' '0.0000i' '0.0000' '322.5030' '322.5030' '2079.2676']

  Note that "Vibration"s include 2 un-projected rotation-like modes.
  Vibration                       4                   5                   6           
  Freq [cm^-1]                 322.5030            322.5030           2079.2676       
  Irrep                           B1                  B2                  A1          
  Reduced mass [u]             13.4388             13.4388             13.4388        
  Force const [mDyne/A]         0.8235              0.8235             34.2318        
  Turning point v=0 [a0]        0.1667              0.1667              0.0656        
  RMS dev v=0 [a0 u^1/2]        0.4320              0.4320              0.1702        
  Char temp [K]                464.0100            464.0100           2991.6032       
  ----------------------------------------------------------------------------------
      1   O               -0.60 -0.00 -0.00    0.00 -0.60 -0.00   -0.00  0.00 -0.60   
      2   C                0.80  0.00 -0.00   -0.00  0.80 -0.00   -0.00  0.00  0.80   

  ==> Thermochemistry Components <==

  Entropy, S
    Electronic S            0.000 [cal/(mol K)]        0.000 [J/(mol K)]       0.00000000 [mEh/K] (multiplicity = 1)
    Translational S        35.923 [cal/(mol K)]      150.302 [J/(mol K)]       0.05724692 [mEh/K] (mol. weight = 27.9949 [u], P = 101325.00 [Pa])
    Rotational S           11.343 [cal/(mol K)]       47.458 [J/(mol K)]       0.01807582 [mEh/K] (symmetry no. = 1)
    Vibrational S           2.596 [cal/(mol K)]       10.861 [J/(mol K)]       0.00413655 [mEh/K]
  Total S                  49.861 [cal/(mol K)]      208.620 [J/(mol K)]       0.07945929 [mEh/K]
  Correction S              0.000 [cal/(mol K)]        0.000 [J/(mol K)]       0.00000000 [mEh/K]

  Constant volume heat capacity, Cv
    Electronic Cv           0.000 [cal/(mol K)]        0.000 [J/(mol K)]       0.00000000 [mEh/K]
    Translational Cv        2.981 [cal/(mol K)]       12.472 [J/(mol K)]       0.00475022 [mEh/K]
    Rotational Cv           1.987 [cal/(mol K)]        8.314 [J/(mol K)]       0.00316681 [mEh/K]
    Vibrational Cv          3.270 [cal/(mol K)]       13.680 [J/(mol K)]       0.00521035 [mEh/K]
  Total Cv                  8.238 [cal/(mol K)]       34.466 [J/(mol K)]       0.01312738 [mEh/K]
  Correction Cv             0.000 [cal/(mol K)]        0.000 [J/(mol K)]       0.00000000 [mEh/K]

  Constant pressure heat capacity, Cp
    Electronic Cp           0.000 [cal/(mol K)]        0.000 [J/(mol K)]       0.00000000 [mEh/K]
    Translational Cp        4.968 [cal/(mol K)]       20.786 [J/(mol K)]       0.00791703 [mEh/K]
    Rotational Cp           1.987 [cal/(mol K)]        8.314 [J/(mol K)]       0.00316681 [mEh/K]
    Vibrational Cp          3.270 [cal/(mol K)]       13.680 [J/(mol K)]       0.00521035 [mEh/K]
  Total Cp                 10.225 [cal/(mol K)]       42.780 [J/(mol K)]       0.01629419 [mEh/K]
  Correction Cp             0.000 [cal/(mol K)]        0.000 [J/(mol K)]       0.00000000 [mEh/K]

  ==> Thermochemistry Energy Analysis <==

  Raw electronic energy, E0
  Total E0, Electronic energy at well bottom at 0 [K]                 -113.31876127 [Eh]

  Zero-point energy, ZPE_vib = Sum_i nu_i / 2
    Electronic ZPE          0.000 [kcal/mol]        0.000 [kJ/mol]       0.00000000 [Eh]
    Translational ZPE       0.000 [kcal/mol]        0.000 [kJ/mol]       0.00000000 [Eh]
    Rotational ZPE          0.000 [kcal/mol]        0.000 [kJ/mol]       0.00000000 [Eh]
    Vibrational ZPE         3.895 [kcal/mol]       16.295 [kJ/mol]       0.00620635 [Eh]        1362.137 [cm^-1]
  Correction ZPE            3.895 [kcal/mol]       16.295 [kJ/mol]       0.00620635 [Eh]        1362.137 [cm^-1]
  Total ZPE, Electronic energy at 0 [K]                               -113.31255491 [Eh]

  Thermal Energy, E (includes ZPE)
    Electronic E            0.000 [kcal/mol]        0.000 [kJ/mol]       0.00000000 [Eh]
    Translational E         0.889 [kcal/mol]        3.718 [kJ/mol]       0.00141628 [Eh]
    Rotational E            0.592 [kcal/mol]        2.479 [kJ/mol]       0.00094418 [Eh]
    Vibrational E           4.388 [kcal/mol]       18.358 [kJ/mol]       0.00699230 [Eh]
  Correction E              5.869 [kcal/mol]       24.556 [kJ/mol]       0.00935276 [Eh]
  Total E, Electronic energy at  298.15 [K]                           -113.30940850 [Eh]

  Enthalpy, H_trans = E_trans + k_B * T
    Electronic H            0.000 [kcal/mol]        0.000 [kJ/mol]       0.00000000 [Eh]
    Translational H         1.481 [kcal/mol]        6.197 [kJ/mol]       0.00236046 [Eh]
    Rotational H            0.592 [kcal/mol]        2.479 [kJ/mol]       0.00094418 [Eh]
    Vibrational H           4.388 [kcal/mol]       18.358 [kJ/mol]       0.00699230 [Eh]
  Correction H              6.461 [kcal/mol]       27.035 [kJ/mol]       0.01029695 [Eh]
  Total H, Enthalpy at  298.15 [K]                                    -113.30846432 [Eh]

  Gibbs free energy, G = H - T * S
    Electronic G            0.000 [kcal/mol]        0.000 [kJ/mol]       0.00000000 [Eh]
    Translational G        -9.229 [kcal/mol]      -38.615 [kJ/mol]      -0.01470771 [Eh]
    Rotational G           -2.789 [kcal/mol]      -11.671 [kJ/mol]      -0.00444512 [Eh]
    Vibrational G           3.614 [kcal/mol]       15.120 [kJ/mol]       0.00575899 [Eh]
  Correction G             -8.405 [kcal/mol]      -35.166 [kJ/mol]      -0.01339384 [Eh]
  Total G, Free enthalpy at  298.15 [K]                               -113.33215511 [Eh]

    Psi4 stopped on: Tuesday, 19 April 2022 12:38AM
    Psi4 wall time for execution: 0:00:24.43

*** Psi4 exiting successfully. Buy a developer a beer!
