
    -----------------------------------------------------------------------
          Psi4: An Open-Source Ab Initio Electronic Structure Package
                               Psi4 1.3.2 release

                         Git: Rev {HEAD} ecbda83 


    R. M. Parrish, L. A. Burns, D. G. A. Smith, A. C. Simmonett,
    A. E. DePrince III, E. G. Hohenstein, U. Bozkaya, A. Yu. Sokolov,
    R. Di Remigio, R. M. Richard, J. F. Gonthier, A. M. James,
    H. R. McAlexander, A. Kumar, M. Saitow, X. Wang, B. P. Pritchard,
    P. Verma, H. F. Schaefer III, K. Patkowski, R. A. King, E. F. Valeev,
    F. A. Evangelista, J. M. Turney, T. D. Crawford, and C. D. Sherrill,
    J. Chem. Theory Comput. 13(7) pp 3185--3197 (2017).
    (doi: 10.1021/acs.jctc.7b00174)


                         Additional Contributions by
    P. Kraus, H. Kruse, M. H. Lechner, M. C. Schieber, R. A. Shaw,
    A. Alenaizan, R. Galvelis, Z. L. Glick, S. Lehtola, and J. P. Misiewicz

    -----------------------------------------------------------------------


    Psi4 started on: Tuesday, 19 April 2022 02:21PM

    Process ID: 2097
    Host:       atlantis
    PSIDATADIR: /home/akrom/software/anaconda3/envs/ffpenv/share/psi4
    Memory:     500.0 MiB
    Threads:    1
    
  ==> Input File <==

--------------------------------------------------------------------------
set basis  6-31++G**
molecule {
0 1
   C        0.32153        0.81326        0.00000
   C       -0.86505       -0.12817        0.00000
   C        0.54353       -0.68508        0.00000
   H        0.53795        1.36069       -0.92039
   H        0.53795        1.36069        0.92039
   H       -1.44742       -0.21449        0.92034
   H       -1.44742       -0.21449       -0.92034
   H        0.90937       -1.14629       -0.92037
   H        0.90937       -1.14629        0.92037
}
energy('B3LYP')
frequencies('B3LYP')
--------------------------------------------------------------------------

*** tstart() called on atlantis
*** at Tue Apr 19 14:21:28 2022

   => Loading Basis Set <=

    Name: 6-31++G**
    Role: ORBITAL
    Keyword: BASIS
    atoms 1-3 entry C          line   115 file /home/akrom/software/anaconda3/envs/ffpenv/share/psi4/basis/6-31ppgss.gbs 
    atoms 4-9 entry H          line    46 file /home/akrom/software/anaconda3/envs/ffpenv/share/psi4/basis/6-31ppgss.gbs 


         ---------------------------------------------------------
                                   SCF
               by Justin Turney, Rob Parrish, Andy Simmonett
                          and Daniel G. A. Smith
                              RKS Reference
                        1 Threads,    500 MiB Core
         ---------------------------------------------------------

  ==> Geometry <==

    Molecular point group: cs
    Full point group: Cs

    Geometry (in Angstrom), charge = 0, multiplicity = 1:

       Center              X                  Y                   Z               Mass       
    ------------   -----------------  -----------------  -----------------  -----------------
         C            0.321531939855     0.813261460475     0.000000000000    12.000000000000
         C           -0.865048060145    -0.128168539525     0.000000000000    12.000000000000
         C            0.543531939855    -0.685078539525     0.000000000000    12.000000000000
         H            0.537951939855     1.360691460475    -0.920390000000     1.007825032230
         H            0.537951939855     1.360691460475     0.920390000000     1.007825032230
         H           -1.447418060145    -0.214488539525     0.920340000000     1.007825032230
         H           -1.447418060145    -0.214488539525    -0.920340000000     1.007825032230
         H            0.909371939855    -1.146288539525    -0.920370000000     1.007825032230
         H            0.909371939855    -1.146288539525     0.920370000000     1.007825032230

  Running in cs symmetry.

  Rotational constants: A =      0.66472  B =      0.66470  C =      0.41647 [cm^-1]
  Rotational constants: A =  19927.70596  B =  19927.20236  C =  12485.44714 [MHz]
  Nuclear repulsion =   75.281464809014025

  Charge       = 0
  Multiplicity = 1
  Electrons    = 24
  Nalpha       = 12
  Nbeta        = 12

  ==> Algorithm <==

  SCF Algorithm Type is DF.
  DIIS enabled.
  MOM disabled.
  Fractional occupation disabled.
  Guess Type is SAD.
  Energy threshold   = 1.00e-06
  Density threshold  = 1.00e-06
  Integral threshold = 0.00e+00

  ==> Primary Basis <==

  Basis Set: 6-31++G**
    Blend: 6-31++G**
    Number of shells: 48
    Number of basis function: 93
    Number of Cartesian functions: 93
    Spherical Harmonics?: false
    Max angular momentum: 2

  ==> DFT Potential <==

   => Composite Functional: B3LYP <= 

    B3LYP Hyb-GGA Exchange-Correlation Functional

    P. J. Stephens, F. J. Devlin, C. F. Chabalowski, and M. J. Frisch, J. Phys. Chem. 98, 11623 (1994)

    Deriv               =              1
    GGA                 =           TRUE
    Meta                =          FALSE

    Exchange Hybrid     =           TRUE
    MP2 Hybrid          =          FALSE

   => Exchange Functionals <=

    0.0800   Slater exchange
    0.7200         Becke 88

   => Exact (HF) Exchange <=

    0.2000               HF 

   => Correlation Functionals <=

    0.1900   Vosko, Wilk & Nusair (VWN5_RPA)
    0.8100   Lee, Yang & Parr

   => Molecular Quadrature <=

    Radial Scheme          =       TREUTLER
    Pruning Scheme         =           FLAT
    Nuclear Scheme         =       TREUTLER

    BS radius alpha        =              1
    Pruning alpha          =              1
    Radial Points          =             75
    Spherical Points       =            302
    Total Points           =         203850
    Total Blocks           =           1576
    Max Points             =            256
    Max Functions          =             93

   => Loading Basis Set <=

    Name: (6-31++G** AUX)
    Role: JKFIT
    Keyword: DF_BASIS_SCF
    atoms 1-3 entry C          line   154 file /home/akrom/software/anaconda3/envs/ffpenv/share/psi4/basis/aug-cc-pvdz-jkfit.gbs 
    atoms 4-9 entry H          line    70 file /home/akrom/software/anaconda3/envs/ffpenv/share/psi4/basis/aug-cc-pvdz-jkfit.gbs 

  ==> Pre-Iterations <==

   -------------------------------------------------------
    Irrep   Nso     Nmo     Nalpha   Nbeta   Ndocc  Nsocc
   -------------------------------------------------------
     A'        60      60       0       0       0       0
     A"        33      33       0       0       0       0
   -------------------------------------------------------
    Total      93      93      12      12      12       0
   -------------------------------------------------------

  ==> Integral Setup <==

  DFHelper Memory: AOs need 0.037 GiB; user supplied 0.037 GiB. Using in-core AOs.

  ==> MemDFJK: Density-Fitted J/K Matrices <==

    J tasked:                   Yes
    K tasked:                   Yes
    wK tasked:                   No
    OpenMP threads:               1
    Memory [MiB]:                37
    Algorithm:                 Core
    Schwarz Cutoff:           1E-12
    Mask sparsity (%):       0.0000
    Fitting Condition:        1E-10

   => Auxiliary Basis Set <=

  Basis Set: (6-31++G** AUX)
    Blend: AUG-CC-PVDZ-JKFIT
    Number of shells: 156
    Number of basis function: 513
    Number of Cartesian functions: 513
    Spherical Harmonics?: false
    Max angular momentum: 3

  Cached 100.0% of DFT collocation blocks in 0.487 [GiB].

  Minimum eigenvalue in the overlap matrix is 1.8844418511E-04.
  Using Symmetric Orthogonalization.

  SCF Guess: Superposition of Atomic Densities via on-the-fly atomic UHF.

  ==> Iterations <==

                           Total Energy        Delta E     RMS |[F,P]|

   @DF-RKS iter SAD:  -117.37731216083685   -1.17377e+02   0.00000e+00 
   @DF-RKS iter   1:  -117.44373856730368   -6.64264e-02   1.33914e-02 DIIS
   @DF-RKS iter   2:  -116.84960924478213    5.94129e-01   1.97620e-02 DIIS
   @DF-RKS iter   3:  -117.90765754707169   -1.05805e+00   7.70637e-04 DIIS
   @DF-RKS iter   4:  -117.90917961435555   -1.52207e-03   1.48592e-04 DIIS
   @DF-RKS iter   5:  -117.90922867127634   -4.90569e-05   2.20239e-05 DIIS
   @DF-RKS iter   6:  -117.90922992598479   -1.25471e-06   7.56604e-07 DIIS
   @DF-RKS iter   7:  -117.90922992992283   -3.93804e-09   6.73987e-08 DIIS
  Energy and wave function converged.


  ==> Post-Iterations <==

    Orbital Energies [Eh]
    ---------------------

    Doubly Occupied:                                                      

       1Ap   -10.191548     2Ap   -10.191186     3Ap   -10.191181  
       4Ap    -0.847351     5Ap    -0.596059     6Ap    -0.596053  
       1App   -0.492388     7Ap    -0.463695     2App   -0.364529  
       3App   -0.364516     8Ap    -0.294962     9Ap    -0.294956  

    Virtual:                                                              

      10Ap    -0.001975     4App    0.013169    11Ap     0.015776  
      12Ap     0.015778     5App    0.058196     6App    0.058199  
      13Ap     0.068921    14Ap     0.084619    15Ap     0.084621  
      16Ap     0.101882    17Ap     0.127402    18Ap     0.127406  
       7App    0.135675    19Ap     0.149841    20Ap     0.155998  
      21Ap     0.156001     8App    0.164649     9App    0.164653  
      22Ap     0.196812    10App    0.199914    23Ap     0.240178  
      24Ap     0.287163    25Ap     0.287175    11App    0.296725  
      12App    0.296750    26Ap     0.353714    27Ap     0.353720  
      28Ap     0.597099    29Ap     0.671764    30Ap     0.671782  
      13App    0.735069    31Ap     0.753684    32Ap     0.753686  
      33Ap     0.764664    14App    0.791150    15App    0.791172  
      16App    0.914861    34Ap     0.946620    35Ap     0.991450  
      17App    1.050757    18App    1.050800    36Ap     1.069737  
      37Ap     1.069749    38Ap     1.288897    39Ap     1.288899  
      40Ap     1.550377    19App    1.601839    20App    1.612633  
      21App    1.612645    41Ap     1.777299    42Ap     1.777333  
      22App    1.877147    43Ap     2.075245    23App    2.081255  
      24App    2.081313    25App    2.220928    44Ap     2.228938  
      45Ap     2.228976    46Ap     2.289827    47Ap     2.289879  
      26App    2.378150    27App    2.378171    48Ap     2.402539  
      49Ap     2.532910    50Ap     2.532926    51Ap     2.678907  
      28App    2.686606    29App    2.686609    30App    2.812925  
      52Ap     2.838013    53Ap     2.930481    54Ap     2.930537  
      55Ap     3.203705    31App    3.318547    56Ap     3.398868  
      57Ap     3.398925    32App    3.559317    33App    3.559341  
      58Ap     4.284138    59Ap     4.554593    60Ap     4.554597  

    Final Occupation by Irrep:
             Ap   App 
    DOCC [     9,    3 ]

  @DF-RKS Final Energy:  -117.90922992992283

   => Energetics <=

    Nuclear Repulsion Energy =             75.2814648090140253
    One-Electron Energy =                -305.8462586195154813
    Two-Electron Energy =                 127.6165123143514535
    DFT Exchange-Correlation Energy =     -14.9609484337728418
    Empirical Dispersion Energy =           0.0000000000000000
    VV10 Nonlocal Energy =                  0.0000000000000000
    Total Energy =                       -117.9092299299228301

Computation Completed


Properties will be evaluated at   0.000000,   0.000000,   0.000000 [a0]

Properties computed using the SCF density matrix

  Nuclear Dipole Moment: [e a0]
     X:    -0.0002      Y:    -0.0002      Z:     0.0000

  Electronic Dipole Moment: [e a0]
     X:     0.0001      Y:     0.0001      Z:     0.0000

  Dipole Moment: [e a0]
     X:    -0.0000      Y:    -0.0000      Z:     0.0000     Total:     0.0000

  Dipole Moment: [D]
     X:    -0.0001      Y:    -0.0001      Z:     0.0000     Total:     0.0001


*** tstop() called on atlantis at Tue Apr 19 14:21:32 2022
Module time:
	user time   =       4.54 seconds =       0.08 minutes
	system time =       0.11 seconds =       0.00 minutes
	total time  =          4 seconds =       0.07 minutes
Total time:
	user time   =       4.54 seconds =       0.08 minutes
	system time =       0.11 seconds =       0.00 minutes
	total time  =          4 seconds =       0.07 minutes
gradient() will perform analytic gradient computation.

*** tstart() called on atlantis
*** at Tue Apr 19 14:21:32 2022

   => Loading Basis Set <=

    Name: 6-31++G**
    Role: ORBITAL
    Keyword: BASIS
    atoms 1-3 entry C          line   115 file /home/akrom/software/anaconda3/envs/ffpenv/share/psi4/basis/6-31ppgss.gbs 
    atoms 4-9 entry H          line    46 file /home/akrom/software/anaconda3/envs/ffpenv/share/psi4/basis/6-31ppgss.gbs 


         ---------------------------------------------------------
                                   SCF
               by Justin Turney, Rob Parrish, Andy Simmonett
                          and Daniel G. A. Smith
                              RKS Reference
                        1 Threads,    500 MiB Core
         ---------------------------------------------------------

  ==> Geometry <==

    Molecular point group: cs
    Full point group: Cs

    Geometry (in Angstrom), charge = 0, multiplicity = 1:

       Center              X                  Y                   Z               Mass       
    ------------   -----------------  -----------------  -----------------  -----------------
         C            0.321531939855     0.813261460475     0.000000000000    12.000000000000
         C           -0.865048060145    -0.128168539525     0.000000000000    12.000000000000
         C            0.543531939855    -0.685078539525     0.000000000000    12.000000000000
         H            0.537951939855     1.360691460475    -0.920390000000     1.007825032230
         H            0.537951939855     1.360691460475     0.920390000000     1.007825032230
         H           -1.447418060145    -0.214488539525     0.920340000000     1.007825032230
         H           -1.447418060145    -0.214488539525    -0.920340000000     1.007825032230
         H            0.909371939855    -1.146288539525    -0.920370000000     1.007825032230
         H            0.909371939855    -1.146288539525     0.920370000000     1.007825032230

  Running in cs symmetry.

  Rotational constants: A =      0.66472  B =      0.66470  C =      0.41647 [cm^-1]
  Rotational constants: A =  19927.70596  B =  19927.20236  C =  12485.44714 [MHz]
  Nuclear repulsion =   75.281464809014025

  Charge       = 0
  Multiplicity = 1
  Electrons    = 24
  Nalpha       = 12
  Nbeta        = 12

  ==> Algorithm <==

  SCF Algorithm Type is DF.
  DIIS enabled.
  MOM disabled.
  Fractional occupation disabled.
  Guess Type is SAD.
  Energy threshold   = 1.00e-08
  Density threshold  = 1.00e-08
  Integral threshold = 0.00e+00

  ==> Primary Basis <==

  Basis Set: 6-31++G**
    Blend: 6-31++G**
    Number of shells: 48
    Number of basis function: 93
    Number of Cartesian functions: 93
    Spherical Harmonics?: false
    Max angular momentum: 2

  ==> DFT Potential <==

   => Composite Functional: B3LYP <= 

    B3LYP Hyb-GGA Exchange-Correlation Functional

    P. J. Stephens, F. J. Devlin, C. F. Chabalowski, and M. J. Frisch, J. Phys. Chem. 98, 11623 (1994)

    Deriv               =              1
    GGA                 =           TRUE
    Meta                =          FALSE

    Exchange Hybrid     =           TRUE
    MP2 Hybrid          =          FALSE

   => Exchange Functionals <=

    0.0800   Slater exchange
    0.7200         Becke 88

   => Exact (HF) Exchange <=

    0.2000               HF 

   => Correlation Functionals <=

    0.1900   Vosko, Wilk & Nusair (VWN5_RPA)
    0.8100   Lee, Yang & Parr

   => Molecular Quadrature <=

    Radial Scheme          =       TREUTLER
    Pruning Scheme         =           FLAT
    Nuclear Scheme         =       TREUTLER

    BS radius alpha        =              1
    Pruning alpha          =              1
    Radial Points          =             75
    Spherical Points       =            302
    Total Points           =         203850
    Total Blocks           =           1576
    Max Points             =            256
    Max Functions          =             93

   => Loading Basis Set <=

    Name: (6-31++G** AUX)
    Role: JKFIT
    Keyword: DF_BASIS_SCF
    atoms 1-3 entry C          line   154 file /home/akrom/software/anaconda3/envs/ffpenv/share/psi4/basis/aug-cc-pvdz-jkfit.gbs 
    atoms 4-9 entry H          line    70 file /home/akrom/software/anaconda3/envs/ffpenv/share/psi4/basis/aug-cc-pvdz-jkfit.gbs 

  ==> Pre-Iterations <==

   -------------------------------------------------------
    Irrep   Nso     Nmo     Nalpha   Nbeta   Ndocc  Nsocc
   -------------------------------------------------------
     A'        60      60       0       0       0       0
     A"        33      33       0       0       0       0
   -------------------------------------------------------
    Total      93      93      12      12      12       0
   -------------------------------------------------------

  ==> Integral Setup <==

  DFHelper Memory: AOs need 0.037 GiB; user supplied 0.037 GiB. Using in-core AOs.

  ==> MemDFJK: Density-Fitted J/K Matrices <==

    J tasked:                   Yes
    K tasked:                   Yes
    wK tasked:                   No
    OpenMP threads:               1
    Memory [MiB]:                37
    Algorithm:                 Core
    Schwarz Cutoff:           1E-12
    Mask sparsity (%):       0.0000
    Fitting Condition:        1E-10

   => Auxiliary Basis Set <=

  Basis Set: (6-31++G** AUX)
    Blend: AUG-CC-PVDZ-JKFIT
    Number of shells: 156
    Number of basis function: 513
    Number of Cartesian functions: 513
    Spherical Harmonics?: false
    Max angular momentum: 3

  Cached 100.0% of DFT collocation blocks in 0.487 [GiB].

  Minimum eigenvalue in the overlap matrix is 1.8844418511E-04.
  Using Symmetric Orthogonalization.

  SCF Guess: Superposition of Atomic Densities via on-the-fly atomic UHF.

  ==> Iterations <==

                           Total Energy        Delta E     RMS |[F,P]|

   @DF-RKS iter SAD:  -117.37731216086594   -1.17377e+02   0.00000e+00 
   @DF-RKS iter   1:  -117.44373856734292   -6.64264e-02   1.33914e-02 DIIS
   @DF-RKS iter   2:  -116.84960924500007    5.94129e-01   1.97620e-02 DIIS
   @DF-RKS iter   3:  -117.90765754710591   -1.05805e+00   7.70637e-04 DIIS
   @DF-RKS iter   4:  -117.90917961438888   -1.52207e-03   1.48592e-04 DIIS
   @DF-RKS iter   5:  -117.90922867130936   -4.90569e-05   2.20239e-05 DIIS
   @DF-RKS iter   6:  -117.90922992601790   -1.25471e-06   7.56604e-07 DIIS
   @DF-RKS iter   7:  -117.90922992995641   -3.93851e-09   6.73990e-08 DIIS
   @DF-RKS iter   8:  -117.90922992997370   -1.72946e-11   4.61246e-08 DIIS
   @DF-RKS iter   9:  -117.90922992997817   -4.46221e-12   8.89919e-09 DIIS
  Energy and wave function converged.


  ==> Post-Iterations <==

    Orbital Energies [Eh]
    ---------------------

    Doubly Occupied:                                                      

       1Ap   -10.191548     2Ap   -10.191185     3Ap   -10.191181  
       4Ap    -0.847351     5Ap    -0.596058     6Ap    -0.596054  
       1App   -0.492388     7Ap    -0.463695     2App   -0.364529  
       3App   -0.364516     8Ap    -0.294962     9Ap    -0.294956  

    Virtual:                                                              

      10Ap    -0.001975     4App    0.013169    11Ap     0.015776  
      12Ap     0.015778     5App    0.058196     6App    0.058199  
      13Ap     0.068921    14Ap     0.084619    15Ap     0.084621  
      16Ap     0.101882    17Ap     0.127402    18Ap     0.127406  
       7App    0.135675    19Ap     0.149841    20Ap     0.155998  
      21Ap     0.156001     8App    0.164649     9App    0.164653  
      22Ap     0.196812    10App    0.199914    23Ap     0.240178  
      24Ap     0.287163    25Ap     0.287175    11App    0.296725  
      12App    0.296750    26Ap     0.353714    27Ap     0.353720  
      28Ap     0.597099    29Ap     0.671764    30Ap     0.671782  
      13App    0.735069    31Ap     0.753685    32Ap     0.753686  
      33Ap     0.764664    14App    0.791150    15App    0.791173  
      16App    0.914861    34Ap     0.946620    35Ap     0.991450  
      17App    1.050757    18App    1.050800    36Ap     1.069737  
      37Ap     1.069749    38Ap     1.288897    39Ap     1.288899  
      40Ap     1.550377    19App    1.601839    20App    1.612633  
      21App    1.612645    41Ap     1.777299    42Ap     1.777333  
      22App    1.877147    43Ap     2.075245    23App    2.081255  
      24App    2.081313    25App    2.220928    44Ap     2.228939  
      45Ap     2.228976    46Ap     2.289827    47Ap     2.289879  
      26App    2.378150    27App    2.378171    48Ap     2.402539  
      49Ap     2.532911    50Ap     2.532926    51Ap     2.678907  
      28App    2.686606    29App    2.686609    30App    2.812925  
      52Ap     2.838013    53Ap     2.930481    54Ap     2.930537  
      55Ap     3.203705    31App    3.318547    56Ap     3.398868  
      57Ap     3.398926    32App    3.559317    33App    3.559341  
      58Ap     4.284138    59Ap     4.554593    60Ap     4.554597  

    Final Occupation by Irrep:
             Ap   App 
    DOCC [     9,    3 ]

  @DF-RKS Final Energy:  -117.90922992997817

   => Energetics <=

    Nuclear Repulsion Energy =             75.2814648090140253
    One-Electron Energy =                -305.8462620237121996
    Two-Electron Energy =                 127.6165166013607859
    DFT Exchange-Correlation Energy =     -14.9609493166407983
    Empirical Dispersion Energy =           0.0000000000000000
    VV10 Nonlocal Energy =                  0.0000000000000000
    Total Energy =                       -117.9092299299781672

Computation Completed


Properties will be evaluated at   0.000000,   0.000000,   0.000000 [a0]

Properties computed using the SCF density matrix

  Nuclear Dipole Moment: [e a0]
     X:    -0.0002      Y:    -0.0002      Z:     0.0000

  Electronic Dipole Moment: [e a0]
     X:     0.0001      Y:     0.0001      Z:     0.0000

  Dipole Moment: [e a0]
     X:    -0.0000      Y:    -0.0000      Z:     0.0000     Total:     0.0000

  Dipole Moment: [D]
     X:    -0.0001      Y:    -0.0001      Z:     0.0000     Total:     0.0001


*** tstop() called on atlantis at Tue Apr 19 14:21:38 2022
Module time:
	user time   =       5.38 seconds =       0.09 minutes
	system time =       0.06 seconds =       0.00 minutes
	total time  =          6 seconds =       0.10 minutes
Total time:
	user time   =       9.92 seconds =       0.17 minutes
	system time =       0.17 seconds =       0.00 minutes
	total time  =         10 seconds =       0.17 minutes

*** tstart() called on atlantis
*** at Tue Apr 19 14:21:38 2022


         ------------------------------------------------------------
                                   SCF GRAD                          
                          Rob Parrish, Justin Turney,                
                       Andy Simmonett, and Alex Sokolov              
         ------------------------------------------------------------

  ==> Geometry <==

    Molecular point group: cs
    Full point group: Cs

    Geometry (in Angstrom), charge = 0, multiplicity = 1:

       Center              X                  Y                   Z               Mass       
    ------------   -----------------  -----------------  -----------------  -----------------
         C            0.321531939855     0.813261460475     0.000000000000    12.000000000000
         C           -0.865048060145    -0.128168539525     0.000000000000    12.000000000000
         C            0.543531939855    -0.685078539525     0.000000000000    12.000000000000
         H            0.537951939855     1.360691460475    -0.920390000000     1.007825032230
         H            0.537951939855     1.360691460475     0.920390000000     1.007825032230
         H           -1.447418060145    -0.214488539525     0.920340000000     1.007825032230
         H           -1.447418060145    -0.214488539525    -0.920340000000     1.007825032230
         H            0.909371939855    -1.146288539525    -0.920370000000     1.007825032230
         H            0.909371939855    -1.146288539525     0.920370000000     1.007825032230

  Nuclear repulsion =   75.281464809014025

  ==> Basis Set <==

  Basis Set: 6-31++G**
    Blend: 6-31++G**
    Number of shells: 48
    Number of basis function: 93
    Number of Cartesian functions: 93
    Spherical Harmonics?: false
    Max angular momentum: 2

  ==> DFJKGrad: Density-Fitted SCF Gradients <==

    Gradient:                    1
    J tasked:                  Yes
    K tasked:                  Yes
    wK tasked:                  No
    OpenMP threads:              1
    Integrals threads:           1
    Memory [MiB]:              375
    Schwarz Cutoff:          0E+00
    Fitting Condition:       1E-10

   => Auxiliary Basis Set <=

  Basis Set: (6-31++G** AUX)
    Blend: AUG-CC-PVDZ-JKFIT
    Number of shells: 156
    Number of basis function: 513
    Number of Cartesian functions: 513
    Spherical Harmonics?: false
    Max angular momentum: 3

  ==> DFT Potential <==

   => Composite Functional: B3LYP <= 

    B3LYP Hyb-GGA Exchange-Correlation Functional

    P. J. Stephens, F. J. Devlin, C. F. Chabalowski, and M. J. Frisch, J. Phys. Chem. 98, 11623 (1994)

    Deriv               =              1
    GGA                 =           TRUE
    Meta                =          FALSE

    Exchange Hybrid     =           TRUE
    MP2 Hybrid          =          FALSE

   => Exchange Functionals <=

    0.0800   Slater exchange
    0.7200         Becke 88

   => Exact (HF) Exchange <=

    0.2000               HF 

   => Correlation Functionals <=

    0.1900   Vosko, Wilk & Nusair (VWN5_RPA)
    0.8100   Lee, Yang & Parr

   => Molecular Quadrature <=

    Radial Scheme          =       TREUTLER
    Pruning Scheme         =           FLAT
    Nuclear Scheme         =       TREUTLER

    BS radius alpha        =              1
    Pruning alpha          =              1
    Radial Points          =             75
    Spherical Points       =            302
    Total Points           =         203850
    Total Blocks           =           1576
    Max Points             =            256
    Max Functions          =             93


  -Total Gradient:
     Atom            X                  Y                   Z
    ------   -----------------  -----------------  -----------------
       1       -0.000061247150    -0.000140525919     0.000000000000
       2        0.000179899704     0.000030201653     0.000000000000
       3       -0.000097805612     0.000133903104     0.000000000000
       4        0.000571040472     0.001448261799    -0.004257037590
       5        0.000571040472     0.001448261799     0.004257037590
       6       -0.001548083633    -0.000232940314     0.004247673522
       7       -0.001548083633    -0.000232940314    -0.004247673522
       8        0.000965950005    -0.001225243909    -0.004253570727
       9        0.000965950005    -0.001225243909     0.004253570727


*** tstop() called on atlantis at Tue Apr 19 14:21:39 2022
Module time:
	user time   =       1.52 seconds =       0.03 minutes
	system time =       0.01 seconds =       0.00 minutes
	total time  =          1 seconds =       0.02 minutes
Total time:
	user time   =      11.44 seconds =       0.19 minutes
	system time =       0.18 seconds =       0.00 minutes
	total time  =         11 seconds =       0.18 minutes

  Based on options and gradient (rms=2.14E-03), recommend projecting translations and projecting rotations.
hessian() will perform frequency computation by finite difference of analytic gradients.

         ----------------------------------------------------------
                                   FINDIF
                     R. A. King and Jonathon Misiewicz
         ---------------------------------------------------------

  Using finite-differences of gradients to determine vibrational frequencies and 
  normal modes.  Resulting frequencies are only valid at stationary points.
    Generating geometries for use with 3-point formula.
    Displacement size will be 5.00e-03.
    Number of atoms is 9.
    Number of irreps is 2.
    Number of SALCs is 21.
    Translations projected? 1. Rotations projected? 1.
    Index of SALCs per irrep:
     1 :  0  1  2  3  4  5  6  7  8  9  10  11 
     2 :  12  13  14  15  16  17  18  19  20 
    Number of SALCs per irrep:
     Irrep 1: 12
     Irrep 2: 9
    Number of geometries (including reference) is 34.
    Number of displacements per irrep:
      Irrep 1: 24
      Irrep 2: 9

  //>>>>>>>>>>>>>>>>>>>>>>>>>>>>>>>>>>>//
  //    Loading displacement 1 of 34   //
  //<<<<<<<<<<<<<<<<<<<<<<<<<<<<<<<<<<<//
gradient() will perform analytic gradient computation.

*** tstart() called on atlantis
*** at Tue Apr 19 14:21:40 2022

   => Loading Basis Set <=

    Name: 6-31++G**
    Role: ORBITAL
    Keyword: BASIS
    atoms 1-3 entry C          line   115 file /home/akrom/software/anaconda3/envs/ffpenv/share/psi4/basis/6-31ppgss.gbs 
    atoms 4-9 entry H          line    46 file /home/akrom/software/anaconda3/envs/ffpenv/share/psi4/basis/6-31ppgss.gbs 


         ---------------------------------------------------------
                                   SCF
               by Justin Turney, Rob Parrish, Andy Simmonett
                          and Daniel G. A. Smith
                              RKS Reference
                        1 Threads,    500 MiB Core
         ---------------------------------------------------------

  ==> Geometry <==

    Molecular point group: cs
    Full point group: Cs

    Geometry (in Angstrom), charge = 0, multiplicity = 1:

       Center              X                  Y                   Z               Mass       
    ------------   -----------------  -----------------  -----------------  -----------------
         C            0.321531939855     0.813261460475     0.000000000000    12.000000000000
         C           -0.865048060145    -0.128168539525     0.000000000000    12.000000000000
         C            0.543531939855    -0.685078539525     0.000000000000    12.000000000000
         H            0.537951939855     1.360691460475    -0.920390000000     1.007825032230
         H            0.537951939855     1.360691460475     0.920390000000     1.007825032230
         H           -1.447418060145    -0.214488539525     0.920340000000     1.007825032230
         H           -1.447418060145    -0.214488539525    -0.920340000000     1.007825032230
         H            0.909371939855    -1.146288539525    -0.920370000000     1.007825032230
         H            0.909371939855    -1.146288539525     0.920370000000     1.007825032230

  Running in cs symmetry.

  Rotational constants: A =      0.66472  B =      0.66470  C =      0.41647 [cm^-1]
  Rotational constants: A =  19927.70596  B =  19927.20236  C =  12485.44714 [MHz]
  Nuclear repulsion =   75.281464809014025

  Charge       = 0
  Multiplicity = 1
  Electrons    = 24
  Nalpha       = 12
  Nbeta        = 12

  ==> Algorithm <==

  SCF Algorithm Type is DF.
  DIIS enabled.
  MOM disabled.
  Fractional occupation disabled.
  Guess Type is SAD.
  Energy threshold   = 1.00e-08
  Density threshold  = 1.00e-08
  Integral threshold = 0.00e+00

  ==> Primary Basis <==

  Basis Set: 6-31++G**
    Blend: 6-31++G**
    Number of shells: 48
    Number of basis function: 93
    Number of Cartesian functions: 93
    Spherical Harmonics?: false
    Max angular momentum: 2

  ==> DFT Potential <==

   => Composite Functional: B3LYP <= 

    B3LYP Hyb-GGA Exchange-Correlation Functional

    P. J. Stephens, F. J. Devlin, C. F. Chabalowski, and M. J. Frisch, J. Phys. Chem. 98, 11623 (1994)

    Deriv               =              1
    GGA                 =           TRUE
    Meta                =          FALSE

    Exchange Hybrid     =           TRUE
    MP2 Hybrid          =          FALSE

   => Exchange Functionals <=

    0.0800   Slater exchange
    0.7200         Becke 88

   => Exact (HF) Exchange <=

    0.2000               HF 

   => Correlation Functionals <=

    0.1900   Vosko, Wilk & Nusair (VWN5_RPA)
    0.8100   Lee, Yang & Parr

   => Molecular Quadrature <=

    Radial Scheme          =       TREUTLER
    Pruning Scheme         =           FLAT
    Nuclear Scheme         =       TREUTLER

    BS radius alpha        =              1
    Pruning alpha          =              1
    Radial Points          =             75
    Spherical Points       =            302
    Total Points           =         203850
    Total Blocks           =           1576
    Max Points             =            256
    Max Functions          =             93

   => Loading Basis Set <=

    Name: (6-31++G** AUX)
    Role: JKFIT
    Keyword: DF_BASIS_SCF
    atoms 1-3 entry C          line   154 file /home/akrom/software/anaconda3/envs/ffpenv/share/psi4/basis/aug-cc-pvdz-jkfit.gbs 
    atoms 4-9 entry H          line    70 file /home/akrom/software/anaconda3/envs/ffpenv/share/psi4/basis/aug-cc-pvdz-jkfit.gbs 

  ==> Pre-Iterations <==

   -------------------------------------------------------
    Irrep   Nso     Nmo     Nalpha   Nbeta   Ndocc  Nsocc
   -------------------------------------------------------
     A'        60      60       0       0       0       0
     A"        33      33       0       0       0       0
   -------------------------------------------------------
    Total      93      93      12      12      12       0
   -------------------------------------------------------

  ==> Integral Setup <==

  DFHelper Memory: AOs need 0.037 GiB; user supplied 0.037 GiB. Using in-core AOs.

  ==> MemDFJK: Density-Fitted J/K Matrices <==

    J tasked:                   Yes
    K tasked:                   Yes
    wK tasked:                   No
    OpenMP threads:               1
    Memory [MiB]:                37
    Algorithm:                 Core
    Schwarz Cutoff:           1E-12
    Mask sparsity (%):       0.0000
    Fitting Condition:        1E-10

   => Auxiliary Basis Set <=

  Basis Set: (6-31++G** AUX)
    Blend: AUG-CC-PVDZ-JKFIT
    Number of shells: 156
    Number of basis function: 513
    Number of Cartesian functions: 513
    Spherical Harmonics?: false
    Max angular momentum: 3

  Cached 100.0% of DFT collocation blocks in 0.487 [GiB].

  Minimum eigenvalue in the overlap matrix is 1.8844418511E-04.
  Using Symmetric Orthogonalization.

  SCF Guess: Superposition of Atomic Densities via on-the-fly atomic UHF.

  ==> Iterations <==

                           Total Energy        Delta E     RMS |[F,P]|

   @DF-RKS iter SAD:  -117.37731216086608   -1.17377e+02   0.00000e+00 
   @DF-RKS iter   1:  -117.44373856734308   -6.64264e-02   1.33914e-02 DIIS
   @DF-RKS iter   2:  -116.84960924500476    5.94129e-01   1.97620e-02 DIIS
   @DF-RKS iter   3:  -117.90765754710586   -1.05805e+00   7.70637e-04 DIIS
   @DF-RKS iter   4:  -117.90917961438893   -1.52207e-03   1.48592e-04 DIIS
   @DF-RKS iter   5:  -117.90922867130952   -4.90569e-05   2.20239e-05 DIIS
   @DF-RKS iter   6:  -117.90922992601776   -1.25471e-06   7.56604e-07 DIIS
   @DF-RKS iter   7:  -117.90922992995627   -3.93851e-09   6.73990e-08 DIIS
   @DF-RKS iter   8:  -117.90922992997370   -1.74367e-11   4.61246e-08 DIIS
   @DF-RKS iter   9:  -117.90922992997800   -4.29168e-12   8.89920e-09 DIIS
  Energy and wave function converged.


  ==> Post-Iterations <==

    Orbital Energies [Eh]
    ---------------------

    Doubly Occupied:                                                      

       1Ap   -10.191548     2Ap   -10.191185     3Ap   -10.191181  
       4Ap    -0.847351     5Ap    -0.596058     6Ap    -0.596054  
       1App   -0.492388     7Ap    -0.463695     2App   -0.364529  
       3App   -0.364516     8Ap    -0.294962     9Ap    -0.294956  

    Virtual:                                                              

      10Ap    -0.001975     4App    0.013169    11Ap     0.015776  
      12Ap     0.015778     5App    0.058196     6App    0.058199  
      13Ap     0.068921    14Ap     0.084619    15Ap     0.084621  
      16Ap     0.101882    17Ap     0.127402    18Ap     0.127406  
       7App    0.135675    19Ap     0.149841    20Ap     0.155998  
      21Ap     0.156001     8App    0.164649     9App    0.164653  
      22Ap     0.196812    10App    0.199914    23Ap     0.240178  
      24Ap     0.287163    25Ap     0.287175    11App    0.296725  
      12App    0.296750    26Ap     0.353714    27Ap     0.353720  
      28Ap     0.597099    29Ap     0.671764    30Ap     0.671782  
      13App    0.735069    31Ap     0.753685    32Ap     0.753686  
      33Ap     0.764664    14App    0.791150    15App    0.791173  
      16App    0.914861    34Ap     0.946620    35Ap     0.991450  
      17App    1.050757    18App    1.050800    36Ap     1.069737  
      37Ap     1.069749    38Ap     1.288897    39Ap     1.288899  
      40Ap     1.550377    19App    1.601839    20App    1.612633  
      21App    1.612645    41Ap     1.777299    42Ap     1.777333  
      22App    1.877147    43Ap     2.075245    23App    2.081255  
      24App    2.081313    25App    2.220928    44Ap     2.228939  
      45Ap     2.228976    46Ap     2.289827    47Ap     2.289879  
      26App    2.378150    27App    2.378171    48Ap     2.402539  
      49Ap     2.532911    50Ap     2.532926    51Ap     2.678907  
      28App    2.686606    29App    2.686609    30App    2.812925  
      52Ap     2.838013    53Ap     2.930481    54Ap     2.930537  
      55Ap     3.203705    31App    3.318547    56Ap     3.398868  
      57Ap     3.398926    32App    3.559317    33App    3.559341  
      58Ap     4.284138    59Ap     4.554593    60Ap     4.554597  

    Final Occupation by Irrep:
             Ap   App 
    DOCC [     9,    3 ]

  @DF-RKS Final Energy:  -117.90922992997800

   => Energetics <=

    Nuclear Repulsion Energy =             75.2814648090140253
    One-Electron Energy =                -305.8462620237159513
    Two-Electron Energy =                 127.6165166013651628
    DFT Exchange-Correlation Energy =     -14.9609493166412513
    Empirical Dispersion Energy =           0.0000000000000000
    VV10 Nonlocal Energy =                  0.0000000000000000
    Total Energy =                       -117.9092299299779967

Computation Completed


Properties will be evaluated at   0.000000,   0.000000,   0.000000 [a0]

Properties computed using the SCF density matrix

  Nuclear Dipole Moment: [e a0]
     X:    -0.0002      Y:    -0.0002      Z:     0.0000

  Electronic Dipole Moment: [e a0]
     X:     0.0001      Y:     0.0001      Z:     0.0000

  Dipole Moment: [e a0]
     X:    -0.0000      Y:    -0.0000      Z:     0.0000     Total:     0.0000

  Dipole Moment: [D]
     X:    -0.0001      Y:    -0.0001      Z:     0.0000     Total:     0.0001


*** tstop() called on atlantis at Tue Apr 19 14:21:45 2022
Module time:
	user time   =       5.38 seconds =       0.09 minutes
	system time =       0.02 seconds =       0.00 minutes
	total time  =          5 seconds =       0.08 minutes
Total time:
	user time   =      17.10 seconds =       0.28 minutes
	system time =       0.21 seconds =       0.00 minutes
	total time  =         17 seconds =       0.28 minutes

*** tstart() called on atlantis
*** at Tue Apr 19 14:21:45 2022


         ------------------------------------------------------------
                                   SCF GRAD                          
                          Rob Parrish, Justin Turney,                
                       Andy Simmonett, and Alex Sokolov              
         ------------------------------------------------------------

  ==> Geometry <==

    Molecular point group: cs
    Full point group: Cs

    Geometry (in Angstrom), charge = 0, multiplicity = 1:

       Center              X                  Y                   Z               Mass       
    ------------   -----------------  -----------------  -----------------  -----------------
         C            0.321531939855     0.813261460475     0.000000000000    12.000000000000
         C           -0.865048060145    -0.128168539525     0.000000000000    12.000000000000
         C            0.543531939855    -0.685078539525     0.000000000000    12.000000000000
         H            0.537951939855     1.360691460475    -0.920390000000     1.007825032230
         H            0.537951939855     1.360691460475     0.920390000000     1.007825032230
         H           -1.447418060145    -0.214488539525     0.920340000000     1.007825032230
         H           -1.447418060145    -0.214488539525    -0.920340000000     1.007825032230
         H            0.909371939855    -1.146288539525    -0.920370000000     1.007825032230
         H            0.909371939855    -1.146288539525     0.920370000000     1.007825032230

  Nuclear repulsion =   75.281464809014025

  ==> Basis Set <==

  Basis Set: 6-31++G**
    Blend: 6-31++G**
    Number of shells: 48
    Number of basis function: 93
    Number of Cartesian functions: 93
    Spherical Harmonics?: false
    Max angular momentum: 2

  ==> DFJKGrad: Density-Fitted SCF Gradients <==

    Gradient:                    1
    J tasked:                  Yes
    K tasked:                  Yes
    wK tasked:                  No
    OpenMP threads:              1
    Integrals threads:           1
    Memory [MiB]:              375
    Schwarz Cutoff:          0E+00
    Fitting Condition:       1E-10

   => Auxiliary Basis Set <=

  Basis Set: (6-31++G** AUX)
    Blend: AUG-CC-PVDZ-JKFIT
    Number of shells: 156
    Number of basis function: 513
    Number of Cartesian functions: 513
    Spherical Harmonics?: false
    Max angular momentum: 3

  ==> DFT Potential <==

   => Composite Functional: B3LYP <= 

    B3LYP Hyb-GGA Exchange-Correlation Functional

    P. J. Stephens, F. J. Devlin, C. F. Chabalowski, and M. J. Frisch, J. Phys. Chem. 98, 11623 (1994)

    Deriv               =              1
    GGA                 =           TRUE
    Meta                =          FALSE

    Exchange Hybrid     =           TRUE
    MP2 Hybrid          =          FALSE

   => Exchange Functionals <=

    0.0800   Slater exchange
    0.7200         Becke 88

   => Exact (HF) Exchange <=

    0.2000               HF 

   => Correlation Functionals <=

    0.1900   Vosko, Wilk & Nusair (VWN5_RPA)
    0.8100   Lee, Yang & Parr

   => Molecular Quadrature <=

    Radial Scheme          =       TREUTLER
    Pruning Scheme         =           FLAT
    Nuclear Scheme         =       TREUTLER

    BS radius alpha        =              1
    Pruning alpha          =              1
    Radial Points          =             75
    Spherical Points       =            302
    Total Points           =         203850
    Total Blocks           =           1576
    Max Points             =            256
    Max Functions          =             93


  -Total Gradient:
     Atom            X                  Y                   Z
    ------   -----------------  -----------------  -----------------
       1       -0.000061075346    -0.000140678477     0.000000000000
       2        0.000180073773     0.000030026792     0.000000000000
       3       -0.000097803409     0.000133917200     0.000000000000
       4        0.000570991256     0.001448315784    -0.004257184961
       5        0.000570991256     0.001448315784     0.004257184961
       6       -0.001548172236    -0.000232889218     0.004247836597
       7       -0.001548172236    -0.000232889218    -0.004247836597
       8        0.000965913786    -0.001225192328    -0.004253640233
       9        0.000965913786    -0.001225192328     0.004253640233


*** tstop() called on atlantis at Tue Apr 19 14:21:47 2022
Module time:
	user time   =       1.56 seconds =       0.03 minutes
	system time =       0.00 seconds =       0.00 minutes
	total time  =          2 seconds =       0.03 minutes
Total time:
	user time   =      18.66 seconds =       0.31 minutes
	system time =       0.21 seconds =       0.00 minutes
	total time  =         19 seconds =       0.32 minutes

  //>>>>>>>>>>>>>>>>>>>>>>>>>>>>>>>>>>>//
  //    Loading displacement 2 of 34   //
  //<<<<<<<<<<<<<<<<<<<<<<<<<<<<<<<<<<<//
gradient() will perform analytic gradient computation.

*** tstart() called on atlantis
*** at Tue Apr 19 14:21:47 2022

   => Loading Basis Set <=

    Name: 6-31++G**
    Role: ORBITAL
    Keyword: BASIS
    atoms 1-3 entry C          line   115 file /home/akrom/software/anaconda3/envs/ffpenv/share/psi4/basis/6-31ppgss.gbs 
    atoms 4-9 entry H          line    46 file /home/akrom/software/anaconda3/envs/ffpenv/share/psi4/basis/6-31ppgss.gbs 


         ---------------------------------------------------------
                                   SCF
               by Justin Turney, Rob Parrish, Andy Simmonett
                          and Daniel G. A. Smith
                              RKS Reference
                        1 Threads,    500 MiB Core
         ---------------------------------------------------------

  ==> Geometry <==

    Molecular point group: cs
    Full point group: Cs

    Geometry (in Angstrom), charge = 0, multiplicity = 1:

       Center              X                  Y                   Z               Mass       
    ------------   -----------------  -----------------  -----------------  -----------------
         C            0.320981935461     0.813179232929     0.000000000000    12.000000000000
         C           -0.864778117207    -0.127947314912     0.000000000000    12.000000000000
         C            0.543659460418    -0.685217540638     0.000000000000    12.000000000000
         H            0.538602639069     1.360553886373    -0.920390000000     1.007825032230
         H            0.538602639069     1.360553886373     0.920390000000     1.007825032230
         H           -1.447170192407    -0.214118381478     0.920340000000     1.007825032230
         H           -1.447170192407    -0.214118381478    -0.920340000000     1.007825032230
         H            0.909381512053    -1.146521099385    -0.920370000000     1.007825032230
         H            0.909381512053    -1.146521099385     0.920370000000     1.007825032230

  Running in cs symmetry.

  Rotational constants: A =      0.66511  B =      0.66452  C =      0.41655 [cm^-1]
  Rotational constants: A =  19939.46144  B =  19921.88173  C =  12487.97026 [MHz]
  Nuclear repulsion =   75.286659304380962

  Charge       = 0
  Multiplicity = 1
  Electrons    = 24
  Nalpha       = 12
  Nbeta        = 12

  ==> Algorithm <==

  SCF Algorithm Type is DF.
  DIIS enabled.
  MOM disabled.
  Fractional occupation disabled.
  Guess Type is SAD.
  Energy threshold   = 1.00e-08
  Density threshold  = 1.00e-08
  Integral threshold = 0.00e+00

  ==> Primary Basis <==

  Basis Set: 6-31++G**
    Blend: 6-31++G**
    Number of shells: 48
    Number of basis function: 93
    Number of Cartesian functions: 93
    Spherical Harmonics?: false
    Max angular momentum: 2

  ==> DFT Potential <==

   => Composite Functional: B3LYP <= 

    B3LYP Hyb-GGA Exchange-Correlation Functional

    P. J. Stephens, F. J. Devlin, C. F. Chabalowski, and M. J. Frisch, J. Phys. Chem. 98, 11623 (1994)

    Deriv               =              1
    GGA                 =           TRUE
    Meta                =          FALSE

    Exchange Hybrid     =           TRUE
    MP2 Hybrid          =          FALSE

   => Exchange Functionals <=

    0.0800   Slater exchange
    0.7200         Becke 88

   => Exact (HF) Exchange <=

    0.2000               HF 

   => Correlation Functionals <=

    0.1900   Vosko, Wilk & Nusair (VWN5_RPA)
    0.8100   Lee, Yang & Parr

   => Molecular Quadrature <=

    Radial Scheme          =       TREUTLER
    Pruning Scheme         =           FLAT
    Nuclear Scheme         =       TREUTLER

    BS radius alpha        =              1
    Pruning alpha          =              1
    Radial Points          =             75
    Spherical Points       =            302
    Total Points           =         203850
    Total Blocks           =           1568
    Max Points             =            256
    Max Functions          =             93

   => Loading Basis Set <=

    Name: (6-31++G** AUX)
    Role: JKFIT
    Keyword: DF_BASIS_SCF
    atoms 1-3 entry C          line   154 file /home/akrom/software/anaconda3/envs/ffpenv/share/psi4/basis/aug-cc-pvdz-jkfit.gbs 
    atoms 4-9 entry H          line    70 file /home/akrom/software/anaconda3/envs/ffpenv/share/psi4/basis/aug-cc-pvdz-jkfit.gbs 

  ==> Pre-Iterations <==

   -------------------------------------------------------
    Irrep   Nso     Nmo     Nalpha   Nbeta   Ndocc  Nsocc
   -------------------------------------------------------
     A'        60      60       0       0       0       0
     A"        33      33       0       0       0       0
   -------------------------------------------------------
    Total      93      93      12      12      12       0
   -------------------------------------------------------

  ==> Integral Setup <==

  DFHelper Memory: AOs need 0.037 GiB; user supplied 0.037 GiB. Using in-core AOs.

  ==> MemDFJK: Density-Fitted J/K Matrices <==

    J tasked:                   Yes
    K tasked:                   Yes
    wK tasked:                   No
    OpenMP threads:               1
    Memory [MiB]:                37
    Algorithm:                 Core
    Schwarz Cutoff:           1E-12
    Mask sparsity (%):       0.0000
    Fitting Condition:        1E-10

   => Auxiliary Basis Set <=

  Basis Set: (6-31++G** AUX)
    Blend: AUG-CC-PVDZ-JKFIT
    Number of shells: 156
    Number of basis function: 513
    Number of Cartesian functions: 513
    Spherical Harmonics?: false
    Max angular momentum: 3

  Cached 100.0% of DFT collocation blocks in 0.487 [GiB].

  Minimum eigenvalue in the overlap matrix is 1.8798543955E-04.
  Using Symmetric Orthogonalization.

  SCF Guess: Superposition of Atomic Densities via on-the-fly atomic UHF.

  ==> Iterations <==

                           Total Energy        Delta E     RMS |[F,P]|

   @DF-RKS iter SAD:  -117.37776907167658   -1.17378e+02   0.00000e+00 
   @DF-RKS iter   1:  -117.44352346570031   -6.57544e-02   1.33948e-02 DIIS
   @DF-RKS iter   2:  -116.84864261916901    5.94881e-01   1.97711e-02 DIIS
   @DF-RKS iter   3:  -117.90765867640091   -1.05902e+00   7.70627e-04 DIIS
   @DF-RKS iter   4:  -117.90918107986889   -1.52240e-03   1.48535e-04 DIIS
   @DF-RKS iter   5:  -117.90923009478718   -4.90149e-05   2.20572e-05 DIIS
   @DF-RKS iter   6:  -117.90923135051887   -1.25573e-06   1.25851e-06 DIIS
   @DF-RKS iter   7:  -117.90923135239774   -1.87887e-09   1.38040e-06 DIIS
   @DF-RKS iter   8:  -117.90923135681001   -4.41227e-09   7.66663e-08 DIIS
   @DF-RKS iter   9:  -117.90923135682718   -1.71667e-11   3.89126e-09 DIIS
  Energy and wave function converged.


  ==> Post-Iterations <==

    Orbital Energies [Eh]
    ---------------------

    Doubly Occupied:                                                      

       1Ap   -10.191539     2Ap   -10.191182     3Ap   -10.191164  
       4Ap    -0.847448     5Ap    -0.596076     6Ap    -0.596001  
       1App   -0.492395     7Ap    -0.463741     2App   -0.364526  
       3App   -0.364423     8Ap    -0.295179     9Ap    -0.294801  

    Virtual:                                                              

      10Ap    -0.001976     4App    0.013158    11Ap     0.015775  
      12Ap     0.015779     5App    0.058192     6App    0.058205  
      13Ap     0.068924    14Ap     0.084597    15Ap     0.084638  
      16Ap     0.101916    17Ap     0.127405    18Ap     0.127413  
       7App    0.135648    19Ap     0.149841    20Ap     0.155995  
      21Ap     0.156001     8App    0.164620     9App    0.164682  
      22Ap     0.196867    10App    0.199893    23Ap     0.240175  
      24Ap     0.287097    25Ap     0.287333    11App    0.296548  
      12App    0.296877    26Ap     0.353700    27Ap     0.353874  
      28Ap     0.597000    29Ap     0.671643    30Ap     0.671818  
      13App    0.735116    31Ap     0.753649    32Ap     0.753868  
      33Ap     0.764695    14App    0.791038    15App    0.791257  
      16App    0.914743    34Ap     0.946607    35Ap     0.991438  
      17App    1.050475    18App    1.050993    36Ap     1.069721  
      37Ap     1.069763    38Ap     1.288962    39Ap     1.289013  
      40Ap     1.550348    19App    1.601927    20App    1.612608  
      21App    1.612728    41Ap     1.777395    42Ap     1.777570  
      22App    1.876998    43Ap     2.075368    23App    2.081238  
      24App    2.081436    25App    2.220901    44Ap     2.228787  
      45Ap     2.229289    46Ap     2.289726    47Ap     2.289985  
      26App    2.377758    27App    2.378319    48Ap     2.402578  
      49Ap     2.532870    50Ap     2.533054    51Ap     2.678838  
      28App    2.686477    29App    2.686595    30App    2.812918  
      52Ap     2.838235    53Ap     2.930287    54Ap     2.930832  
      55Ap     3.203479    31App    3.318398    56Ap     3.398406  
      57Ap     3.398940    32App    3.558945    33App    3.559830  
      58Ap     4.284193    59Ap     4.554672    60Ap     4.554701  

    Final Occupation by Irrep:
             Ap   App 
    DOCC [     9,    3 ]

  @DF-RKS Final Energy:  -117.90923135682718

   => Energetics <=

    Nuclear Repulsion Energy =             75.2866593043809615
    One-Electron Energy =                -305.8565003701954765
    Two-Electron Energy =                 127.6216298719605078
    DFT Exchange-Correlation Energy =     -14.9610201629731900
    Empirical Dispersion Energy =           0.0000000000000000
    VV10 Nonlocal Energy =                  0.0000000000000000
    Total Energy =                       -117.9092313568271777

Computation Completed


Properties will be evaluated at   0.000000,   0.000000,   0.000000 [a0]

Properties computed using the SCF density matrix

  Nuclear Dipole Moment: [e a0]
     X:     0.0015      Y:    -0.0002      Z:     0.0000

  Electronic Dipole Moment: [e a0]
     X:    -0.0017      Y:     0.0003      Z:     0.0000

  Dipole Moment: [e a0]
     X:    -0.0002      Y:     0.0002      Z:     0.0000     Total:     0.0002

  Dipole Moment: [D]
     X:    -0.0004      Y:     0.0004      Z:     0.0000     Total:     0.0006


*** tstop() called on atlantis at Tue Apr 19 14:21:52 2022
Module time:
	user time   =       5.40 seconds =       0.09 minutes
	system time =       0.01 seconds =       0.00 minutes
	total time  =          5 seconds =       0.08 minutes
Total time:
	user time   =      24.07 seconds =       0.40 minutes
	system time =       0.22 seconds =       0.00 minutes
	total time  =         24 seconds =       0.40 minutes

*** tstart() called on atlantis
*** at Tue Apr 19 14:21:52 2022


         ------------------------------------------------------------
                                   SCF GRAD                          
                          Rob Parrish, Justin Turney,                
                       Andy Simmonett, and Alex Sokolov              
         ------------------------------------------------------------

  ==> Geometry <==

    Molecular point group: cs
    Full point group: Cs

    Geometry (in Angstrom), charge = 0, multiplicity = 1:

       Center              X                  Y                   Z               Mass       
    ------------   -----------------  -----------------  -----------------  -----------------
         C            0.320981935461     0.813179232929     0.000000000000    12.000000000000
         C           -0.864778117207    -0.127947314912     0.000000000000    12.000000000000
         C            0.543659460418    -0.685217540638     0.000000000000    12.000000000000
         H            0.538602639069     1.360553886373    -0.920390000000     1.007825032230
         H            0.538602639069     1.360553886373     0.920390000000     1.007825032230
         H           -1.447170192407    -0.214118381478     0.920340000000     1.007825032230
         H           -1.447170192407    -0.214118381478    -0.920340000000     1.007825032230
         H            0.909381512053    -1.146521099385    -0.920370000000     1.007825032230
         H            0.909381512053    -1.146521099385     0.920370000000     1.007825032230

  Nuclear repulsion =   75.286659304380962

  ==> Basis Set <==

  Basis Set: 6-31++G**
    Blend: 6-31++G**
    Number of shells: 48
    Number of basis function: 93
    Number of Cartesian functions: 93
    Spherical Harmonics?: false
    Max angular momentum: 2

  ==> DFJKGrad: Density-Fitted SCF Gradients <==

    Gradient:                    1
    J tasked:                  Yes
    K tasked:                  Yes
    wK tasked:                  No
    OpenMP threads:              1
    Integrals threads:           1
    Memory [MiB]:              375
    Schwarz Cutoff:          0E+00
    Fitting Condition:       1E-10

   => Auxiliary Basis Set <=

  Basis Set: (6-31++G** AUX)
    Blend: AUG-CC-PVDZ-JKFIT
    Number of shells: 156
    Number of basis function: 513
    Number of Cartesian functions: 513
    Spherical Harmonics?: false
    Max angular momentum: 3

  ==> DFT Potential <==

   => Composite Functional: B3LYP <= 

    B3LYP Hyb-GGA Exchange-Correlation Functional

    P. J. Stephens, F. J. Devlin, C. F. Chabalowski, and M. J. Frisch, J. Phys. Chem. 98, 11623 (1994)

    Deriv               =              1
    GGA                 =           TRUE
    Meta                =          FALSE

    Exchange Hybrid     =           TRUE
    MP2 Hybrid          =          FALSE

   => Exchange Functionals <=

    0.0800   Slater exchange
    0.7200         Becke 88

   => Exact (HF) Exchange <=

    0.2000               HF 

   => Correlation Functionals <=

    0.1900   Vosko, Wilk & Nusair (VWN5_RPA)
    0.8100   Lee, Yang & Parr

   => Molecular Quadrature <=

    Radial Scheme          =       TREUTLER
    Pruning Scheme         =           FLAT
    Nuclear Scheme         =       TREUTLER

    BS radius alpha        =              1
    Pruning alpha          =              1
    Radial Points          =             75
    Spherical Points       =            302
    Total Points           =         203850
    Total Blocks           =           1568
    Max Points             =            256
    Max Functions          =             93


  -Total Gradient:
     Atom            X                  Y                   Z
    ------   -----------------  -----------------  -----------------
       1       -0.000590976462    -0.000415270147     0.000000000000
       2        0.000437041150     0.000171646124     0.000000000000
       3       -0.000055921662     0.000129105875     0.000000000000
       4        0.000666700574     0.001508887745    -0.004347543659
       5        0.000666700574     0.001508887745     0.004347543659
       6       -0.001529699183    -0.000208152123     0.004251733293
       7       -0.001529699183    -0.000208152123    -0.004251733293
       8        0.000965790315    -0.001246478325    -0.004250078533
       9        0.000965790315    -0.001246478325     0.004250078533


*** tstop() called on atlantis at Tue Apr 19 14:21:54 2022
Module time:
	user time   =       1.53 seconds =       0.03 minutes
	system time =       0.01 seconds =       0.00 minutes
	total time  =          2 seconds =       0.03 minutes
Total time:
	user time   =      25.60 seconds =       0.43 minutes
	system time =       0.23 seconds =       0.00 minutes
	total time  =         26 seconds =       0.43 minutes

  //>>>>>>>>>>>>>>>>>>>>>>>>>>>>>>>>>>>//
  //    Loading displacement 3 of 34   //
  //<<<<<<<<<<<<<<<<<<<<<<<<<<<<<<<<<<<//
gradient() will perform analytic gradient computation.

*** tstart() called on atlantis
*** at Tue Apr 19 14:21:54 2022

   => Loading Basis Set <=

    Name: 6-31++G**
    Role: ORBITAL
    Keyword: BASIS
    atoms 1-3 entry C          line   115 file /home/akrom/software/anaconda3/envs/ffpenv/share/psi4/basis/6-31ppgss.gbs 
    atoms 4-9 entry H          line    46 file /home/akrom/software/anaconda3/envs/ffpenv/share/psi4/basis/6-31ppgss.gbs 


         ---------------------------------------------------------
                                   SCF
               by Justin Turney, Rob Parrish, Andy Simmonett
                          and Daniel G. A. Smith
                              RKS Reference
                        1 Threads,    500 MiB Core
         ---------------------------------------------------------

  ==> Geometry <==

    Molecular point group: cs
    Full point group: Cs

    Geometry (in Angstrom), charge = 0, multiplicity = 1:

       Center              X                  Y                   Z               Mass       
    ------------   -----------------  -----------------  -----------------  -----------------
         C            0.322081944250     0.813343688021     0.000000000000    12.000000000000
         C           -0.865318003082    -0.128389764139     0.000000000000    12.000000000000
         C            0.543404419293    -0.684939538412     0.000000000000    12.000000000000
         H            0.537301240642     1.360829034576    -0.920390000000     1.007825032230
         H            0.537301240642     1.360829034576     0.920390000000     1.007825032230
         H           -1.447665927882    -0.214858697572     0.920340000000     1.007825032230
         H           -1.447665927882    -0.214858697572    -0.920340000000     1.007825032230
         H            0.909362367658    -1.146055979665    -0.920370000000     1.007825032230
         H            0.909362367658    -1.146055979665     0.920370000000     1.007825032230

  Running in cs symmetry.

  Rotational constants: A =      0.66489  B =      0.66431  C =      0.41639 [cm^-1]
  Rotational constants: A =  19932.94970  B =  19915.53021  C =  12482.92073 [MHz]
  Nuclear repulsion =   75.276267816162189

  Charge       = 0
  Multiplicity = 1
  Electrons    = 24
  Nalpha       = 12
  Nbeta        = 12

  ==> Algorithm <==

  SCF Algorithm Type is DF.
  DIIS enabled.
  MOM disabled.
  Fractional occupation disabled.
  Guess Type is SAD.
  Energy threshold   = 1.00e-08
  Density threshold  = 1.00e-08
  Integral threshold = 0.00e+00

  ==> Primary Basis <==

  Basis Set: 6-31++G**
    Blend: 6-31++G**
    Number of shells: 48
    Number of basis function: 93
    Number of Cartesian functions: 93
    Spherical Harmonics?: false
    Max angular momentum: 2

  ==> DFT Potential <==

   => Composite Functional: B3LYP <= 

    B3LYP Hyb-GGA Exchange-Correlation Functional

    P. J. Stephens, F. J. Devlin, C. F. Chabalowski, and M. J. Frisch, J. Phys. Chem. 98, 11623 (1994)

    Deriv               =              1
    GGA                 =           TRUE
    Meta                =          FALSE

    Exchange Hybrid     =           TRUE
    MP2 Hybrid          =          FALSE

   => Exchange Functionals <=

    0.0800   Slater exchange
    0.7200         Becke 88

   => Exact (HF) Exchange <=

    0.2000               HF 

   => Correlation Functionals <=

    0.1900   Vosko, Wilk & Nusair (VWN5_RPA)
    0.8100   Lee, Yang & Parr

   => Molecular Quadrature <=

    Radial Scheme          =       TREUTLER
    Pruning Scheme         =           FLAT
    Nuclear Scheme         =       TREUTLER

    BS radius alpha        =              1
    Pruning alpha          =              1
    Radial Points          =             75
    Spherical Points       =            302
    Total Points           =         203850
    Total Blocks           =           1573
    Max Points             =            256
    Max Functions          =             93

   => Loading Basis Set <=

    Name: (6-31++G** AUX)
    Role: JKFIT
    Keyword: DF_BASIS_SCF
    atoms 1-3 entry C          line   154 file /home/akrom/software/anaconda3/envs/ffpenv/share/psi4/basis/aug-cc-pvdz-jkfit.gbs 
    atoms 4-9 entry H          line    70 file /home/akrom/software/anaconda3/envs/ffpenv/share/psi4/basis/aug-cc-pvdz-jkfit.gbs 

  ==> Pre-Iterations <==

   -------------------------------------------------------
    Irrep   Nso     Nmo     Nalpha   Nbeta   Ndocc  Nsocc
   -------------------------------------------------------
     A'        60      60       0       0       0       0
     A"        33      33       0       0       0       0
   -------------------------------------------------------
    Total      93      93      12      12      12       0
   -------------------------------------------------------

  ==> Integral Setup <==

  DFHelper Memory: AOs need 0.037 GiB; user supplied 0.037 GiB. Using in-core AOs.

  ==> MemDFJK: Density-Fitted J/K Matrices <==

    J tasked:                   Yes
    K tasked:                   Yes
    wK tasked:                   No
    OpenMP threads:               1
    Memory [MiB]:                37
    Algorithm:                 Core
    Schwarz Cutoff:           1E-12
    Mask sparsity (%):       0.0000
    Fitting Condition:        1E-10

   => Auxiliary Basis Set <=

  Basis Set: (6-31++G** AUX)
    Blend: AUG-CC-PVDZ-JKFIT
    Number of shells: 156
    Number of basis function: 513
    Number of Cartesian functions: 513
    Spherical Harmonics?: false
    Max angular momentum: 3

  Cached 100.0% of DFT collocation blocks in 0.486 [GiB].

  Minimum eigenvalue in the overlap matrix is 1.8832294420E-04.
  Using Symmetric Orthogonalization.

  SCF Guess: Superposition of Atomic Densities via on-the-fly atomic UHF.

  ==> Iterations <==

                           Total Energy        Delta E     RMS |[F,P]|

   @DF-RKS iter SAD:  -117.37688322308057   -1.17377e+02   0.00000e+00 
   @DF-RKS iter   1:  -117.44396326762264   -6.70800e-02   1.33879e-02 DIIS
   @DF-RKS iter   2:  -116.85059704642529    5.93366e-01   1.97529e-02 DIIS
   @DF-RKS iter   3:  -117.90766209342155   -1.05707e+00   7.70633e-04 DIIS
   @DF-RKS iter   4:  -117.90918376150660   -1.52167e-03   1.48653e-04 DIIS
   @DF-RKS iter   5:  -117.90923285898887   -4.90975e-05   2.20328e-05 DIIS
   @DF-RKS iter   6:  -117.90923411221235   -1.25322e-06   1.26849e-06 DIIS
   @DF-RKS iter   7:  -117.90923411402551   -1.81316e-09   1.39877e-06 DIIS
   @DF-RKS iter   8:  -117.90923411855854   -4.53304e-09   7.58575e-08 DIIS
   @DF-RKS iter   9:  -117.90923411857523   -1.66835e-11   3.87483e-09 DIIS
  Energy and wave function converged.


  ==> Post-Iterations <==

    Orbital Energies [Eh]
    ---------------------

    Doubly Occupied:                                                      

       1Ap   -10.191560     2Ap   -10.191203     3Ap   -10.191187  
       4Ap    -0.847255     5Ap    -0.596114     6Ap    -0.596033  
       1App   -0.492383     7Ap    -0.463649     2App   -0.364627  
       3App   -0.364513     8Ap    -0.295116     9Ap    -0.294739  

    Virtual:                                                              

      10Ap    -0.001973     4App    0.013180    11Ap     0.015775  
      12Ap     0.015777     5App    0.058188     6App    0.058204  
      13Ap     0.068921    14Ap     0.084601    15Ap     0.084643  
      16Ap     0.101847    17Ap     0.127391    18Ap     0.127405  
       7App    0.135705    19Ap     0.149843    20Ap     0.155998  
      21Ap     0.156001     8App    0.164615     9App    0.164684  
      22Ap     0.196756    10App    0.199937    23Ap     0.240185  
      24Ap     0.287011    25Ap     0.287236    11App    0.296584  
      12App    0.296934    26Ap     0.353563    27Ap     0.353732  
      28Ap     0.597186    29Ap     0.671715    30Ap     0.671900  
      13App    0.734996    31Ap     0.753504    32Ap     0.753720  
      33Ap     0.764636    14App    0.791047    15App    0.791285  
      16App    0.914973    34Ap     0.946625    35Ap     0.991465  
      17App    1.050545    18App    1.051101    36Ap     1.069728  
      37Ap     1.069757    38Ap     1.288770    39Ap     1.288847  
      40Ap     1.550396    19App    1.601746    20App    1.612550  
      21App    1.612661    41Ap     1.777039    42Ap     1.777262  
      22App    1.877289    43Ap     2.075114    23App    2.081120  
      24App    2.081330    25App    2.220953    44Ap     2.228620  
      45Ap     2.229113    46Ap     2.289698    47Ap     2.290022  
      26App    2.378001    27App    2.378562    48Ap     2.402501  
      49Ap     2.532788    50Ap     2.532955    51Ap     2.678973  
      28App    2.686613    29App    2.686734    30App    2.812924  
      52Ap     2.837788    53Ap     2.930220    54Ap     2.930700  
      55Ap     3.203928    31App    3.318693    56Ap     3.398792  
      57Ap     3.399441    32App    3.558850    33App    3.559688  
      58Ap     4.284073    59Ap     4.554491    60Ap     4.554516  

    Final Occupation by Irrep:
             Ap   App 
    DOCC [     9,    3 ]

  @DF-RKS Final Energy:  -117.90923411857523

   => Energetics <=

    Nuclear Repulsion Energy =             75.2762678161621892
    One-Electron Energy =                -305.8360076513131389
    Two-Electron Energy =                 127.6113848806969031
    DFT Exchange-Correlation Energy =     -14.9608791641211987
    Empirical Dispersion Energy =           0.0000000000000000
    VV10 Nonlocal Energy =                  0.0000000000000000
    Total Energy =                       -117.9092341185752275

Computation Completed


Properties will be evaluated at   0.000000,   0.000000,   0.000000 [a0]

Properties computed using the SCF density matrix

  Nuclear Dipole Moment: [e a0]
     X:    -0.0019      Y:    -0.0002      Z:     0.0000

  Electronic Dipole Moment: [e a0]
     X:     0.0020      Y:    -0.0001      Z:     0.0000

  Dipole Moment: [e a0]
     X:     0.0001      Y:    -0.0002      Z:     0.0000     Total:     0.0002

  Dipole Moment: [D]
     X:     0.0003      Y:    -0.0006      Z:     0.0000     Total:     0.0006


*** tstop() called on atlantis at Tue Apr 19 14:21:59 2022
Module time:
	user time   =       5.38 seconds =       0.09 minutes
	system time =       0.02 seconds =       0.00 minutes
	total time  =          5 seconds =       0.08 minutes
Total time:
	user time   =      30.99 seconds =       0.52 minutes
	system time =       0.25 seconds =       0.00 minutes
	total time  =         31 seconds =       0.52 minutes

*** tstart() called on atlantis
*** at Tue Apr 19 14:21:59 2022


         ------------------------------------------------------------
                                   SCF GRAD                          
                          Rob Parrish, Justin Turney,                
                       Andy Simmonett, and Alex Sokolov              
         ------------------------------------------------------------

  ==> Geometry <==

    Molecular point group: cs
    Full point group: Cs

    Geometry (in Angstrom), charge = 0, multiplicity = 1:

       Center              X                  Y                   Z               Mass       
    ------------   -----------------  -----------------  -----------------  -----------------
         C            0.322081944250     0.813343688021     0.000000000000    12.000000000000
         C           -0.865318003082    -0.128389764139     0.000000000000    12.000000000000
         C            0.543404419293    -0.684939538412     0.000000000000    12.000000000000
         H            0.537301240642     1.360829034576    -0.920390000000     1.007825032230
         H            0.537301240642     1.360829034576     0.920390000000     1.007825032230
         H           -1.447665927882    -0.214858697572     0.920340000000     1.007825032230
         H           -1.447665927882    -0.214858697572    -0.920340000000     1.007825032230
         H            0.909362367658    -1.146055979665    -0.920370000000     1.007825032230
         H            0.909362367658    -1.146055979665     0.920370000000     1.007825032230

  Nuclear repulsion =   75.276267816162189

  ==> Basis Set <==

  Basis Set: 6-31++G**
    Blend: 6-31++G**
    Number of shells: 48
    Number of basis function: 93
    Number of Cartesian functions: 93
    Spherical Harmonics?: false
    Max angular momentum: 2

  ==> DFJKGrad: Density-Fitted SCF Gradients <==

    Gradient:                    1
    J tasked:                  Yes
    K tasked:                  Yes
    wK tasked:                  No
    OpenMP threads:              1
    Integrals threads:           1
    Memory [MiB]:              375
    Schwarz Cutoff:          0E+00
    Fitting Condition:       1E-10

   => Auxiliary Basis Set <=

  Basis Set: (6-31++G** AUX)
    Blend: AUG-CC-PVDZ-JKFIT
    Number of shells: 156
    Number of basis function: 513
    Number of Cartesian functions: 513
    Spherical Harmonics?: false
    Max angular momentum: 3

  ==> DFT Potential <==

   => Composite Functional: B3LYP <= 

    B3LYP Hyb-GGA Exchange-Correlation Functional

    P. J. Stephens, F. J. Devlin, C. F. Chabalowski, and M. J. Frisch, J. Phys. Chem. 98, 11623 (1994)

    Deriv               =              1
    GGA                 =           TRUE
    Meta                =          FALSE

    Exchange Hybrid     =           TRUE
    MP2 Hybrid          =          FALSE

   => Exchange Functionals <=

    0.0800   Slater exchange
    0.7200         Becke 88

   => Exact (HF) Exchange <=

    0.2000               HF 

   => Correlation Functionals <=

    0.1900   Vosko, Wilk & Nusair (VWN5_RPA)
    0.8100   Lee, Yang & Parr

   => Molecular Quadrature <=

    Radial Scheme          =       TREUTLER
    Pruning Scheme         =           FLAT
    Nuclear Scheme         =       TREUTLER

    BS radius alpha        =              1
    Pruning alpha          =              1
    Radial Points          =             75
    Spherical Points       =            302
    Total Points           =         203850
    Total Blocks           =           1573
    Max Points             =            256
    Max Functions          =             93


  -Total Gradient:
     Atom            X                  Y                   Z
    ------   -----------------  -----------------  -----------------
       1        0.000479073387     0.000117083461     0.000000000000
       2       -0.000103212633    -0.000105085366     0.000000000000
       3       -0.000127718583     0.000133232911     0.000000000000
       4        0.000476491338     0.001387558160    -0.004167445028
       5        0.000476491338     0.001387558160     0.004167445028
       6       -0.001566613660    -0.000255936809     0.004242153897
       7       -0.001566613660    -0.000255936809    -0.004242153897
       8        0.000964356089    -0.001206613508    -0.004254996212
       9        0.000964356089    -0.001206613508     0.004254996212


*** tstop() called on atlantis at Tue Apr 19 14:22:01 2022
Module time:
	user time   =       1.53 seconds =       0.03 minutes
	system time =       0.00 seconds =       0.00 minutes
	total time  =          2 seconds =       0.03 minutes
Total time:
	user time   =      32.52 seconds =       0.54 minutes
	system time =       0.25 seconds =       0.00 minutes
	total time  =         33 seconds =       0.55 minutes

  //>>>>>>>>>>>>>>>>>>>>>>>>>>>>>>>>>>>//
  //    Loading displacement 4 of 34   //
  //<<<<<<<<<<<<<<<<<<<<<<<<<<<<<<<<<<<//
gradient() will perform analytic gradient computation.

*** tstart() called on atlantis
*** at Tue Apr 19 14:22:01 2022

   => Loading Basis Set <=

    Name: 6-31++G**
    Role: ORBITAL
    Keyword: BASIS
    atoms 1-3 entry C          line   115 file /home/akrom/software/anaconda3/envs/ffpenv/share/psi4/basis/6-31ppgss.gbs 
    atoms 4-9 entry H          line    46 file /home/akrom/software/anaconda3/envs/ffpenv/share/psi4/basis/6-31ppgss.gbs 


         ---------------------------------------------------------
                                   SCF
               by Justin Turney, Rob Parrish, Andy Simmonett
                          and Daniel G. A. Smith
                              RKS Reference
                        1 Threads,    500 MiB Core
         ---------------------------------------------------------

  ==> Geometry <==

    Molecular point group: cs
    Full point group: Cs

    Geometry (in Angstrom), charge = 0, multiplicity = 1:

       Center              X                  Y                   Z               Mass       
    ------------   -----------------  -----------------  -----------------  -----------------
         C            0.321531939855     0.812635159068     0.000000000000    12.000000000000
         C           -0.865072120902    -0.128008550426     0.000000000000    12.000000000000
         C            0.543576026536    -0.684746186637     0.000000000000    12.000000000000
         H            0.537745691682     1.361023130555    -0.920390000000     1.007825032230
         H            0.537745691682     1.361023130555     0.920390000000     1.007825032230
         H           -1.447431558178    -0.214399813329     0.920340000000     1.007825032230
         H           -1.447431558178    -0.214399813329    -0.920340000000     1.007825032230
         H            0.909472463446    -1.145911419873    -0.920370000000     1.007825032230
         H            0.909472463446    -1.145911419873     0.920370000000     1.007825032230

  Running in cs symmetry.

  Rotational constants: A =      0.66518  B =      0.66468  C =      0.41665 [cm^-1]
  Rotational constants: A =  19941.69418  B =  19926.66026  C =  12490.72376 [MHz]
  Nuclear repulsion =   75.292327113354389

  Charge       = 0
  Multiplicity = 1
  Electrons    = 24
  Nalpha       = 12
  Nbeta        = 12

  ==> Algorithm <==

  SCF Algorithm Type is DF.
  DIIS enabled.
  MOM disabled.
  Fractional occupation disabled.
  Guess Type is SAD.
  Energy threshold   = 1.00e-08
  Density threshold  = 1.00e-08
  Integral threshold = 0.00e+00

  ==> Primary Basis <==

  Basis Set: 6-31++G**
    Blend: 6-31++G**
    Number of shells: 48
    Number of basis function: 93
    Number of Cartesian functions: 93
    Spherical Harmonics?: false
    Max angular momentum: 2

  ==> DFT Potential <==

   => Composite Functional: B3LYP <= 

    B3LYP Hyb-GGA Exchange-Correlation Functional

    P. J. Stephens, F. J. Devlin, C. F. Chabalowski, and M. J. Frisch, J. Phys. Chem. 98, 11623 (1994)

    Deriv               =              1
    GGA                 =           TRUE
    Meta                =          FALSE

    Exchange Hybrid     =           TRUE
    MP2 Hybrid          =          FALSE

   => Exchange Functionals <=

    0.0800   Slater exchange
    0.7200         Becke 88

   => Exact (HF) Exchange <=

    0.2000               HF 

   => Correlation Functionals <=

    0.1900   Vosko, Wilk & Nusair (VWN5_RPA)
    0.8100   Lee, Yang & Parr

   => Molecular Quadrature <=

    Radial Scheme          =       TREUTLER
    Pruning Scheme         =           FLAT
    Nuclear Scheme         =       TREUTLER

    BS radius alpha        =              1
    Pruning alpha          =              1
    Radial Points          =             75
    Spherical Points       =            302
    Total Points           =         203850
    Total Blocks           =           1577
    Max Points             =            256
    Max Functions          =             93

   => Loading Basis Set <=

    Name: (6-31++G** AUX)
    Role: JKFIT
    Keyword: DF_BASIS_SCF
    atoms 1-3 entry C          line   154 file /home/akrom/software/anaconda3/envs/ffpenv/share/psi4/basis/aug-cc-pvdz-jkfit.gbs 
[...]
    MP2 Hybrid          =          FALSE

   => Exchange Functionals <=

    0.0800   Slater exchange
    0.7200         Becke 88

   => Exact (HF) Exchange <=

    0.2000               HF 

   => Correlation Functionals <=

    0.1900   Vosko, Wilk & Nusair (VWN5_RPA)
    0.8100   Lee, Yang & Parr

   => Molecular Quadrature <=

    Radial Scheme          =       TREUTLER
    Pruning Scheme         =           FLAT
    Nuclear Scheme         =       TREUTLER

    BS radius alpha        =              1
    Pruning alpha          =              1
    Radial Points          =             75
    Spherical Points       =            302
    Total Points           =         203850
    Total Blocks           =           1569
    Max Points             =            256
    Max Functions          =             93


  -Total Gradient:
     Atom            X                  Y                   Z
    ------   -----------------  -----------------  -----------------
       1       -0.000061491665    -0.000140139254     0.000004268542
       2        0.000179171437     0.000030027198     0.000437699231
       3       -0.000096611070     0.000130993457    -0.001225177745
       4        0.000568031096     0.001441959615    -0.004258011994
       5        0.000574128569     0.001454424431     0.004255661535
       6       -0.001374560096    -0.000229438660     0.003970768145
       7       -0.001720936389    -0.000236338768    -0.004523577377
       8        0.000607719953    -0.000868594536    -0.003581583545
       9        0.001323382413    -0.001579344083     0.004920098557


*** tstop() called on atlantis at Tue Apr 19 14:25:39 2022
Module time:
	user time   =       1.55 seconds =       0.03 minutes
	system time =       0.01 seconds =       0.00 minutes
	total time  =          2 seconds =       0.03 minutes
Total time:
	user time   =     248.75 seconds =       4.15 minutes
	system time =       1.32 seconds =       0.02 minutes
	total time  =        251 seconds =       4.18 minutes

         ----------------------------------------------------------
                                   FINDIF
                     R. A. King and Jonathon Misiewicz
         ---------------------------------------------------------

  Computing second-derivative from gradients using projected, 
  symmetry-adapted, cartesian coordinates.

  34 gradients passed in, including the reference geometry.
  Generating complete list of displacements from unique ones.

    Operation 2 takes plus displacements of irrep A" to minus ones.

-------------------------------------------------------------


  ==> Harmonic Vibrational Analysis <==

  non-mass-weighted Hessian:       Symmetric? True   Hermitian? True   Lin Dep Dim?  6 (0)
  projection of translations (True) and rotations (True) removed 6 degrees of freedom (6)
  total projector:                 Symmetric? True   Hermitian? True   Lin Dep Dim?  6 (6)
  mass-weighted Hessian:           Symmetric? True   Hermitian? True   Lin Dep Dim?  6 (0)
  pre-proj  low-frequency mode:    0.0000i [cm^-1]
  pre-proj  low-frequency mode:    0.0000i [cm^-1]
  pre-proj  low-frequency mode:    0.0000i [cm^-1]
  pre-proj  low-frequency mode:    0.0000  [cm^-1]
  pre-proj  low-frequency mode:    0.0000  [cm^-1]
  pre-proj  low-frequency mode:    0.0001  [cm^-1]
  pre-proj  all modes:['0.0000i' '0.0000i' '0.0000i' '0.0000' '0.0000' '0.0001' '777.0073'
 '777.1769' '871.9826' '873.0113' '893.1987' '1070.6629' '1073.7779'
 '1102.0003' '1163.9954' '1204.2267' '1224.3585' '1224.4561' '1483.1265'
 '1483.3742' '1531.4342' '3075.8239' '3075.9958' '3083.2719' '3153.6951'
 '3153.7944' '3174.7625']
  projected mass-weighted Hessian: Symmetric? True   Hermitian? True   Lin Dep Dim?  6 (6)
  post-proj low-frequency mode:    0.0001i [cm^-1] (TR)
  post-proj low-frequency mode:    0.0000i [cm^-1] (TR)
  post-proj low-frequency mode:    0.0000i [cm^-1] (TR)
  post-proj low-frequency mode:    0.0000i [cm^-1] (TR)
  post-proj low-frequency mode:    0.0000  [cm^-1] (TR)
  post-proj low-frequency mode:    0.0000  [cm^-1] (TR)
  post-proj  all modes:['0.0001i' '0.0000i' '0.0000i' '0.0000i' '0.0000' '0.0000' '777.0073'
 '777.1769' '871.9826' '873.0113' '893.1987' '1070.6629' '1073.7779'
 '1102.0003' '1163.9954' '1204.2267' '1224.3585' '1224.4561' '1483.1265'
 '1483.3742' '1531.4342' '3075.8239' '3075.9958' '3083.2719' '3153.6951'
 '3153.7944' '3174.7625']

  Vibration                       7                   8                   9           
  Freq [cm^-1]                 777.0073            777.1769            871.9826       
  Irrep                          App                 App                  Ap          
  Reduced mass [u]              1.0211              1.0212              4.0503        
  Force const [mDyne/A]         0.3632              0.3634              1.8145        
  Turning point v=0 [a0]        0.3895              0.3895              0.1846        
  RMS dev v=0 [a0 u^1/2]        0.2783              0.2783              0.2628        
  Char temp [K]               1117.9404           1118.1845           1254.5888       
  ----------------------------------------------------------------------------------
      1   C               -0.00  0.00  0.03    0.00 -0.00  0.00   -0.19  0.23 -0.00   
      2   C                0.00 -0.00 -0.01    0.00  0.00 -0.03    0.31  0.06 -0.00   
      3   C               -0.00 -0.00 -0.01    0.00  0.00  0.02   -0.08 -0.29 -0.00   
      4   H               -0.13 -0.29 -0.18    0.41 -0.17 -0.01   -0.30  0.25 -0.01   
      5   H                0.13  0.29 -0.18   -0.41  0.17 -0.01   -0.30  0.25  0.01   
      6   H                0.21 -0.36  0.09    0.25  0.25  0.16    0.26  0.06 -0.03   
      7   H               -0.21  0.36  0.09   -0.25 -0.25  0.16    0.26  0.06  0.03   
      8   H                0.40  0.10  0.09    0.01  0.36 -0.15   -0.18 -0.33 -0.02   
      9   H               -0.40 -0.10  0.09   -0.01 -0.36 -0.15   -0.18 -0.33  0.02   

  Vibration                       10                  11                  12          
  Freq [cm^-1]                 873.0113            893.1987           1070.6629       
  Irrep                           Ap                 App                  Ap          
  Reduced mass [u]              4.0537              1.0441              1.2316        
  Force const [mDyne/A]         1.8203              0.4908              0.8318        
  Turning point v=0 [a0]        0.1844              0.3593              0.3022        
  RMS dev v=0 [a0 u^1/2]        0.2626              0.2596              0.2371        
  Char temp [K]               1256.0689           1285.1141           1540.4456       
  ----------------------------------------------------------------------------------
      1   C               -0.23 -0.21  0.00    0.00 -0.00 -0.03    0.05 -0.00 -0.00   
      2   C               -0.06  0.29  0.00   -0.00  0.00 -0.03    0.02 -0.11  0.00   
      3   C                0.29 -0.11 -0.00    0.00  0.00 -0.03   -0.06 -0.03  0.00   
      4   H               -0.26 -0.15  0.03    0.13  0.33  0.20   -0.22  0.08 -0.01   
      5   H               -0.26 -0.15 -0.03   -0.13 -0.33  0.20   -0.22  0.08  0.01   
      6   H               -0.08  0.40  0.00    0.35  0.05  0.20   -0.09  0.56 -0.00   
      7   H               -0.08  0.40 -0.00   -0.35 -0.05  0.20   -0.09  0.56  0.00   
      8   H                0.31 -0.03 -0.03    0.22 -0.28  0.20    0.27  0.21  0.01   
      9   H                0.31 -0.03  0.03   -0.22  0.28  0.20    0.27  0.21 -0.01   

  Vibration                       13                  14                  15          
  Freq [cm^-1]                1073.7779           1102.0003           1163.9954       
  Irrep                           Ap                  Ap                 App          
  Reduced mass [u]              1.2328              1.4254              1.0078        
  Force const [mDyne/A]         0.8375              1.0199              0.8045        
  Turning point v=0 [a0]        0.3016              0.2769              0.3204        
  RMS dev v=0 [a0 u^1/2]        0.2368              0.2337              0.2274        
  Char temp [K]               1544.9273           1585.5331           1674.7303       
  ----------------------------------------------------------------------------------
      1   C               -0.10  0.05 -0.00   -0.10  0.04  0.00    0.00  0.00 -0.00   
      2   C                0.02  0.01  0.00    0.02 -0.11 -0.00   -0.00 -0.00  0.00   
      3   C               -0.06 -0.07  0.00    0.09  0.07  0.00    0.00 -0.00 -0.00   
      4   H                0.49 -0.20 -0.01    0.36 -0.14  0.00   -0.38  0.15  0.00   
      5   H                0.49 -0.20  0.01    0.36 -0.14 -0.00    0.38 -0.15  0.00   
      6   H                0.00 -0.06 -0.02   -0.06  0.40 -0.00   -0.06  0.40 -0.00   
      7   H                0.00 -0.06  0.02   -0.06  0.40  0.00    0.06 -0.40 -0.00   
      8   H                0.35  0.29 -0.01   -0.32 -0.25  0.00    0.32  0.25  0.00   
      9   H                0.35  0.29  0.01   -0.32 -0.25 -0.00   -0.32 -0.25  0.00   

  Vibration                       16                  17                  18          
  Freq [cm^-1]                1204.2267           1224.3585           1224.4561       
  Irrep                           Ap                 App                 App          
  Reduced mass [u]              2.8216              1.4513              1.4512        
  Force const [mDyne/A]         2.4108              1.2818              1.2819        
  Turning point v=0 [a0]        0.1882              0.2603              0.2603        
  RMS dev v=0 [a0 u^1/2]        0.2236              0.2217              0.2217        
  Char temp [K]               1732.6141           1761.5792           1761.7197       
  ----------------------------------------------------------------------------------
      1   C               -0.09 -0.22 -0.00    0.00 -0.00  0.16   -0.00 -0.00 -0.03   
      2   C                0.23  0.03 -0.00    0.00 -0.00 -0.06    0.00 -0.00  0.15   
      3   C               -0.14  0.18  0.00   -0.00 -0.00 -0.10   -0.00  0.00 -0.13   
      4   H               -0.14 -0.34 -0.06   -0.09 -0.39 -0.09    0.38 -0.08  0.01   
      5   H               -0.14 -0.34  0.06    0.09  0.39 -0.09   -0.38  0.08  0.01   
      6   H                0.37  0.06  0.06    0.09  0.38  0.03   -0.39  0.08 -0.08   
      7   H                0.37  0.06 -0.06   -0.09 -0.38  0.03    0.39 -0.08 -0.08   
      8   H               -0.23  0.28 -0.06   -0.07 -0.39  0.05    0.39 -0.09  0.07   
      9   H               -0.23  0.28  0.06    0.07  0.39  0.05   -0.39  0.09  0.07   

  Vibration                       19                  20                  21          
  Freq [cm^-1]                1483.1265           1483.3742           1531.4342       
  Irrep                           Ap                  Ap                  Ap          
  Reduced mass [u]              1.0885              1.0891              1.2954        
  Force const [mDyne/A]         1.4107              1.4119              1.7900        
  Turning point v=0 [a0]        0.2731              0.2730              0.2464        
  RMS dev v=0 [a0 u^1/2]        0.2015              0.2015              0.1983        
  Char temp [K]               2133.8889           2134.2452           2203.3928       
  ----------------------------------------------------------------------------------
      1   C               -0.01  0.00 -0.00   -0.03 -0.06  0.00   -0.03 -0.09 -0.00   
      2   C               -0.06 -0.00 -0.00   -0.03 -0.02 -0.00    0.09  0.01  0.00   
      3   C               -0.04  0.04  0.00    0.01 -0.03 -0.00   -0.06  0.07  0.00   
      4   H                0.01 -0.00  0.00    0.17  0.44  0.33    0.12  0.29  0.25   
      5   H                0.01 -0.00 -0.00    0.17  0.44 -0.33    0.12  0.29 -0.25   
      6   H                0.40  0.05  0.28    0.23  0.05  0.17   -0.31 -0.05 -0.26   
      7   H                0.40  0.05 -0.28    0.23  0.05 -0.17   -0.31 -0.05  0.26   
      8   H                0.26 -0.32  0.29   -0.14  0.19 -0.16    0.19 -0.24  0.25   
      9   H                0.26 -0.32 -0.29   -0.14  0.19  0.16    0.19 -0.24 -0.25   

  Vibration                       22                  23                  24          
  Freq [cm^-1]                3075.8239           3075.9958           3083.2719       
  Irrep                           Ap                  Ap                  Ap          
  Reduced mass [u]              1.0498              1.0499              1.0622        
  Force const [mDyne/A]         5.8519              5.8530              5.9493        
  Turning point v=0 [a0]        0.1931              0.1931              0.1917        
  RMS dev v=0 [a0 u^1/2]        0.1399              0.1399              0.1397        
  Char temp [K]               4425.4258           4425.6731           4436.1418       
  ----------------------------------------------------------------------------------
      1   C                0.01  0.02 -0.00    0.02  0.04  0.00    0.01  0.04  0.00   
      2   C                0.05  0.01 -0.00    0.01  0.00  0.00   -0.04 -0.01 -0.00   
      3   C                0.02 -0.03  0.00   -0.02  0.03 -0.00    0.03 -0.03 -0.00   
      4   H               -0.04 -0.10  0.18   -0.10 -0.26  0.46   -0.08 -0.19  0.34   
      5   H               -0.04 -0.10 -0.18   -0.10 -0.26 -0.46   -0.08 -0.19 -0.34   
      6   H               -0.29 -0.04  0.48   -0.05 -0.01  0.08    0.21  0.03 -0.35   
      7   H               -0.29 -0.04 -0.48   -0.05 -0.01 -0.08    0.21  0.03  0.35   
      8   H               -0.12  0.15  0.31    0.14 -0.18 -0.38   -0.13  0.16  0.35   
      9   H               -0.12  0.15 -0.31    0.14 -0.18  0.38   -0.13  0.16 -0.35   

  Vibration                       25                  26                  27          
  Freq [cm^-1]                3153.6951           3153.7944           3174.7625       
  Irrep                          App                 App                 App          
  Reduced mass [u]              1.1200              1.1201              1.1161        
  Force const [mDyne/A]         6.5633              6.5638              6.6277        
  Turning point v=0 [a0]        0.1846              0.1846              0.1843        
  RMS dev v=0 [a0 u^1/2]        0.1382              0.1382              0.1377        
  Char temp [K]               4537.4651           4537.6080           4567.7763       
  ----------------------------------------------------------------------------------
      1   C               -0.00 -0.00  0.05   -0.00 -0.00  0.06    0.00  0.00 -0.06   
      2   C                0.00 -0.00 -0.08    0.00 -0.00  0.02    0.00  0.00 -0.06   
      3   C               -0.00  0.00  0.03    0.00 -0.00 -0.08   -0.00  0.00 -0.06   
      4   H                0.07  0.19 -0.32    0.09  0.21 -0.36   -0.08 -0.21  0.34   
      5   H               -0.07 -0.19 -0.32   -0.09 -0.21 -0.36    0.08  0.21  0.34   
      6   H               -0.30 -0.04  0.47    0.06  0.01 -0.10   -0.22 -0.03  0.34   
      7   H                0.30  0.04  0.47   -0.06 -0.01 -0.10    0.22  0.03  0.34   
      8   H                0.06 -0.08 -0.15   -0.18  0.23  0.46   -0.14  0.17  0.34   
      9   H               -0.06  0.08 -0.15    0.18 -0.23  0.46    0.14 -0.17  0.34   

  ==> Thermochemistry Components <==

  Entropy, S
    Electronic S            0.000 [cal/(mol K)]        0.000 [J/(mol K)]       0.00000000 [mEh/K] (multiplicity = 1)
    Translational S        37.135 [cal/(mol K)]      155.375 [J/(mol K)]       0.05917914 [mEh/K] (mol. weight = 42.0470 [u], P = 101325.00 [Pa])
    Rotational S           21.699 [cal/(mol K)]       90.789 [J/(mol K)]       0.03457982 [mEh/K] (symmetry no. = 1)
    Vibrational S           1.309 [cal/(mol K)]        5.477 [J/(mol K)]       0.00208597 [mEh/K]
  Total S                  60.144 [cal/(mol K)]      251.641 [J/(mol K)]       0.09584493 [mEh/K]
  Correction S              0.000 [cal/(mol K)]        0.000 [J/(mol K)]       0.00000000 [mEh/K]

  Constant volume heat capacity, Cv
    Electronic Cv           0.000 [cal/(mol K)]        0.000 [J/(mol K)]       0.00000000 [mEh/K]
    Translational Cv        2.981 [cal/(mol K)]       12.472 [J/(mol K)]       0.00475022 [mEh/K]
    Rotational Cv           2.981 [cal/(mol K)]       12.472 [J/(mol K)]       0.00475022 [mEh/K]
    Vibrational Cv          4.890 [cal/(mol K)]       20.460 [J/(mol K)]       0.00779276 [mEh/K]
  Total Cv                 10.852 [cal/(mol K)]       45.403 [J/(mol K)]       0.01729319 [mEh/K]
  Correction Cv             0.000 [cal/(mol K)]        0.000 [J/(mol K)]       0.00000000 [mEh/K]

  Constant pressure heat capacity, Cp
    Electronic Cp           0.000 [cal/(mol K)]        0.000 [J/(mol K)]       0.00000000 [mEh/K]
    Translational Cp        4.968 [cal/(mol K)]       20.786 [J/(mol K)]       0.00791703 [mEh/K]
    Rotational Cp           2.981 [cal/(mol K)]       12.472 [J/(mol K)]       0.00475022 [mEh/K]
    Vibrational Cp          4.890 [cal/(mol K)]       20.460 [J/(mol K)]       0.00779276 [mEh/K]
  Total Cp                 12.839 [cal/(mol K)]       53.718 [J/(mol K)]       0.02046000 [mEh/K]
  Correction Cp             0.000 [cal/(mol K)]        0.000 [J/(mol K)]       0.00000000 [mEh/K]

  ==> Thermochemistry Energy Analysis <==

  Raw electronic energy, E0
  Total E0, Electronic energy at well bottom at 0 [K]                 -117.90922993 [Eh]

  Zero-point energy, ZPE_vib = Sum_i nu_i / 2
    Electronic ZPE          0.000 [kcal/mol]        0.000 [kJ/mol]       0.00000000 [Eh]
    Translational ZPE       0.000 [kcal/mol]        0.000 [kJ/mol]       0.00000000 [Eh]
    Rotational ZPE          0.000 [kcal/mol]        0.000 [kJ/mol]       0.00000000 [Eh]
    Vibrational ZPE        50.709 [kcal/mol]      212.164 [kJ/mol]       0.08080919 [Eh]       17735.566 [cm^-1]
  Correction ZPE           50.709 [kcal/mol]      212.164 [kJ/mol]       0.08080919 [Eh]       17735.566 [cm^-1]
  Total ZPE, Electronic energy at 0 [K]                               -117.82842074 [Eh]

  Thermal Energy, E (includes ZPE)
    Electronic E            0.000 [kcal/mol]        0.000 [kJ/mol]       0.00000000 [Eh]
    Translational E         0.889 [kcal/mol]        3.718 [kJ/mol]       0.00141628 [Eh]
    Rotational E            0.889 [kcal/mol]        3.718 [kJ/mol]       0.00141628 [Eh]
    Vibrational E          51.027 [kcal/mol]      213.496 [kJ/mol]       0.08131635 [Eh]
  Correction E             52.804 [kcal/mol]      220.933 [kJ/mol]       0.08414891 [Eh]
  Total E, Electronic energy at  298.15 [K]                           -117.82508102 [Eh]

  Enthalpy, H_trans = E_trans + k_B * T
    Electronic H            0.000 [kcal/mol]        0.000 [kJ/mol]       0.00000000 [Eh]
    Translational H         1.481 [kcal/mol]        6.197 [kJ/mol]       0.00236046 [Eh]
    Rotational H            0.889 [kcal/mol]        3.718 [kJ/mol]       0.00141628 [Eh]
    Vibrational H          51.027 [kcal/mol]      213.496 [kJ/mol]       0.08131635 [Eh]
  Correction H             53.397 [kcal/mol]      223.412 [kJ/mol]       0.08509309 [Eh]
  Total H, Enthalpy at  298.15 [K]                                    -117.82413684 [Eh]

  Gibbs free energy, G = H - T * S
    Electronic G            0.000 [kcal/mol]        0.000 [kJ/mol]       0.00000000 [Eh]
    Translational G        -9.591 [kcal/mol]      -40.128 [kJ/mol]      -0.01528380 [Eh]
    Rotational G           -5.581 [kcal/mol]      -23.350 [kJ/mol]      -0.00889370 [Eh]
    Vibrational G          50.637 [kcal/mol]      211.863 [kJ/mol]       0.08069442 [Eh]
  Correction G             35.465 [kcal/mol]      148.385 [kJ/mol]       0.05651693 [Eh]
  Total G, Free enthalpy at  298.15 [K]                               -117.85271300 [Eh]

    Psi4 stopped on: Tuesday, 19 April 2022 02:25PM
    Psi4 wall time for execution: 0:04:10.87

*** Psi4 exiting successfully. Buy a developer a beer!
