
    -----------------------------------------------------------------------
          Psi4: An Open-Source Ab Initio Electronic Structure Package
                               Psi4 1.3.2 release

                         Git: Rev {HEAD} ecbda83 


    R. M. Parrish, L. A. Burns, D. G. A. Smith, A. C. Simmonett,
    A. E. DePrince III, E. G. Hohenstein, U. Bozkaya, A. Yu. Sokolov,
    R. Di Remigio, R. M. Richard, J. F. Gonthier, A. M. James,
    H. R. McAlexander, A. Kumar, M. Saitow, X. Wang, B. P. Pritchard,
    P. Verma, H. F. Schaefer III, K. Patkowski, R. A. King, E. F. Valeev,
    F. A. Evangelista, J. M. Turney, T. D. Crawford, and C. D. Sherrill,
    J. Chem. Theory Comput. 13(7) pp 3185--3197 (2017).
    (doi: 10.1021/acs.jctc.7b00174)


                         Additional Contributions by
    P. Kraus, H. Kruse, M. H. Lechner, M. C. Schieber, R. A. Shaw,
    A. Alenaizan, R. Galvelis, Z. L. Glick, S. Lehtola, and J. P. Misiewicz

    -----------------------------------------------------------------------


    Psi4 started on: Tuesday, 19 April 2022 02:12AM

    Process ID: 26029
    Host:       atlantis
    PSIDATADIR: /home/akrom/software/anaconda3/envs/ffpenv/share/psi4
    Memory:     500.0 MiB
    Threads:    1
    
  ==> Input File <==

--------------------------------------------------------------------------
set basis  cc-pVTZ
molecule {
0 1
   C       -0.61446        0.00000        0.00000
   C        0.61446        0.00000        0.00000
   H       -1.68923        0.00000        0.00000
   H        1.68923        0.00000        0.00000
}
energy('m06-2x')
frequencies('m06-2x')
--------------------------------------------------------------------------

*** tstart() called on atlantis
*** at Tue Apr 19 02:12:55 2022

   => Loading Basis Set <=

    Name: CC-PVTZ
    Role: ORBITAL
    Keyword: BASIS
    atoms 1-2 entry C          line   186 file /home/akrom/software/anaconda3/envs/ffpenv/share/psi4/basis/cc-pvtz.gbs 
    atoms 3-4 entry H          line    23 file /home/akrom/software/anaconda3/envs/ffpenv/share/psi4/basis/cc-pvtz.gbs 


         ---------------------------------------------------------
                                   SCF
               by Justin Turney, Rob Parrish, Andy Simmonett
                          and Daniel G. A. Smith
                              RKS Reference
                        1 Threads,    500 MiB Core
         ---------------------------------------------------------

  ==> Geometry <==

    Molecular point group: d2h
    Full point group: D_inf_h

    Geometry (in Angstrom), charge = 0, multiplicity = 1:

       Center              X                  Y                   Z               Mass       
    ------------   -----------------  -----------------  -----------------  -----------------
         C           -0.614460000000    -0.000000000000     0.000000000000    12.000000000000
         C            0.614460000000     0.000000000000     0.000000000000    12.000000000000
         H           -1.689230000000    -0.000000000000     0.000000000000     1.007825032230
         H            1.689230000000     0.000000000000     0.000000000000     1.007825032230

  Running in d2h symmetry.

  Rotational constants: A = ************  B =      1.13802  C =      1.13802 [cm^-1]
  Rotational constants: A = ************  B =  34116.98697  C =  34116.98697 [MHz]
  Nuclear repulsion =   24.323218171379235

  Charge       = 0
  Multiplicity = 1
  Electrons    = 14
  Nalpha       = 7
  Nbeta        = 7

  ==> Algorithm <==

  SCF Algorithm Type is DF.
  DIIS enabled.
  MOM disabled.
  Fractional occupation disabled.
  Guess Type is SAD.
  Energy threshold   = 1.00e-06
  Density threshold  = 1.00e-06
  Integral threshold = 0.00e+00

  ==> Primary Basis <==

  Basis Set: CC-PVTZ
    Blend: CC-PVTZ
    Number of shells: 32
    Number of basis function: 88
    Number of Cartesian functions: 100
    Spherical Harmonics?: true
    Max angular momentum: 3

  ==> DFT Potential <==

   => Composite Functional: M06-2X <= 

    Hybrid M06-2X Meta-GGA XC Functional

    Y. Zhao and D. G. Truhlar,  Theor. Chem. Acc., 120, 215, 2008


    Deriv               =              1
    GGA                 =           TRUE
    Meta                =           TRUE

    Exchange Hybrid     =           TRUE
    MP2 Hybrid          =          FALSE

   => Exchange Functionals <=

    1.0000   XC_HYB_MGGA_X_M06_2X

   => Exact (HF) Exchange <=

    0.5400               HF 

   => Correlation Functionals <=

    1.0000   XC_MGGA_C_M06_2X

   => Molecular Quadrature <=

    Radial Scheme          =       TREUTLER
    Pruning Scheme         =           FLAT
    Nuclear Scheme         =       TREUTLER

    BS radius alpha        =              1
    Pruning alpha          =              1
    Radial Points          =             75
    Spherical Points       =            302
    Total Points           =          88542
    Total Blocks           =            734
    Max Points             =            253
    Max Functions          =             88

   => Loading Basis Set <=

    Name: (CC-PVTZ AUX)
    Role: JKFIT
    Keyword: DF_BASIS_SCF
    atoms 1-2 entry C          line   125 file /home/akrom/software/anaconda3/envs/ffpenv/share/psi4/basis/cc-pvtz-jkfit.gbs 
    atoms 3-4 entry H          line    51 file /home/akrom/software/anaconda3/envs/ffpenv/share/psi4/basis/cc-pvtz-jkfit.gbs 

  ==> Pre-Iterations <==

   -------------------------------------------------------
    Irrep   Nso     Nmo     Nalpha   Nbeta   Ndocc  Nsocc
   -------------------------------------------------------
     Ag        20      20       0       0       0       0
     B1g       10      10       0       0       0       0
     B2g       10      10       0       0       0       0
     B3g        4       4       0       0       0       0
     Au         4       4       0       0       0       0
     B1u       10      10       0       0       0       0
     B2u       10      10       0       0       0       0
     B3u       20      20       0       0       0       0
   -------------------------------------------------------
    Total      88      88       7       7       7       0
   -------------------------------------------------------

  ==> Integral Setup <==

  DFHelper Memory: AOs need 0.015 GiB; user supplied 0.015 GiB. Using in-core AOs.

  ==> MemDFJK: Density-Fitted J/K Matrices <==

    J tasked:                   Yes
    K tasked:                   Yes
    wK tasked:                   No
    OpenMP threads:               1
    Memory [MiB]:                14
    Algorithm:                 Core
    Schwarz Cutoff:           1E-12
    Mask sparsity (%):       0.1033
    Fitting Condition:        1E-10

   => Auxiliary Basis Set <=

  Basis Set: (CC-PVTZ AUX)
    Blend: CC-PVTZ-JKFIT
    Number of shells: 70
    Number of basis function: 218
    Number of Cartesian functions: 262
    Spherical Harmonics?: true
    Max angular momentum: 4

  Cached 100.0% of DFT collocation blocks in 0.510 [GiB].

  Minimum eigenvalue in the overlap matrix is 1.4146724323E-04.
  Using Symmetric Orthogonalization.

  SCF Guess: Superposition of Atomic Densities via on-the-fly atomic UHF.

  ==> Iterations <==

                           Total Energy        Delta E     RMS |[F,P]|

   @DF-RKS iter SAD:   -76.58776028122411   -7.65878e+01   0.00000e+00 
   @DF-RKS iter   1:   -77.21155830201666   -6.23798e-01   1.37058e-02 DIIS
   @DF-RKS iter   2:   -77.26454298380483   -5.29847e-02   9.60189e-03 DIIS
   @DF-RKS iter   3:   -77.32180594325384   -5.72630e-02   3.95801e-04 DIIS
   @DF-RKS iter   4:   -77.32191370137588   -1.07758e-04   2.42843e-05 DIIS
   @DF-RKS iter   5:   -77.32191421167929   -5.10303e-07   2.16832e-06 DIIS
   @DF-RKS iter   6:   -77.32191421715723   -5.47794e-09   4.34560e-07 DIIS
  Energy and wave function converged.


  ==> Post-Iterations <==

    Orbital Energies [Eh]
    ---------------------

    Doubly Occupied:                                                      

       1Ag   -10.556900     1B3u  -10.554587     2Ag    -0.844665  
       2B3u   -0.646529     3Ag    -0.561875     1B1u   -0.351908  
       1B2u   -0.351908  

    Virtual:                                                              

       1B2g    0.064607     1B1g    0.064607     3B3u    0.080723  
       4Ag     0.105926     5Ag     0.222291     4B3u    0.277587  
       2B1u    0.333480     2B2u    0.333480     5B3u    0.423275  
       2B1g    0.442631     2B2g    0.442631     6Ag     0.475309  
       7Ag     0.632558     1B3g    0.632559     8Ag     0.656066  
       3B2u    0.660024     3B1u    0.660024     6B3u    0.807622  
       7B3u    0.904035     3B2g    0.917207     3B1g    0.917207  
       1Au     0.926387     8B3u    0.926389     9Ag     1.057698  
       4B1u    1.268152     4B2u    1.268152     9B3u    1.409685  
      10Ag     1.471204     4B2g    1.483342     4B1g    1.483342  
      10B3u    1.760855     5B1u    2.035383     5B2u    2.035383  
      11Ag     2.217968    11B3u    2.399954     2B3g    2.421860  
      12Ag     2.421888     5B2g    2.461866     5B1g    2.461866  
       6B1u    2.545510     6B2u    2.545510     7B1u    2.703949  
       7B2u    2.703949    13Ag     2.838359    14Ag     2.912080  
       6B1g    2.926869     6B2g    2.926869     3B3g    2.927007  
      15Ag     2.927028     7B2g    2.951286     7B1g    2.951286  
      12B3u    2.958116     2Au     2.995575    13B3u    2.995616  
       8B1u    3.130624     8B2u    3.130624     3Au     3.135722  
      14B3u    3.135731    15B3u    3.523616    16Ag     3.554544  
       4B3g    3.554608     8B2g    3.791306     8B1g    3.791306  
       9B1u    3.929792     9B2u    3.929792    17Ag     4.092690  
      16B3u    4.109727     4Au     4.109791    17B3u    4.412905  
       9B2g    4.482064     9B1g    4.482064    18Ag     4.755333  
      10B2u    5.328628    10B1u    5.328628    18B3u    5.654631  
      19B3u    5.831795    10B2g    5.855915    10B1g    5.855915  
      19Ag     6.204476    20Ag     8.860452    20B3u   15.374312  

    Final Occupation by Irrep:
             Ag   B1g   B2g   B3g    Au   B1u   B2u   B3u 
    DOCC [     3,    0,    0,    0,    0,    1,    1,    2 ]

  @DF-RKS Final Energy:   -77.32191421715723

   => Energetics <=

    Nuclear Repulsion Energy =             24.3232181713792350
    One-Electron Energy =                -151.0137803134785202
    Two-Electron Energy =                  54.8864815880991799
    DFT Exchange-Correlation Energy =      -5.5178336631571296
    Empirical Dispersion Energy =           0.0000000000000000
    VV10 Nonlocal Energy =                  0.0000000000000000
    Total Energy =                        -77.3219142171572429

Computation Completed


Properties will be evaluated at   0.000000,   0.000000,   0.000000 [a0]

Properties computed using the SCF density matrix

  Nuclear Dipole Moment: [e a0]
     X:     0.0000      Y:     0.0000      Z:     0.0000

  Electronic Dipole Moment: [e a0]
     X:     0.0000      Y:     0.0000      Z:     0.0000

  Dipole Moment: [e a0]
     X:     0.0000      Y:     0.0000      Z:     0.0000     Total:     0.0000

  Dipole Moment: [D]
     X:     0.0000      Y:     0.0000      Z:     0.0000     Total:     0.0000


*** tstop() called on atlantis at Tue Apr 19 02:12:58 2022
Module time:
	user time   =       3.53 seconds =       0.06 minutes
	system time =       0.09 seconds =       0.00 minutes
	total time  =          3 seconds =       0.05 minutes
Total time:
	user time   =       3.53 seconds =       0.06 minutes
	system time =       0.09 seconds =       0.00 minutes
	total time  =          3 seconds =       0.05 minutes
gradient() will perform analytic gradient computation.

*** tstart() called on atlantis
*** at Tue Apr 19 02:12:58 2022

   => Loading Basis Set <=

    Name: CC-PVTZ
    Role: ORBITAL
    Keyword: BASIS
    atoms 1-2 entry C          line   186 file /home/akrom/software/anaconda3/envs/ffpenv/share/psi4/basis/cc-pvtz.gbs 
    atoms 3-4 entry H          line    23 file /home/akrom/software/anaconda3/envs/ffpenv/share/psi4/basis/cc-pvtz.gbs 


         ---------------------------------------------------------
                                   SCF
               by Justin Turney, Rob Parrish, Andy Simmonett
                          and Daniel G. A. Smith
                              RKS Reference
                        1 Threads,    500 MiB Core
         ---------------------------------------------------------

  ==> Geometry <==

    Molecular point group: d2h
    Full point group: D_inf_h

    Geometry (in Angstrom), charge = 0, multiplicity = 1:

       Center              X                  Y                   Z               Mass       
    ------------   -----------------  -----------------  -----------------  -----------------
         C           -0.614460000000    -0.000000000000     0.000000000000    12.000000000000
         C            0.614460000000     0.000000000000     0.000000000000    12.000000000000
         H           -1.689230000000    -0.000000000000     0.000000000000     1.007825032230
         H            1.689230000000     0.000000000000     0.000000000000     1.007825032230

  Running in d2h symmetry.

  Rotational constants: A = ************  B =      1.13802  C =      1.13802 [cm^-1]
  Rotational constants: A = ************  B =  34116.98697  C =  34116.98697 [MHz]
  Nuclear repulsion =   24.323218171379235

  Charge       = 0
  Multiplicity = 1
  Electrons    = 14
  Nalpha       = 7
  Nbeta        = 7

  ==> Algorithm <==

  SCF Algorithm Type is DF.
  DIIS enabled.
  MOM disabled.
  Fractional occupation disabled.
  Guess Type is SAD.
  Energy threshold   = 1.00e-08
  Density threshold  = 1.00e-08
  Integral threshold = 0.00e+00

  ==> Primary Basis <==

  Basis Set: CC-PVTZ
    Blend: CC-PVTZ
    Number of shells: 32
    Number of basis function: 88
    Number of Cartesian functions: 100
    Spherical Harmonics?: true
    Max angular momentum: 3

  ==> DFT Potential <==

   => Composite Functional: M06-2X <= 

    Hybrid M06-2X Meta-GGA XC Functional

    Y. Zhao and D. G. Truhlar,  Theor. Chem. Acc., 120, 215, 2008


    Deriv               =              1
    GGA                 =           TRUE
    Meta                =           TRUE

    Exchange Hybrid     =           TRUE
    MP2 Hybrid          =          FALSE

   => Exchange Functionals <=

    1.0000   XC_HYB_MGGA_X_M06_2X

   => Exact (HF) Exchange <=

    0.5400               HF 

   => Correlation Functionals <=

    1.0000   XC_MGGA_C_M06_2X

   => Molecular Quadrature <=

    Radial Scheme          =       TREUTLER
    Pruning Scheme         =           FLAT
    Nuclear Scheme         =       TREUTLER

    BS radius alpha        =              1
    Pruning alpha          =              1
    Radial Points          =             75
    Spherical Points       =            302
    Total Points           =          88542
    Total Blocks           =            734
    Max Points             =            253
    Max Functions          =             88

   => Loading Basis Set <=

    Name: (CC-PVTZ AUX)
    Role: JKFIT
    Keyword: DF_BASIS_SCF
    atoms 1-2 entry C          line   125 file /home/akrom/software/anaconda3/envs/ffpenv/share/psi4/basis/cc-pvtz-jkfit.gbs 
    atoms 3-4 entry H          line    51 file /home/akrom/software/anaconda3/envs/ffpenv/share/psi4/basis/cc-pvtz-jkfit.gbs 

  ==> Pre-Iterations <==

   -------------------------------------------------------
    Irrep   Nso     Nmo     Nalpha   Nbeta   Ndocc  Nsocc
   -------------------------------------------------------
     Ag        20      20       0       0       0       0
     B1g       10      10       0       0       0       0
     B2g       10      10       0       0       0       0
     B3g        4       4       0       0       0       0
     Au         4       4       0       0       0       0
     B1u       10      10       0       0       0       0
     B2u       10      10       0       0       0       0
     B3u       20      20       0       0       0       0
   -------------------------------------------------------
    Total      88      88       7       7       7       0
   -------------------------------------------------------

  ==> Integral Setup <==

  DFHelper Memory: AOs need 0.015 GiB; user supplied 0.015 GiB. Using in-core AOs.

  ==> MemDFJK: Density-Fitted J/K Matrices <==

    J tasked:                   Yes
    K tasked:                   Yes
    wK tasked:                   No
    OpenMP threads:               1
    Memory [MiB]:                14
    Algorithm:                 Core
    Schwarz Cutoff:           1E-12
    Mask sparsity (%):       0.1033
    Fitting Condition:        1E-10

   => Auxiliary Basis Set <=

  Basis Set: (CC-PVTZ AUX)
    Blend: CC-PVTZ-JKFIT
    Number of shells: 70
    Number of basis function: 218
    Number of Cartesian functions: 262
    Spherical Harmonics?: true
    Max angular momentum: 4

  Cached 100.0% of DFT collocation blocks in 0.510 [GiB].

  Minimum eigenvalue in the overlap matrix is 1.4146724323E-04.
  Using Symmetric Orthogonalization.

  SCF Guess: Superposition of Atomic Densities via on-the-fly atomic UHF.

  ==> Iterations <==

                           Total Energy        Delta E     RMS |[F,P]|

   @DF-RKS iter SAD:   -76.58776028122411   -7.65878e+01   0.00000e+00 
   @DF-RKS iter   1:   -77.21155830201666   -6.23798e-01   1.37058e-02 DIIS
   @DF-RKS iter   2:   -77.26454298380483   -5.29847e-02   9.60189e-03 DIIS
   @DF-RKS iter   3:   -77.32180594325384   -5.72630e-02   3.95801e-04 DIIS
   @DF-RKS iter   4:   -77.32191370137588   -1.07758e-04   2.42843e-05 DIIS
   @DF-RKS iter   5:   -77.32191421167929   -5.10303e-07   2.16832e-06 DIIS
   @DF-RKS iter   6:   -77.32191421715723   -5.47794e-09   4.34560e-07 DIIS
   @DF-RKS iter   7:   -77.32191421730582   -1.48589e-10   7.12656e-08 DIIS
   @DF-RKS iter   8:   -77.32191421731254   -6.72173e-12   7.15103e-09 DIIS
  Energy and wave function converged.


  ==> Post-Iterations <==

    Orbital Energies [Eh]
    ---------------------

    Doubly Occupied:                                                      

       1Ag   -10.556902     1B3u  -10.554589     2Ag    -0.844666  
       2B3u   -0.646530     3Ag    -0.561876     1B1u   -0.351909  
       1B2u   -0.351909  

    Virtual:                                                              

       1B2g    0.064606     1B1g    0.064606     3B3u    0.080723  
       4Ag     0.105925     5Ag     0.222291     4B3u    0.277586  
       2B1u    0.333480     2B2u    0.333480     5B3u    0.423275  
       2B1g    0.442630     2B2g    0.442630     6Ag     0.475308  
       7Ag     0.632558     1B3g    0.632558     8Ag     0.656066  
       3B2u    0.660023     3B1u    0.660023     6B3u    0.807621  
       7B3u    0.904035     3B2g    0.917206     3B1g    0.917206  
       1Au     0.926387     8B3u    0.926388     9Ag     1.057697  
       4B1u    1.268152     4B2u    1.268152     9B3u    1.409685  
      10Ag     1.471203     4B2g    1.483342     4B1g    1.483342  
      10B3u    1.760854     5B1u    2.035381     5B2u    2.035381  
      11Ag     2.217968    11B3u    2.399952     2B3g    2.421859  
      12Ag     2.421887     5B2g    2.461865     5B1g    2.461865  
       6B1u    2.545509     6B2u    2.545509     7B1u    2.703948  
       7B2u    2.703948    13Ag     2.838359    14Ag     2.912079  
       6B1g    2.926869     6B2g    2.926869     3B3g    2.927007  
      15Ag     2.927028     7B2g    2.951285     7B1g    2.951285  
      12B3u    2.958116     2Au     2.995575    13B3u    2.995616  
       8B1u    3.130624     8B2u    3.130624     3Au     3.135721  
      14B3u    3.135731    15B3u    3.523616    16Ag     3.554544  
       4B3g    3.554609     8B2g    3.791306     8B1g    3.791306  
       9B1u    3.929792     9B2u    3.929792    17Ag     4.092691  
      16B3u    4.109727     4Au     4.109791    17B3u    4.412905  
       9B2g    4.482064     9B1g    4.482064    18Ag     4.755333  
      10B2u    5.328628    10B1u    5.328628    18B3u    5.654631  
      19B3u    5.831795    10B2g    5.855914    10B1g    5.855914  
      19Ag     6.204476    20Ag     8.860452    20B3u   15.374311  

    Final Occupation by Irrep:
             Ag   B1g   B2g   B3g    Au   B1u   B2u   B3u 
    DOCC [     3,    0,    0,    0,    0,    1,    1,    2 ]

  @DF-RKS Final Energy:   -77.32191421731254

   => Energetics <=

    Nuclear Repulsion Energy =             24.3232181713792350
    One-Electron Energy =                -151.0137678929775973
    Two-Electron Energy =                  54.8864674068119669
    DFT Exchange-Correlation Energy =      -5.5178319025261438
    Empirical Dispersion Energy =           0.0000000000000000
    VV10 Nonlocal Energy =                  0.0000000000000000
    Total Energy =                        -77.3219142173125391

Computation Completed


Properties will be evaluated at   0.000000,   0.000000,   0.000000 [a0]

Properties computed using the SCF density matrix

  Nuclear Dipole Moment: [e a0]
     X:     0.0000      Y:     0.0000      Z:     0.0000

  Electronic Dipole Moment: [e a0]
     X:     0.0000      Y:     0.0000      Z:     0.0000

  Dipole Moment: [e a0]
     X:     0.0000      Y:     0.0000      Z:     0.0000     Total:     0.0000

  Dipole Moment: [D]
     X:     0.0000      Y:     0.0000      Z:     0.0000     Total:     0.0000


*** tstop() called on atlantis at Tue Apr 19 02:13:02 2022
Module time:
	user time   =       4.29 seconds =       0.07 minutes
	system time =       0.01 seconds =       0.00 minutes
	total time  =          4 seconds =       0.07 minutes
Total time:
	user time   =       7.82 seconds =       0.13 minutes
	system time =       0.10 seconds =       0.00 minutes
	total time  =          7 seconds =       0.12 minutes

*** tstart() called on atlantis
*** at Tue Apr 19 02:13:02 2022


         ------------------------------------------------------------
                                   SCF GRAD                          
                          Rob Parrish, Justin Turney,                
                       Andy Simmonett, and Alex Sokolov              
         ------------------------------------------------------------

  ==> Geometry <==

    Molecular point group: d2h
    Full point group: D_inf_h

    Geometry (in Angstrom), charge = 0, multiplicity = 1:

       Center              X                  Y                   Z               Mass       
    ------------   -----------------  -----------------  -----------------  -----------------
         C           -0.614460000000    -0.000000000000     0.000000000000    12.000000000000
         C            0.614460000000     0.000000000000     0.000000000000    12.000000000000
         H           -1.689230000000    -0.000000000000     0.000000000000     1.007825032230
         H            1.689230000000     0.000000000000     0.000000000000     1.007825032230

  Nuclear repulsion =   24.323218171379235

  ==> Basis Set <==

  Basis Set: CC-PVTZ
    Blend: CC-PVTZ
    Number of shells: 32
    Number of basis function: 88
    Number of Cartesian functions: 100
    Spherical Harmonics?: true
    Max angular momentum: 3

  ==> DFJKGrad: Density-Fitted SCF Gradients <==

    Gradient:                    1
    J tasked:                  Yes
    K tasked:                  Yes
    wK tasked:                  No
    OpenMP threads:              1
    Integrals threads:           1
    Memory [MiB]:              375
    Schwarz Cutoff:          0E+00
    Fitting Condition:       1E-10

   => Auxiliary Basis Set <=

  Basis Set: (CC-PVTZ AUX)
    Blend: CC-PVTZ-JKFIT
    Number of shells: 70
    Number of basis function: 218
    Number of Cartesian functions: 262
    Spherical Harmonics?: true
    Max angular momentum: 4

  ==> DFT Potential <==

   => Composite Functional: M06-2X <= 

    Hybrid M06-2X Meta-GGA XC Functional

    Y. Zhao and D. G. Truhlar,  Theor. Chem. Acc., 120, 215, 2008


    Deriv               =              1
    GGA                 =           TRUE
    Meta                =           TRUE

    Exchange Hybrid     =           TRUE
    MP2 Hybrid          =          FALSE

   => Exchange Functionals <=

    1.0000   XC_HYB_MGGA_X_M06_2X

   => Exact (HF) Exchange <=

    0.5400               HF 

   => Correlation Functionals <=

    1.0000   XC_MGGA_C_M06_2X

   => Molecular Quadrature <=

    Radial Scheme          =       TREUTLER
    Pruning Scheme         =           FLAT
    Nuclear Scheme         =       TREUTLER

    BS radius alpha        =              1
    Pruning alpha          =              1
    Radial Points          =             75
    Spherical Points       =            302
    Total Points           =          88542
    Total Blocks           =            734
    Max Points             =            253
    Max Functions          =             88


  -Total Gradient:
     Atom            X                  Y                   Z
    ------   -----------------  -----------------  -----------------
       1       -0.060621101204    -0.000000000000     0.000000000000
       2        0.060621101204     0.000000000000     0.000000000000
       3       -0.008525457387    -0.000000000000     0.000000000000
       4        0.008525457387     0.000000000000    -0.000000000000


*** tstop() called on atlantis at Tue Apr 19 02:13:03 2022
Module time:
	user time   =       0.94 seconds =       0.02 minutes
	system time =       0.00 seconds =       0.00 minutes
	total time  =          1 seconds =       0.02 minutes
Total time:
	user time   =       8.77 seconds =       0.15 minutes
	system time =       0.10 seconds =       0.00 minutes
	total time  =          8 seconds =       0.13 minutes

  Based on options and gradient (rms=2.50E-02), recommend projecting translations and not projecting rotations.
hessian() will perform frequency computation by finite difference of analytic gradients.

         ----------------------------------------------------------
                                   FINDIF
                     R. A. King and Jonathon Misiewicz
         ---------------------------------------------------------

  Using finite-differences of gradients to determine vibrational frequencies and 
  normal modes.  Resulting frequencies are only valid at stationary points.
    Generating geometries for use with 3-point formula.
    Displacement size will be 5.00e-03.
    Number of atoms is 4.
    Number of irreps is 8.
    Number of SALCs is 9.
    Translations projected? 1. Rotations projected? 0.
    Index of SALCs per irrep:
     1 :  0  1 
     2 :  2  3 
     3 :  4  5 
     4 : 
     5 : 
     6 :  6 
     7 :  7 
     8 :  8 
    Number of SALCs per irrep:
     Irrep 1: 2
     Irrep 2: 2
     Irrep 3: 2
     Irrep 4: 0
     Irrep 5: 0
     Irrep 6: 1
     Irrep 7: 1
     Irrep 8: 1
    Number of geometries (including reference) is 12.
    Number of displacements per irrep:
      Irrep 1: 4
      Irrep 2: 2
      Irrep 3: 2
      Irrep 4: 0
      Irrep 5: 0
      Irrep 6: 1
      Irrep 7: 1
      Irrep 8: 1

  //>>>>>>>>>>>>>>>>>>>>>>>>>>>>>>>>>>>//
  //    Loading displacement 1 of 12   //
  //<<<<<<<<<<<<<<<<<<<<<<<<<<<<<<<<<<<//
gradient() will perform analytic gradient computation.

*** tstart() called on atlantis
*** at Tue Apr 19 02:13:04 2022

   => Loading Basis Set <=

    Name: CC-PVTZ
    Role: ORBITAL
    Keyword: BASIS
    atoms 1-2 entry C          line   186 file /home/akrom/software/anaconda3/envs/ffpenv/share/psi4/basis/cc-pvtz.gbs 
    atoms 3-4 entry H          line    23 file /home/akrom/software/anaconda3/envs/ffpenv/share/psi4/basis/cc-pvtz.gbs 


         ---------------------------------------------------------
                                   SCF
               by Justin Turney, Rob Parrish, Andy Simmonett
                          and Daniel G. A. Smith
                              RKS Reference
                        1 Threads,    500 MiB Core
         ---------------------------------------------------------

  ==> Geometry <==

    Molecular point group: d2h
    Full point group: D_inf_h

    Geometry (in Angstrom), charge = 0, multiplicity = 1:

       Center              X                  Y                   Z               Mass       
    ------------   -----------------  -----------------  -----------------  -----------------
         C           -0.614460000000    -0.000000000000     0.000000000000    12.000000000000
         C            0.614460000000     0.000000000000     0.000000000000    12.000000000000
         H           -1.689230000000    -0.000000000000     0.000000000000     1.007825032230
         H            1.689230000000     0.000000000000     0.000000000000     1.007825032230

  Running in d2h symmetry.

  Rotational constants: A = ************  B =      1.13802  C =      1.13802 [cm^-1]
  Rotational constants: A = ************  B =  34116.98697  C =  34116.98697 [MHz]
  Nuclear repulsion =   24.323218171379235

  Charge       = 0
  Multiplicity = 1
  Electrons    = 14
  Nalpha       = 7
  Nbeta        = 7

  ==> Algorithm <==

  SCF Algorithm Type is DF.
  DIIS enabled.
  MOM disabled.
  Fractional occupation disabled.
  Guess Type is SAD.
  Energy threshold   = 1.00e-08
  Density threshold  = 1.00e-08
  Integral threshold = 0.00e+00

  ==> Primary Basis <==

  Basis Set: CC-PVTZ
    Blend: CC-PVTZ
    Number of shells: 32
    Number of basis function: 88
    Number of Cartesian functions: 100
    Spherical Harmonics?: true
    Max angular momentum: 3

  ==> DFT Potential <==

   => Composite Functional: M06-2X <= 

    Hybrid M06-2X Meta-GGA XC Functional

    Y. Zhao and D. G. Truhlar,  Theor. Chem. Acc., 120, 215, 2008


    Deriv               =              1
    GGA                 =           TRUE
    Meta                =           TRUE

    Exchange Hybrid     =           TRUE
    MP2 Hybrid          =          FALSE

   => Exchange Functionals <=

    1.0000   XC_HYB_MGGA_X_M06_2X

   => Exact (HF) Exchange <=

    0.5400               HF 

   => Correlation Functionals <=

    1.0000   XC_MGGA_C_M06_2X

   => Molecular Quadrature <=

    Radial Scheme          =       TREUTLER
    Pruning Scheme         =           FLAT
    Nuclear Scheme         =       TREUTLER

    BS radius alpha        =              1
    Pruning alpha          =              1
    Radial Points          =             75
    Spherical Points       =            302
    Total Points           =          88542
    Total Blocks           =            734
    Max Points             =            253
    Max Functions          =             88

   => Loading Basis Set <=

    Name: (CC-PVTZ AUX)
    Role: JKFIT
    Keyword: DF_BASIS_SCF
    atoms 1-2 entry C          line   125 file /home/akrom/software/anaconda3/envs/ffpenv/share/psi4/basis/cc-pvtz-jkfit.gbs 
    atoms 3-4 entry H          line    51 file /home/akrom/software/anaconda3/envs/ffpenv/share/psi4/basis/cc-pvtz-jkfit.gbs 

  ==> Pre-Iterations <==

   -------------------------------------------------------
    Irrep   Nso     Nmo     Nalpha   Nbeta   Ndocc  Nsocc
   -------------------------------------------------------
     Ag        20      20       0       0       0       0
     B1g       10      10       0       0       0       0
     B2g       10      10       0       0       0       0
     B3g        4       4       0       0       0       0
     Au         4       4       0       0       0       0
     B1u       10      10       0       0       0       0
     B2u       10      10       0       0       0       0
     B3u       20      20       0       0       0       0
   -------------------------------------------------------
    Total      88      88       7       7       7       0
   -------------------------------------------------------

  ==> Integral Setup <==

  DFHelper Memory: AOs need 0.015 GiB; user supplied 0.015 GiB. Using in-core AOs.

  ==> MemDFJK: Density-Fitted J/K Matrices <==

    J tasked:                   Yes
    K tasked:                   Yes
    wK tasked:                   No
    OpenMP threads:               1
    Memory [MiB]:                14
    Algorithm:                 Core
    Schwarz Cutoff:           1E-12
    Mask sparsity (%):       0.1033
    Fitting Condition:        1E-10

   => Auxiliary Basis Set <=

  Basis Set: (CC-PVTZ AUX)
    Blend: CC-PVTZ-JKFIT
    Number of shells: 70
    Number of basis function: 218
    Number of Cartesian functions: 262
    Spherical Harmonics?: true
    Max angular momentum: 4

  Cached 100.0% of DFT collocation blocks in 0.510 [GiB].

  Minimum eigenvalue in the overlap matrix is 1.4146724323E-04.
  Using Symmetric Orthogonalization.

  SCF Guess: Superposition of Atomic Densities via on-the-fly atomic UHF.

  ==> Iterations <==

                           Total Energy        Delta E     RMS |[F,P]|

   @DF-RKS iter SAD:   -76.58776028122411   -7.65878e+01   0.00000e+00 
   @DF-RKS iter   1:   -77.21155830201666   -6.23798e-01   1.37058e-02 DIIS
   @DF-RKS iter   2:   -77.26454298380483   -5.29847e-02   9.60189e-03 DIIS
   @DF-RKS iter   3:   -77.32180594325384   -5.72630e-02   3.95801e-04 DIIS
   @DF-RKS iter   4:   -77.32191370137588   -1.07758e-04   2.42843e-05 DIIS
   @DF-RKS iter   5:   -77.32191421167929   -5.10303e-07   2.16832e-06 DIIS
   @DF-RKS iter   6:   -77.32191421715723   -5.47794e-09   4.34560e-07 DIIS
   @DF-RKS iter   7:   -77.32191421730582   -1.48589e-10   7.12656e-08 DIIS
   @DF-RKS iter   8:   -77.32191421731254   -6.72173e-12   7.15103e-09 DIIS
  Energy and wave function converged.


  ==> Post-Iterations <==

    Orbital Energies [Eh]
    ---------------------

    Doubly Occupied:                                                      

       1Ag   -10.556902     1B3u  -10.554589     2Ag    -0.844666  
       2B3u   -0.646530     3Ag    -0.561876     1B1u   -0.351909  
       1B2u   -0.351909  

    Virtual:                                                              

       1B2g    0.064606     1B1g    0.064606     3B3u    0.080723  
       4Ag     0.105925     5Ag     0.222291     4B3u    0.277586  
       2B1u    0.333480     2B2u    0.333480     5B3u    0.423275  
       2B1g    0.442630     2B2g    0.442630     6Ag     0.475308  
       7Ag     0.632558     1B3g    0.632558     8Ag     0.656066  
       3B2u    0.660023     3B1u    0.660023     6B3u    0.807621  
       7B3u    0.904035     3B2g    0.917206     3B1g    0.917206  
       1Au     0.926387     8B3u    0.926388     9Ag     1.057697  
       4B1u    1.268152     4B2u    1.268152     9B3u    1.409685  
      10Ag     1.471203     4B2g    1.483342     4B1g    1.483342  
      10B3u    1.760854     5B1u    2.035381     5B2u    2.035381  
      11Ag     2.217968    11B3u    2.399952     2B3g    2.421859  
      12Ag     2.421887     5B2g    2.461865     5B1g    2.461865  
       6B1u    2.545509     6B2u    2.545509     7B1u    2.703948  
       7B2u    2.703948    13Ag     2.838359    14Ag     2.912079  
       6B1g    2.926869     6B2g    2.926869     3B3g    2.927007  
      15Ag     2.927028     7B2g    2.951285     7B1g    2.951285  
      12B3u    2.958116     2Au     2.995575    13B3u    2.995616  
       8B1u    3.130624     8B2u    3.130624     3Au     3.135721  
      14B3u    3.135731    15B3u    3.523616    16Ag     3.554544  
       4B3g    3.554609     8B2g    3.791306     8B1g    3.791306  
       9B1u    3.929792     9B2u    3.929792    17Ag     4.092691  
      16B3u    4.109727     4Au     4.109791    17B3u    4.412905  
       9B2g    4.482064     9B1g    4.482064    18Ag     4.755333  
      10B2u    5.328628    10B1u    5.328628    18B3u    5.654631  
      19B3u    5.831795    10B2g    5.855914    10B1g    5.855914  
      19Ag     6.204476    20Ag     8.860452    20B3u   15.374311  

    Final Occupation by Irrep:
             Ag   B1g   B2g   B3g    Au   B1u   B2u   B3u 
    DOCC [     3,    0,    0,    0,    0,    1,    1,    2 ]

  @DF-RKS Final Energy:   -77.32191421731254

   => Energetics <=

    Nuclear Repulsion Energy =             24.3232181713792350
    One-Electron Energy =                -151.0137678929775973
    Two-Electron Energy =                  54.8864674068119669
    DFT Exchange-Correlation Energy =      -5.5178319025261438
    Empirical Dispersion Energy =           0.0000000000000000
    VV10 Nonlocal Energy =                  0.0000000000000000
    Total Energy =                        -77.3219142173125391

Computation Completed


Properties will be evaluated at   0.000000,   0.000000,   0.000000 [a0]

Properties computed using the SCF density matrix

  Nuclear Dipole Moment: [e a0]
     X:     0.0000      Y:     0.0000      Z:     0.0000

  Electronic Dipole Moment: [e a0]
     X:     0.0000      Y:     0.0000      Z:     0.0000

  Dipole Moment: [e a0]
     X:     0.0000      Y:     0.0000      Z:     0.0000     Total:     0.0000

  Dipole Moment: [D]
     X:     0.0000      Y:     0.0000      Z:     0.0000     Total:     0.0000


*** tstop() called on atlantis at Tue Apr 19 02:13:08 2022
Module time:
	user time   =       4.32 seconds =       0.07 minutes
	system time =       0.01 seconds =       0.00 minutes
	total time  =          4 seconds =       0.07 minutes
Total time:
	user time   =      13.37 seconds =       0.22 minutes
	system time =       0.12 seconds =       0.00 minutes
	total time  =         13 seconds =       0.22 minutes

*** tstart() called on atlantis
*** at Tue Apr 19 02:13:08 2022


         ------------------------------------------------------------
                                   SCF GRAD                          
                          Rob Parrish, Justin Turney,                
                       Andy Simmonett, and Alex Sokolov              
         ------------------------------------------------------------

  ==> Geometry <==

    Molecular point group: d2h
    Full point group: D_inf_h

    Geometry (in Angstrom), charge = 0, multiplicity = 1:

       Center              X                  Y                   Z               Mass       
    ------------   -----------------  -----------------  -----------------  -----------------
         C           -0.614460000000    -0.000000000000     0.000000000000    12.000000000000
         C            0.614460000000     0.000000000000     0.000000000000    12.000000000000
         H           -1.689230000000    -0.000000000000     0.000000000000     1.007825032230
         H            1.689230000000     0.000000000000     0.000000000000     1.007825032230

  Nuclear repulsion =   24.323218171379235

  ==> Basis Set <==

  Basis Set: CC-PVTZ
    Blend: CC-PVTZ
    Number of shells: 32
    Number of basis function: 88
    Number of Cartesian functions: 100
    Spherical Harmonics?: true
    Max angular momentum: 3

  ==> DFJKGrad: Density-Fitted SCF Gradients <==

    Gradient:                    1
    J tasked:                  Yes
    K tasked:                  Yes
    wK tasked:                  No
    OpenMP threads:              1
    Integrals threads:           1
    Memory [MiB]:              375
    Schwarz Cutoff:          0E+00
    Fitting Condition:       1E-10

   => Auxiliary Basis Set <=

  Basis Set: (CC-PVTZ AUX)
    Blend: CC-PVTZ-JKFIT
    Number of shells: 70
    Number of basis function: 218
    Number of Cartesian functions: 262
    Spherical Harmonics?: true
    Max angular momentum: 4

  ==> DFT Potential <==

   => Composite Functional: M06-2X <= 

    Hybrid M06-2X Meta-GGA XC Functional

    Y. Zhao and D. G. Truhlar,  Theor. Chem. Acc., 120, 215, 2008


    Deriv               =              1
    GGA                 =           TRUE
    Meta                =           TRUE

    Exchange Hybrid     =           TRUE
    MP2 Hybrid          =          FALSE

   => Exchange Functionals <=

    1.0000   XC_HYB_MGGA_X_M06_2X

   => Exact (HF) Exchange <=

    0.5400               HF 

   => Correlation Functionals <=

    1.0000   XC_MGGA_C_M06_2X

   => Molecular Quadrature <=

    Radial Scheme          =       TREUTLER
    Pruning Scheme         =           FLAT
    Nuclear Scheme         =       TREUTLER

    BS radius alpha        =              1
    Pruning alpha          =              1
    Radial Points          =             75
    Spherical Points       =            302
    Total Points           =          88542
    Total Blocks           =            734
    Max Points             =            253
    Max Functions          =             88


  -Total Gradient:
     Atom            X                  Y                   Z
    ------   -----------------  -----------------  -----------------
       1       -0.060621101204    -0.000000000000     0.000000000000
       2        0.060621101204     0.000000000000     0.000000000000
       3       -0.008525457387    -0.000000000000     0.000000000000
       4        0.008525457387     0.000000000000    -0.000000000000


*** tstop() called on atlantis at Tue Apr 19 02:13:09 2022
Module time:
	user time   =       0.95 seconds =       0.02 minutes
	system time =       0.00 seconds =       0.00 minutes
	total time  =          1 seconds =       0.02 minutes
Total time:
	user time   =      14.32 seconds =       0.24 minutes
	system time =       0.12 seconds =       0.00 minutes
	total time  =         14 seconds =       0.23 minutes

  //>>>>>>>>>>>>>>>>>>>>>>>>>>>>>>>>>>>//
  //    Loading displacement 2 of 12   //
  //<<<<<<<<<<<<<<<<<<<<<<<<<<<<<<<<<<<//
gradient() will perform analytic gradient computation.

*** tstart() called on atlantis
*** at Tue Apr 19 02:13:09 2022

   => Loading Basis Set <=

    Name: CC-PVTZ
    Role: ORBITAL
    Keyword: BASIS
    atoms 1-2 entry C          line   186 file /home/akrom/software/anaconda3/envs/ffpenv/share/psi4/basis/cc-pvtz.gbs 
    atoms 3-4 entry H          line    23 file /home/akrom/software/anaconda3/envs/ffpenv/share/psi4/basis/cc-pvtz.gbs 


         ---------------------------------------------------------
                                   SCF
               by Justin Turney, Rob Parrish, Andy Simmonett
                          and Daniel G. A. Smith
                              RKS Reference
                        1 Threads,    500 MiB Core
         ---------------------------------------------------------

  ==> Geometry <==

    Molecular point group: d2h
    Full point group: D_inf_h

    Geometry (in Angstrom), charge = 0, multiplicity = 1:

       Center              X                  Y                   Z               Mass       
    ------------   -----------------  -----------------  -----------------  -----------------
         C           -0.615000089229    -0.000000000000     0.000000000000    12.000000000000
         C            0.615000089229     0.000000000000     0.000000000000    12.000000000000
         H           -1.689230000000    -0.000000000000     0.000000000000     1.007825032230
         H            1.689230000000     0.000000000000     0.000000000000     1.007825032230

  Running in d2h symmetry.

  Rotational constants: A = ************  B =      1.13680  C =      1.13680 [cm^-1]
  Rotational constants: A = ************  B =  34080.32226  C =  34080.32226 [MHz]
  Nuclear repulsion =   24.311929094340595

  Charge       = 0
  Multiplicity = 1
  Electrons    = 14
  Nalpha       = 7
  Nbeta        = 7

  ==> Algorithm <==

  SCF Algorithm Type is DF.
  DIIS enabled.
  MOM disabled.
  Fractional occupation disabled.
  Guess Type is SAD.
  Energy threshold   = 1.00e-08
  Density threshold  = 1.00e-08
  Integral threshold = 0.00e+00

  ==> Primary Basis <==

  Basis Set: CC-PVTZ
    Blend: CC-PVTZ
    Number of shells: 32
    Number of basis function: 88
    Number of Cartesian functions: 100
    Spherical Harmonics?: true
    Max angular momentum: 3

  ==> DFT Potential <==

   => Composite Functional: M06-2X <= 

    Hybrid M06-2X Meta-GGA XC Functional

    Y. Zhao and D. G. Truhlar,  Theor. Chem. Acc., 120, 215, 2008


    Deriv               =              1
    GGA                 =           TRUE
    Meta                =           TRUE

    Exchange Hybrid     =           TRUE
    MP2 Hybrid          =          FALSE

   => Exchange Functionals <=

    1.0000   XC_HYB_MGGA_X_M06_2X

   => Exact (HF) Exchange <=

    0.5400               HF 

   => Correlation Functionals <=

    1.0000   XC_MGGA_C_M06_2X

   => Molecular Quadrature <=

    Radial Scheme          =       TREUTLER
    Pruning Scheme         =           FLAT
    Nuclear Scheme         =       TREUTLER

    BS radius alpha        =              1
    Pruning alpha          =              1
    Radial Points          =             75
    Spherical Points       =            302
    Total Points           =          88542
    Total Blocks           =            732
    Max Points             =            253
    Max Functions          =             88

   => Loading Basis Set <=

    Name: (CC-PVTZ AUX)
    Role: JKFIT
    Keyword: DF_BASIS_SCF
    atoms 1-2 entry C          line   125 file /home/akrom/software/anaconda3/envs/ffpenv/share/psi4/basis/cc-pvtz-jkfit.gbs 
    atoms 3-4 entry H          line    51 file /home/akrom/software/anaconda3/envs/ffpenv/share/psi4/basis/cc-pvtz-jkfit.gbs 

  ==> Pre-Iterations <==

   -------------------------------------------------------
    Irrep   Nso     Nmo     Nalpha   Nbeta   Ndocc  Nsocc
   -------------------------------------------------------
     Ag        20      20       0       0       0       0
     B1g       10      10       0       0       0       0
     B2g       10      10       0       0       0       0
     B3g        4       4       0       0       0       0
     Au         4       4       0       0       0       0
     B1u       10      10       0       0       0       0
     B2u       10      10       0       0       0       0
     B3u       20      20       0       0       0       0
   -------------------------------------------------------
    Total      88      88       7       7       7       0
   -------------------------------------------------------

  ==> Integral Setup <==

  DFHelper Memory: AOs need 0.015 GiB; user supplied 0.015 GiB. Using in-core AOs.

  ==> MemDFJK: Density-Fitted J/K Matrices <==

    J tasked:                   Yes
    K tasked:                   Yes
    wK tasked:                   No
    OpenMP threads:               1
    Memory [MiB]:                14
    Algorithm:                 Core
    Schwarz Cutoff:           1E-12
    Mask sparsity (%):       0.1033
    Fitting Condition:        1E-10

   => Auxiliary Basis Set <=

  Basis Set: (CC-PVTZ AUX)
    Blend: CC-PVTZ-JKFIT
    Number of shells: 70
    Number of basis function: 218
    Number of Cartesian functions: 262
    Spherical Harmonics?: true
    Max angular momentum: 4

  Cached 100.0% of DFT collocation blocks in 0.510 [GiB].

  Minimum eigenvalue in the overlap matrix is 1.4205928343E-04.
  Using Symmetric Orthogonalization.

  SCF Guess: Superposition of Atomic Densities via on-the-fly atomic UHF.

  ==> Iterations <==

                           Total Energy        Delta E     RMS |[F,P]|

   @DF-RKS iter SAD:   -76.58691338460409   -7.65869e+01   0.00000e+00 
   @DF-RKS iter   1:   -77.21186675045253   -6.24953e-01   1.36749e-02 DIIS
   @DF-RKS iter   2:   -77.26473765431908   -5.28709e-02   9.57434e-03 DIIS
   @DF-RKS iter   3:   -77.32168044508776   -5.69428e-02   3.93853e-04 DIIS
   @DF-RKS iter   4:   -77.32178726368748   -1.06819e-04   2.42906e-05 DIIS
   @DF-RKS iter   5:   -77.32178777494073   -5.11253e-07   2.20349e-06 DIIS
   @DF-RKS iter   6:   -77.32178778052653   -5.58580e-09   4.42240e-07 DIIS
   @DF-RKS iter   7:   -77.32178778067887   -1.52340e-10   7.16236e-08 DIIS
   @DF-RKS iter   8:   -77.32178778068564   -6.76437e-12   7.08266e-09 DIIS
  Energy and wave function converged.


  ==> Post-Iterations <==

    Orbital Energies [Eh]
    ---------------------

    Doubly Occupied:                                                      

       1Ag   -10.557167     1B3u  -10.554870     2Ag    -0.844470  
       2B3u   -0.646848     3Ag    -0.561996     1B1u   -0.351743  
       1B2u   -0.351743  

    Virtual:                                                              

       1B1g    0.064296     1B2g    0.064296     3B3u    0.080720  
       4Ag     0.105933     5Ag     0.222327     4B3u    0.277344  
       2B2u    0.333546     2B1u    0.333546     5B3u    0.423354  
       2B1g    0.442485     2B2g    0.442485     6Ag     0.475399  
       7Ag     0.632526     1B3g    0.632526     8Ag     0.656045  
       3B2u    0.659895     3B1u    0.659895     6B3u    0.806796  
       7B3u    0.903790     3B1g    0.917152     3B2g    0.917152  
       1Au     0.926134     8B3u    0.926136     9Ag     1.057881  
       4B1u    1.267860     4B2u    1.267860     9B3u    1.409582  
      10Ag     1.471904     4B2g    1.483706     4B1g    1.483706  
      10B3u    1.759803     5B1u    2.035618     5B2u    2.035618  
      11Ag     2.217771    11B3u    2.399013     2B3g    2.421513  
      12Ag     2.421541     5B2g    2.460758     5B1g    2.460758  
       6B2u    2.545712     6B1u    2.545712     7B1u    2.703359  
       7B2u    2.703359    13Ag     2.838147    14Ag     2.911797  
       6B1g    2.926258     6B2g    2.926258     3B3g    2.926993  
      15Ag     2.927014     7B2g    2.951664     7B1g    2.951664  
      12B3u    2.958778     2Au     2.995394    13B3u    2.995435  
       8B2u    3.129978     8B1u    3.129978     3Au     3.135310  
      14B3u    3.135320    15B3u    3.523692    16Ag     3.554765  
       4B3g    3.554829     8B2g    3.790985     8B1g    3.790985  
       9B1u    3.929871     9B2u    3.929871    17Ag     4.091695  
      16B3u    4.109205     4Au     4.109269    17B3u    4.413513  
       9B2g    4.481944     9B1g    4.481944    18Ag     4.757355  
      10B1u    5.328702    10B2u    5.328702    18B3u    5.655733  
      19B3u    5.831026    10B2g    5.856623    10B1g    5.856623  
      19Ag     6.201499    20Ag     8.868383    20B3u   15.349869  

    Final Occupation by Irrep:
             Ag   B1g   B2g   B3g    Au   B1u   B2u   B3u 
    DOCC [     3,    0,    0,    0,    0,    1,    1,    2 ]

  @DF-RKS Final Energy:   -77.32178778068564

   => Energetics <=

    Nuclear Repulsion Energy =             24.3119290943405950
    One-Electron Energy =                -150.9902735400055462
    Two-Electron Energy =                  54.8741152262426226
    DFT Exchange-Correlation Energy =      -5.5175585612633187
    Empirical Dispersion Energy =           0.0000000000000000
    VV10 Nonlocal Energy =                  0.0000000000000000
    Total Energy =                        -77.3217877806856393

Computation Completed


Properties will be evaluated at   0.000000,   0.000000,   0.000000 [a0]

Properties computed using the SCF density matrix

  Nuclear Dipole Moment: [e a0]
     X:     0.0000      Y:     0.0000      Z:     0.0000

  Electronic Dipole Moment: [e a0]
     X:     0.0000      Y:     0.0000      Z:     0.0000

  Dipole Moment: [e a0]
     X:     0.0000      Y:     0.0000      Z:     0.0000     Total:     0.0000

  Dipole Moment: [D]
     X:     0.0000      Y:     0.0000      Z:     0.0000     Total:     0.0000


*** tstop() called on atlantis at Tue Apr 19 02:13:13 2022
Module time:
	user time   =       4.26 seconds =       0.07 minutes
	system time =       0.02 seconds =       0.00 minutes
	total time  =          4 seconds =       0.07 minutes
Total time:
	user time   =      18.58 seconds =       0.31 minutes
	system time =       0.14 seconds =       0.00 minutes
	total time  =         18 seconds =       0.30 minutes

*** tstart() called on atlantis
*** at Tue Apr 19 02:13:13 2022


         ------------------------------------------------------------
                                   SCF GRAD                          
                          Rob Parrish, Justin Turney,                
                       Andy Simmonett, and Alex Sokolov              
         ------------------------------------------------------------

  ==> Geometry <==

    Molecular point group: d2h
    Full point group: D_inf_h

    Geometry (in Angstrom), charge = 0, multiplicity = 1:

       Center              X                  Y                   Z               Mass       
    ------------   -----------------  -----------------  -----------------  -----------------
         C           -0.615000089229    -0.000000000000     0.000000000000    12.000000000000
         C            0.615000089229     0.000000000000     0.000000000000    12.000000000000
         H           -1.689230000000    -0.000000000000     0.000000000000     1.007825032230
         H            1.689230000000     0.000000000000     0.000000000000     1.007825032230

  Nuclear repulsion =   24.311929094340595

  ==> Basis Set <==

  Basis Set: CC-PVTZ
    Blend: CC-PVTZ
    Number of shells: 32
    Number of basis function: 88
    Number of Cartesian functions: 100
    Spherical Harmonics?: true
    Max angular momentum: 3

  ==> DFJKGrad: Density-Fitted SCF Gradients <==

    Gradient:                    1
    J tasked:                  Yes
    K tasked:                  Yes
    wK tasked:                  No
    OpenMP threads:              1
    Integrals threads:           1
    Memory [MiB]:              375
    Schwarz Cutoff:          0E+00
    Fitting Condition:       1E-10

   => Auxiliary Basis Set <=

  Basis Set: (CC-PVTZ AUX)
    Blend: CC-PVTZ-JKFIT
    Number of shells: 70
    Number of basis function: 218
    Number of Cartesian functions: 262
    Spherical Harmonics?: true
    Max angular momentum: 4

  ==> DFT Potential <==

   => Composite Functional: M06-2X <= 

    Hybrid M06-2X Meta-GGA XC Functional

    Y. Zhao and D. G. Truhlar,  Theor. Chem. Acc., 120, 215, 2008


    Deriv               =              1
    GGA                 =           TRUE
    Meta                =           TRUE

    Exchange Hybrid     =           TRUE
    MP2 Hybrid          =          FALSE

   => Exchange Functionals <=

    1.0000   XC_HYB_MGGA_X_M06_2X

   => Exact (HF) Exchange <=

    0.5400               HF 

   => Correlation Functionals <=

    1.0000   XC_MGGA_C_M06_2X

   => Molecular Quadrature <=

    Radial Scheme          =       TREUTLER
    Pruning Scheme         =           FLAT
    Nuclear Scheme         =       TREUTLER

    BS radius alpha        =              1
    Pruning alpha          =              1
    Radial Points          =             75
    Spherical Points       =            302
    Total Points           =          88542
    Total Blocks           =            732
    Max Points             =            253
    Max Functions          =             88


  -Total Gradient:
     Atom            X                  Y                   Z
    ------   -----------------  -----------------  -----------------
       1       -0.062984691783    -0.000000000000     0.000000000000
       2        0.062984691783     0.000000000000    -0.000000000000
       3       -0.008113055154    -0.000000000000     0.000000000000
       4        0.008113055154     0.000000000000     0.000000000000


*** tstop() called on atlantis at Tue Apr 19 02:13:14 2022
Module time:
	user time   =       0.94 seconds =       0.02 minutes
	system time =       0.00 seconds =       0.00 minutes
	total time  =          1 seconds =       0.02 minutes
Total time:
	user time   =      19.53 seconds =       0.33 minutes
	system time =       0.14 seconds =       0.00 minutes
	total time  =         19 seconds =       0.32 minutes

  //>>>>>>>>>>>>>>>>>>>>>>>>>>>>>>>>>>>//
  //    Loading displacement 3 of 12   //
  //<<<<<<<<<<<<<<<<<<<<<<<<<<<<<<<<<<<//
gradient() will perform analytic gradient computation.

*** tstart() called on atlantis
*** at Tue Apr 19 02:13:14 2022

   => Loading Basis Set <=

    Name: CC-PVTZ
    Role: ORBITAL
    Keyword: BASIS
    atoms 1-2 entry C          line   186 file /home/akrom/software/anaconda3/envs/ffpenv/share/psi4/basis/cc-pvtz.gbs 
    atoms 3-4 entry H          line    23 file /home/akrom/software/anaconda3/envs/ffpenv/share/psi4/basis/cc-pvtz.gbs 


         ---------------------------------------------------------
                                   SCF
               by Justin Turney, Rob Parrish, Andy Simmonett
                          and Daniel G. A. Smith
                              RKS Reference
                        1 Threads,    500 MiB Core
         ---------------------------------------------------------

  ==> Geometry <==

    Molecular point group: d2h
    Full point group: D_inf_h

    Geometry (in Angstrom), charge = 0, multiplicity = 1:

       Center              X                  Y                   Z               Mass       
    ------------   -----------------  -----------------  -----------------  -----------------
         C           -0.613919910771    -0.000000000000     0.000000000000    12.000000000000
         C            0.613919910771     0.000000000000     0.000000000000    12.000000000000
         H           -1.689230000000    -0.000000000000     0.000000000000     1.007825032230
         H            1.689230000000     0.000000000000     0.000000000000     1.007825032230

  Running in d2h symmetry.

  Rotational constants: A = ************  B =      1.13924  C =      1.13924 [cm^-1]
  Rotational constants: A = ************  B =  34153.69835  C =  34153.69835 [MHz]
  Nuclear repulsion =   24.334534488106961

  Charge       = 0
  Multiplicity = 1
  Electrons    = 14
  Nalpha       = 7
  Nbeta        = 7

  ==> Algorithm <==

  SCF Algorithm Type is DF.
  DIIS enabled.
  MOM disabled.
  Fractional occupation disabled.
  Guess Type is SAD.
  Energy threshold   = 1.00e-08
  Density threshold  = 1.00e-08
  Integral threshold = 0.00e+00

  ==> Primary Basis <==

  Basis Set: CC-PVTZ
    Blend: CC-PVTZ
    Number of shells: 32
    Number of basis function: 88
    Number of Cartesian functions: 100
    Spherical Harmonics?: true
    Max angular momentum: 3

  ==> DFT Potential <==

   => Composite Functional: M06-2X <= 

    Hybrid M06-2X Meta-GGA XC Functional

    Y. Zhao and D. G. Truhlar,  Theor. Chem. Acc., 120, 215, 2008


    Deriv               =              1
    GGA                 =           TRUE
    Meta                =           TRUE

    Exchange Hybrid     =           TRUE
    MP2 Hybrid          =          FALSE

   => Exchange Functionals <=

    1.0000   XC_HYB_MGGA_X_M06_2X

   => Exact (HF) Exchange <=

    0.5400               HF 

   => Correlation Functionals <=

    1.0000   XC_MGGA_C_M06_2X

   => Molecular Quadrature <=

    Radial Scheme          =       TREUTLER
    Pruning Scheme         =           FLAT
    Nuclear Scheme         =       TREUTLER

    BS radius alpha        =              1
    Pruning alpha          =              1
    Radial Points          =             75
    Spherical Points       =            302
    Total Points           =          88542
    Total Blocks           =            734
    Max Points             =            254
    Max Functions          =             88

   => Loading Basis Set <=

    Name: (CC-PVTZ AUX)
    Role: JKFIT
    Keyword: DF_BASIS_SCF
    atoms 1-2 entry C          line   125 file /home/akrom/software/anaconda3/envs/ffpenv/share/psi4/basis/cc-pvtz-jkfit.gbs 
    atoms 3-4 entry H          line    51 file /home/akrom/software/anaconda3/envs/ffpenv/share/psi4/basis/cc-pvtz-jkfit.gbs 

  ==> Pre-Iterations <==

   -------------------------------------------------------
    Irrep   Nso     Nmo     Nalpha   Nbeta   Ndocc  Nsocc
   -------------------------------------------------------
     Ag        20      20       0       0       0       0
     B1g       10      10       0       0       0       0
     B2g       10      10       0       0       0       0
     B3g        4       4       0       0       0       0
     Au         4       4       0       0       0       0
     B1u       10      10       0       0       0       0
     B2u       10      10       0       0       0       0
     B3u       20      20       0       0       0       0
   -------------------------------------------------------
    Total      88      88       7       7       7       0
   -------------------------------------------------------

  ==> Integral Setup <==

  DFHelper Memory: AOs need 0.015 GiB; user supplied 0.015 GiB. Using in-core AOs.

  ==> MemDFJK: Density-Fitted J/K Matrices <==

    J tasked:                   Yes
    K tasked:                   Yes
    wK tasked:                   No
    OpenMP threads:               1
    Memory [MiB]:                14
    Algorithm:                 Core
    Schwarz Cutoff:           1E-12
    Mask sparsity (%):       0.1033
    Fitting Condition:        1E-10

   => Auxiliary Basis Set <=

  Basis Set: (CC-PVTZ AUX)
    Blend: CC-PVTZ-JKFIT
    Number of shells: 70
    Number of basis function: 218
    Number of Cartesian functions: 262
    Spherical Harmonics?: true
    Max angular momentum: 4

  Cached 100.0% of DFT collocation blocks in 0.510 [GiB].

  Minimum eigenvalue in the overlap matrix is 1.4087789024E-04.
  Using Symmetric Orthogonalization.

  SCF Guess: Superposition of Atomic Densities via on-the-fly atomic UHF.

  ==> Iterations <==

                           Total Energy        Delta E     RMS |[F,P]|

   @DF-RKS iter SAD:   -76.58860542278214   -7.65886e+01   0.00000e+00 
   @DF-RKS iter   1:   -77.21124285357052   -6.22637e-01   1.37367e-02 DIIS
   @DF-RKS iter   2:   -77.26434145481299   -5.30986e-02   9.62955e-03 DIIS
   @DF-RKS iter   3:   -77.32192659590197   -5.75851e-02   3.97766e-04 DIIS
   @DF-RKS iter   4:   -77.32203530624771   -1.08710e-04   2.42810e-05 DIIS
   @DF-RKS iter   5:   -77.32203581566395   -5.09416e-07   2.13411e-06 DIIS
   @DF-RKS iter   6:   -77.32203582103799   -5.37403e-09   4.26647e-07 DIIS
   @DF-RKS iter   7:   -77.32203582118305   -1.45064e-10   7.08607e-08 DIIS
   @DF-RKS iter   8:   -77.32203582118949   -6.43752e-12   7.22062e-09 DIIS
  Energy and wave function converged.


  ==> Post-Iterations <==

    Orbital Energies [Eh]
    ---------------------

    Doubly Occupied:                                                      

       1Ag   -10.556637     1B3u  -10.554307     2Ag    -0.844862  
       2B3u   -0.646212     3Ag    -0.561757     1B1u   -0.352075  
       1B2u   -0.352075  

    Virtual:                                                              

       1B2g    0.064916     1B1g    0.064916     3B3u    0.080725  
       4Ag     0.105918     5Ag     0.222255     4B3u    0.277828  
       2B1u    0.333413     2B2u    0.333413     5B3u    0.423195  
       2B2g    0.442775     2B1g    0.442775     6Ag     0.475218  
       7Ag     0.632590     1B3g    0.632590     8Ag     0.656086  
       3B1u    0.660152     3B2u    0.660152     6B3u    0.808441  
       7B3u    0.904285     3B2g    0.917260     3B1g    0.917260  
       1Au     0.926639     8B3u    0.926641     9Ag     1.057514  
       4B1u    1.268443     4B2u    1.268443     9B3u    1.409790  
      10Ag     1.470504     4B2g    1.482977     4B1g    1.482977  
      10B3u    1.761915     5B1u    2.035144     5B2u    2.035144  
      11Ag     2.218166    11B3u    2.400893     2B3g    2.422207  
      12Ag     2.422235     5B1g    2.462972     5B2g    2.462972  
       6B2u    2.545307     6B1u    2.545307     7B1u    2.704537  
       7B2u    2.704537    13Ag     2.838564    14Ag     2.912362  
       3B3g    2.927021    15Ag     2.927042     6B1g    2.927480  
       6B2g    2.927480     7B2g    2.950905     7B1g    2.950905  
      12B3u    2.957456     2Au     2.995755    13B3u    2.995797  
       8B1u    3.131270     8B2u    3.131270     3Au     3.136132  
      14B3u    3.136141    15B3u    3.523540    16Ag     3.554325  
       4B3g    3.554390     8B1g    3.791624     8B2g    3.791624  
       9B1u    3.929714     9B2u    3.929714    17Ag     4.093686  
      16B3u    4.110251     4Au     4.110316    17B3u    4.412305  
       9B2g    4.482183     9B1g    4.482183    18Ag     4.753312  
      10B1u    5.328555    10B2u    5.328555    18B3u    5.653544  
      19B3u    5.832582    10B1g    5.855208    10B2g    5.855208  
      19Ag     6.207469    20Ag     8.852538    20B3u   15.398757  

    Final Occupation by Irrep:
             Ag   B1g   B2g   B3g    Au   B1u   B2u   B3u 
    DOCC [     3,    0,    0,    0,    0,    1,    1,    2 ]

  @DF-RKS Final Energy:   -77.32203582118949

   => Energetics <=

    Nuclear Repulsion Energy =             24.3345344881069607
    One-Electron Energy =                -151.0373059490309515
    Two-Electron Energy =                  54.8988419784538024
    DFT Exchange-Correlation Energy =      -5.5181063387192966
    Empirical Dispersion Energy =           0.0000000000000000
    VV10 Nonlocal Energy =                  0.0000000000000000
    Total Energy =                        -77.3220358211894876

Computation Completed


Properties will be evaluated at   0.000000,   0.000000,   0.000000 [a0]

Properties computed using the SCF density matrix

  Nuclear Dipole Moment: [e a0]
     X:     0.0000      Y:     0.0000      Z:     0.0000

  Electronic Dipole Moment: [e a0]
     X:     0.0000      Y:     0.0000      Z:     0.0000

  Dipole Moment: [e a0]
     X:     0.0000      Y:     0.0000      Z:     0.0000     Total:     0.0000

  Dipole Moment: [D]
     X:     0.0000      Y:     0.0000      Z:     0.0000     Total:     0.0000


*** tstop() called on atlantis at Tue Apr 19 02:13:19 2022
Module time:
	user time   =       4.31 seconds =       0.07 minutes
	system time =       0.02 seconds =       0.00 minutes
	total time  =          5 seconds =       0.08 minutes
Total time:
	user time   =      23.85 seconds =       0.40 minutes
	system time =       0.16 seconds =       0.00 minutes
	total time  =         24 seconds =       0.40 minutes

*** tstart() called on atlantis
*** at Tue Apr 19 02:13:19 2022


         ------------------------------------------------------------
                                   SCF GRAD                          
                          Rob Parrish, Justin Turney,                
                       Andy Simmonett, and Alex Sokolov              
         ------------------------------------------------------------

  ==> Geometry <==

    Molecular point group: d2h
    Full point group: D_inf_h

    Geometry (in Angstrom), charge = 0, multiplicity = 1:

       Center              X                  Y                   Z               Mass       
    ------------   -----------------  -----------------  -----------------  -----------------
         C           -0.613919910771    -0.000000000000     0.000000000000    12.000000000000
         C            0.613919910771     0.000000000000     0.000000000000    12.000000000000
         H           -1.689230000000    -0.000000000000     0.000000000000     1.007825032230
         H            1.689230000000     0.000000000000     0.000000000000     1.007825032230

  Nuclear repulsion =   24.334534488106961

  ==> Basis Set <==

  Basis Set: CC-PVTZ
    Blend: CC-PVTZ
    Number of shells: 32
    Number of basis function: 88
    Number of Cartesian functions: 100
    Spherical Harmonics?: true
    Max angular momentum: 3

  ==> DFJKGrad: Density-Fitted SCF Gradients <==

    Gradient:                    1
    J tasked:                  Yes
    K tasked:                  Yes
    wK tasked:                  No
    OpenMP threads:              1
    Integrals threads:           1
    Memory [MiB]:              375
    Schwarz Cutoff:          0E+00
    Fitting Condition:       1E-10

   => Auxiliary Basis Set <=

  Basis Set: (CC-PVTZ AUX)
    Blend: CC-PVTZ-JKFIT
    Number of shells: 70
    Number of basis function: 218
    Number of Cartesian functions: 262
    Spherical Harmonics?: true
    Max angular momentum: 4

  ==> DFT Potential <==

   => Composite Functional: M06-2X <= 

    Hybrid M06-2X Meta-GGA XC Functional

    Y. Zhao and D. G. Truhlar,  Theor. Chem. Acc., 120, 215, 2008


    Deriv               =              1
    GGA                 =           TRUE
    Meta                =           TRUE

    Exchange Hybrid     =           TRUE
    MP2 Hybrid          =          FALSE

   => Exchange Functionals <=

    1.0000   XC_HYB_MGGA_X_M06_2X

   => Exact (HF) Exchange <=

    0.5400               HF 

   => Correlation Functionals <=

    1.0000   XC_MGGA_C_M06_2X

   => Molecular Quadrature <=

    Radial Scheme          =       TREUTLER
    Pruning Scheme         =           FLAT
    Nuclear Scheme         =       TREUTLER

    BS radius alpha        =              1
    Pruning alpha          =              1
    Radial Points          =             75
    Spherical Points       =            302
    Total Points           =          88542
    Total Blocks           =            734
    Max Points             =            254
    Max Functions          =             88


  -Total Gradient:
     Atom            X                  Y                   Z
    ------   -----------------  -----------------  -----------------
       1       -0.058246542789    -0.000000000000     0.000000000000
       2        0.058246542789     0.000000000000     0.000000000000
       3       -0.008936618468    -0.000000000000     0.000000000000
       4        0.008936618468     0.000000000000     0.000000000000


*** tstop() called on atlantis at Tue Apr 19 02:13:20 2022
Module time:
	user time   =       0.94 seconds =       0.02 minutes
	system time =       0.00 seconds =       0.00 minutes
	total time  =          1 seconds =       0.02 minutes
Total time:
	user time   =      24.79 seconds =       0.41 minutes
	system time =       0.16 seconds =       0.00 minutes
	total time  =         25 seconds =       0.42 minutes

  //>>>>>>>>>>>>>>>>>>>>>>>>>>>>>>>>>>>//
  //    Loading displacement 4 of 12   //
  //<<<<<<<<<<<<<<<<<<<<<<<<<<<<<<<<<<<//
gradient() will perform analytic gradient computation.

*** tstart() called on atlantis
*** at Tue Apr 19 02:13:20 2022

   => Loading Basis Set <=

    Name: CC-PVTZ
    Role: ORBITAL
    Keyword: BASIS
    atoms 1-2 entry C          line   186 file /home/akrom/software/anaconda3/envs/ffpenv/share/psi4/basis/cc-pvtz.gbs 
    atoms 3-4 entry H          line    23 file /home/akrom/software/anaconda3/envs/ffpenv/share/psi4/basis/cc-pvtz.gbs 


         ---------------------------------------------------------
                                   SCF
               by Justin Turney, Rob Parrish, Andy Simmonett
                          and Daniel G. A. Smith
                              RKS Reference
                        1 Threads,    500 MiB Core
         ---------------------------------------------------------

  ==> Geometry <==

    Molecular point group: d2h
    Full point group: D_inf_h

    Geometry (in Angstrom), charge = 0, multiplicity = 1:

       Center              X                  Y                   Z               Mass       
    ------------   -----------------  -----------------  -----------------  -----------------
         C           -0.614460000000    -0.000000000000     0.000000000000    12.000000000000
         C            0.614460000000     0.000000000000     0.000000000000    12.000000000000
         H           -1.691093646632    -0.000000000000     0.000000000000     1.007825032230
         H            1.691093646632     0.000000000000     0.000000000000     1.007825032230

  Running in d2h symmetry.

  Rotational constants: A = ************  B =      1.13705  C =      1.13705 [cm^-1]
  Rotational constants: A = ************  B =  34087.76638  C =  34087.76638 [MHz]
  Nuclear repulsion =   24.310590060340044

  Charge       = 0
  Multiplicity = 1
  Electrons    = 14
  Nalpha       = 7
  Nbeta        = 7

  ==> Algorithm <==

  SCF Algorithm Type is DF.
  DIIS enabled.
  MOM disabled.
  Fractional occupation disabled.
  Guess Type is SAD.
  Energy threshold   = 1.00e-08
  Density threshold  = 1.00e-08
  Integral threshold = 0.00e+00

  ==> Primary Basis <==

  Basis Set: CC-PVTZ
    Blend: CC-PVTZ
    Number of shells: 32
    Number of basis function: 88
    Number of Cartesian functions: 100
    Spherical Harmonics?: true
    Max angular momentum: 3

  ==> DFT Potential <==

   => Composite Functional: M06-2X <= 

    Hybrid M06-2X Meta-GGA XC Functional

    Y. Zhao and D. G. Truhlar,  Theor. Chem. Acc., 120, 215, 2008


    Deriv               =              1
    GGA                 =           TRUE
    Meta                =           TRUE

    Exchange Hybrid     =           TRUE
    MP2 Hybrid          =          FALSE

   => Exchange Functionals <=

    1.0000   XC_HYB_MGGA_X_M06_2X

   => Exact (HF) Exchange <=

    0.5400               HF 

   => Correlation Functionals <=

    1.0000   XC_MGGA_C_M06_2X

   => Molecular Quadrature <=

    Radial Scheme          =       TREUTLER
    Pruning Scheme         =           FLAT
    Nuclear Scheme         =       TREUTLER

    BS radius alpha        =              1
    Pruning alpha          =              1
    Radial Points          =             75
    Spherical Points       =            302
    Total Points           =          88542
    Total Blocks           =            735
    Max Points             =            256
    Max Functions          =             88

   => Loading Basis Set <=

    Name: (CC-PVTZ AUX)
    Role: JKFIT
    Keyword: DF_BASIS_SCF
    atoms 1-2 entry C          line   125 file /home/akrom/software/anaconda3/envs/ffpenv/share/psi4/basis/cc-pvtz-jkfit.gbs 
    atoms 3-4 entry H          line    51 file /home/akrom/software/anaconda3/envs/ffpenv/share/psi4/basis/cc-pvtz-jkfit.gbs 

  ==> Pre-Iterations <==

   -------------------------------------------------------
    Irrep   Nso     Nmo     Nalpha   Nbeta   Ndocc  Nsocc
   -------------------------------------------------------
     Ag        20      20       0       0       0       0
     B1g       10      10       0       0       0       0
     B2g       10      10       0       0       0       0
     B3g        4       4       0       0       0       0
     Au         4       4       0       0       0       0
     B1u       10      10       0       0       0       0
     B2u       10      10       0       0       0       0
     B3u       20      20       0       0       0       0
   -------------------------------------------------------
    Total      88      88       7       7       7       0
   -------------------------------------------------------

  ==> Integral Setup <==

  DFHelper Memory: AOs need 0.015 GiB; user supplied 0.015 GiB. Using in-core AOs.

  ==> MemDFJK: Density-Fitted J/K Matrices <==

    J tasked:                   Yes
    K tasked:                   Yes
    wK tasked:                   No
    OpenMP threads:               1
    Memory [MiB]:                14
    Algorithm:                 Core
    Schwarz Cutoff:           1E-12
    Mask sparsity (%):       0.1033
    Fitting Condition:        1E-10

   => Auxiliary Basis Set <=

  Basis Set: (CC-PVTZ AUX)
    Blend: CC-PVTZ-JKFIT
    Number of shells: 70
    Number of basis function: 218
    Number of Cartesian functions: 262
    Spherical Harmonics?: true
    Max angular momentum: 4

  Cached 100.0% of DFT collocation blocks in 0.510 [GiB].

  Minimum eigenvalue in the overlap matrix is 1.4158751247E-04.
  Using Symmetric Orthogonalization.

  SCF Guess: Superposition of Atomic Densities via on-the-fly atomic UHF.

  ==> Iterations <==

                           Total Energy        Delta E     RMS |[F,P]|

   @DF-RKS iter SAD:   -76.58706759967758   -7.65871e+01   0.00000e+00 
   @DF-RKS iter   1:   -77.21141552442624   -6.24348e-01   1.37068e-02 DIIS
   @DF-RKS iter   2:   -77.26427137012612   -5.28558e-02   9.61576e-03 DIIS
   @DF-RKS iter   3:   -77.32174072521150   -5.74694e-02   3.96134e-04 DIIS
   @DF-RKS iter   4:   -77.32184871336783   -1.07988e-04   2.42744e-05 DIIS
   @DF-RKS iter   5:   -77.32184922234693   -5.08979e-07   2.11011e-06 DIIS
   @DF-RKS iter   6:   -77.32184922765296   -5.30603e-09   4.21496e-07 DIIS
   @DF-RKS iter   7:   -77.32184922779554   -1.42578e-10   7.03840e-08 DIIS
   @DF-RKS iter   8:   -77.32184922780201   -6.46594e-12   7.23889e-09 DIIS
  Energy and wave function converged.


  ==> Post-Iterations <==

    Orbital Energies [Eh]
    ---------------------

    Doubly Occupied:                                                      

       1Ag   -10.557034     1B3u  -10.554721     2Ag    -0.844551  
       2B3u   -0.645918     3Ag    -0.561385     1B2u   -0.351872  
       1B1u   -0.351872  

    Virtual:                                                              

       1B1g    0.064652     1B2g    0.064652     3B3u    0.080497  
       4Ag     0.105829     5Ag     0.222378     4B3u    0.277176  
       2B1u    0.333480     2B2u    0.333480     5B3u    0.423173  
       2B1g    0.442634     2B2g    0.442634     6Ag     0.474888  
       7Ag     0.632594     1B3g    0.632594     8Ag     0.655516  
       3B1u    0.659731     3B2u    0.659731     6B3u    0.807861  
       7B3u    0.902861     3B1g    0.916601     3B2g    0.916601  
       1Au     0.926418     8B3u    0.926419     9Ag     1.058418  
       4B2u    1.267273     4B1u    1.267273     9B3u    1.408654  
      10Ag     1.468292     4B1g    1.482814     4B2g    1.482814  
      10B3u    1.761343     5B2u    2.035174     5B1u    2.035174  
      11Ag     2.218194    11B3u    2.401530     2B3g    2.421699  
      12Ag     2.421727     5B1g    2.461458     5B2g    2.461458  
       6B1u    2.545530     6B2u    2.545530     7B2u    2.704336  
       7B1u    2.704336    13Ag     2.837673    14Ag     2.910214  
       6B2g    2.926890     6B1g    2.926890     3B3g    2.927466  
      15Ag     2.927487     7B1g    2.951850     7B2g    2.951850  
      12B3u    2.955433     2Au     2.995621    13B3u    2.995662  
       8B1u    3.129549     8B2u    3.129549     3Au     3.135061  
      14B3u    3.135070    15B3u    3.521450    16Ag     3.552222  
       4B3g    3.552287     8B1g    3.790907     8B2g    3.790907  
       9B1u    3.927801     9B2u    3.927801    17Ag     4.089551  
      16B3u    4.106932     4Au     4.106997    17B3u    4.409099  
       9B1g    4.477351     9B2g    4.477351    18Ag     4.748027  
      10B1u    5.321569    10B2u    5.321569    18B3u    5.647947  
      19B3u    5.829937    10B1g    5.852335    10B2g    5.852335  
      19Ag     6.198251    20Ag     8.833342    20B3u   15.370922  

    Final Occupation by Irrep:
             Ag   B1g   B2g   B3g    Au   B1u   B2u   B3u 
    DOCC [     3,    0,    0,    0,    0,    1,    1,    2 ]

  @DF-RKS Final Energy:   -77.32184922780201

   => Energetics <=

    Nuclear Repulsion Energy =             24.3105900603400436
    One-Electron Energy =                -150.9909322177703075
    Two-Electron Energy =                  54.8757116559856755
    DFT Exchange-Correlation Energy =      -5.5172187263574077
    Empirical Dispersion Energy =           0.0000000000000000
    VV10 Nonlocal Energy =                  0.0000000000000000
    Total Energy =                        -77.3218492278020051

Computation Completed


Properties will be evaluated at   0.000000,   0.000000,   0.000000 [a0]

Properties computed using the SCF density matrix

  Nuclear Dipole Moment: [e a0]
     X:     0.0000      Y:     0.0000      Z:     0.0000

  Electronic Dipole Moment: [e a0]
     X:     0.0000      Y:     0.0000      Z:     0.0000

  Dipole Moment: [e a0]
     X:     0.0000      Y:     0.0000      Z:     0.0000     Total:     0.0000

  Dipole Moment: [D]
     X:     0.0000      Y:     0.0000      Z:     0.0000     Total:     0.0000


[...]
    Total      88      88       7       7       7       0
   -------------------------------------------------------

  ==> Integral Setup <==

  DFHelper Memory: AOs need 0.015 GiB; user supplied 0.015 GiB. Using in-core AOs.

  ==> MemDFJK: Density-Fitted J/K Matrices <==

    J tasked:                   Yes
    K tasked:                   Yes
    wK tasked:                   No
    OpenMP threads:               1
    Memory [MiB]:                14
    Algorithm:                 Core
    Schwarz Cutoff:           1E-12
    Mask sparsity (%):       0.1033
    Fitting Condition:        1E-10

   => Auxiliary Basis Set <=

  Basis Set: (CC-PVTZ AUX)
    Blend: CC-PVTZ-JKFIT
    Number of shells: 70
    Number of basis function: 218
    Number of Cartesian functions: 262
    Spherical Harmonics?: true
    Max angular momentum: 4

  Cached 100.0% of DFT collocation blocks in 0.509 [GiB].

  Minimum eigenvalue in the overlap matrix is 1.4146759250E-04.
  Using Symmetric Orthogonalization.

  SCF Guess: Superposition of Atomic Densities via on-the-fly atomic UHF.

  ==> Iterations <==

                           Total Energy        Delta E     RMS |[F,P]|

   @DF-RKS iter SAD:   -76.58775644285673   -7.65878e+01   0.00000e+00 
   @DF-RKS iter   1:   -77.21155042004408   -6.23794e-01   9.69157e-03 DIIS
   @DF-RKS iter   2:   -77.26453257814040   -5.29822e-02   6.78983e-03 DIIS
   @DF-RKS iter   3:   -77.32179920570722   -5.72666e-02   2.82075e-04 DIIS
   @DF-RKS iter   4:   -77.32190404493036   -1.04839e-04   6.29572e-05 DIIS
   @DF-RKS iter   5:   -77.32190486304812   -8.18118e-07   5.83298e-05 DIIS
   @DF-RKS iter   6:   -77.32190900827419   -4.14523e-06   1.17752e-06 DIIS
   @DF-RKS iter   7:   -77.32190901121989   -2.94570e-09   1.96750e-07 DIIS
   @DF-RKS iter   8:   -77.32190901128340   -6.35083e-11   3.29679e-08 DIIS
   @DF-RKS iter   9:   -77.32190901128618   -2.78533e-12   3.31237e-09 DIIS
  Energy and wave function converged.


  ==> Post-Iterations <==

    Orbital Energies [Eh]
    ---------------------

    Doubly Occupied:                                                      

       1A1   -10.556915     2A1   -10.554576     3A1    -0.844666  
       4A1    -0.646534     5A1    -0.561873     1B1    -0.351909  
       1B2    -0.351909  

    Virtual:                                                              

       2B1     0.064606     2B2     0.064606     6A1     0.080720  
       7A1     0.105925     8A1     0.222291     9A1     0.277586  
       3B2     0.333480     3B1     0.333480    10A1     0.423276  
       4B1     0.442630     4B2     0.442630    11A1     0.475311  
      12A1     0.632558     1A2     0.632558    13A1     0.656064  
       5B1     0.660023     5B2     0.660023    14A1     0.807620  
      15A1     0.904038     6B1     0.917206     6B2     0.917206  
       2A2     0.926387    16A1     0.926388    17A1     1.057701  
       7B2     1.268150     7B1     1.268150    18A1     1.409587  
      19A1     1.471327     8B2     1.483342     8B1     1.483342  
      20A1     1.760870     9B1     2.035383     9B2     2.035383  
      21A1     2.217967    22A1     2.399957     3A2     2.421861  
      23A1     2.421889    10B1     2.461864    10B2     2.461864  
      11B2     2.545509    11B1     2.545509    12B1     2.703947  
      12B2     2.703947    24A1     2.838347    25A1     2.911998  
      13B1     2.926869    13B2     2.926869     4A2     2.927004  
      26A1     2.927025    14B1     2.951281    14B2     2.951281  
      27A1     2.958196     5A2     2.995581    28A1     2.995622  
      15B1     3.130624    15B2     3.130624     6A2     3.135720  
      29A1     3.135729    30A1     3.523623    31A1     3.554541  
       7A2     3.554606    16B1     3.791301    16B2     3.791301  
      17B2     3.929790    17B1     3.929790    32A1     4.092667  
      33A1     4.109739     8A2     4.109803    34A1     4.412947  
      18B2     4.482055    18B1     4.482055    35A1     4.755346  
      19B2     5.328624    19B1     5.328624    36A1     5.654674  
      37A1     5.831821    20B1     5.855935    20B2     5.855935  
      38A1     6.204524    39A1     8.860551    40A1    15.374375  

    Final Occupation by Irrep:
             A1    A2    B1    B2 
    DOCC [     5,    0,    1,    1 ]

  @DF-RKS Final Energy:   -77.32190901128618

   => Energetics <=

    Nuclear Repulsion Energy =             24.3232393838559098
    One-Electron Energy =                -151.0137971718978633
    Two-Electron Energy =                  54.8864817290514608
    DFT Exchange-Correlation Energy =      -5.5178329522956755
    Empirical Dispersion Energy =           0.0000000000000000
    VV10 Nonlocal Energy =                  0.0000000000000000
    Total Energy =                        -77.3219090112861664

Computation Completed


Properties will be evaluated at   0.000000,   0.000000,   0.000000 [a0]

Properties computed using the SCF density matrix

  Nuclear Dipole Moment: [e a0]
     X:     0.0034      Y:     0.0000      Z:     0.0000

  Electronic Dipole Moment: [e a0]
     X:    -0.0017      Y:     0.0000      Z:     0.0000

  Dipole Moment: [e a0]
     X:     0.0016      Y:     0.0000      Z:     0.0000     Total:     0.0016

  Dipole Moment: [D]
     X:     0.0042      Y:     0.0000      Z:     0.0000     Total:     0.0042


*** tstop() called on atlantis at Tue Apr 19 02:14:06 2022
Module time:
	user time   =       4.69 seconds =       0.08 minutes
	system time =       0.02 seconds =       0.00 minutes
	total time  =          4 seconds =       0.07 minutes
Total time:
	user time   =      71.27 seconds =       1.19 minutes
	system time =       0.32 seconds =       0.01 minutes
	total time  =         71 seconds =       1.18 minutes

*** tstart() called on atlantis
*** at Tue Apr 19 02:14:06 2022


         ------------------------------------------------------------
                                   SCF GRAD                          
                          Rob Parrish, Justin Turney,                
                       Andy Simmonett, and Alex Sokolov              
         ------------------------------------------------------------

  ==> Geometry <==

    Molecular point group: c2v
    Full point group: C_inf_v

    Geometry (in Angstrom), charge = 0, multiplicity = 1:

       Center              X                  Y                   Z               Mass       
    ------------   -----------------  -----------------  -----------------  -----------------
         C           -0.614610333491     0.000000000000     0.000000000000    12.000000000000
         C            0.614309666509     0.000000000000     0.000000000000    12.000000000000
         H           -1.687440004874     0.000000000000     0.000000000000     1.007825032230
         H            1.691019995126     0.000000000000     0.000000000000     1.007825032230

  Nuclear repulsion =   24.323239383855910

  ==> Basis Set <==

  Basis Set: CC-PVTZ
    Blend: CC-PVTZ
    Number of shells: 32
    Number of basis function: 88
    Number of Cartesian functions: 100
    Spherical Harmonics?: true
    Max angular momentum: 3

  ==> DFJKGrad: Density-Fitted SCF Gradients <==

    Gradient:                    1
    J tasked:                  Yes
    K tasked:                  Yes
    wK tasked:                  No
    OpenMP threads:              1
    Integrals threads:           1
    Memory [MiB]:              375
    Schwarz Cutoff:          0E+00
    Fitting Condition:       1E-10

   => Auxiliary Basis Set <=

  Basis Set: (CC-PVTZ AUX)
    Blend: CC-PVTZ-JKFIT
    Number of shells: 70
    Number of basis function: 218
    Number of Cartesian functions: 262
    Spherical Harmonics?: true
    Max angular momentum: 4

  ==> DFT Potential <==

   => Composite Functional: M06-2X <= 

    Hybrid M06-2X Meta-GGA XC Functional

    Y. Zhao and D. G. Truhlar,  Theor. Chem. Acc., 120, 215, 2008


    Deriv               =              1
    GGA                 =           TRUE
    Meta                =           TRUE

    Exchange Hybrid     =           TRUE
    MP2 Hybrid          =          FALSE

   => Exchange Functionals <=

    1.0000   XC_HYB_MGGA_X_M06_2X

   => Exact (HF) Exchange <=

    0.5400               HF 

   => Correlation Functionals <=

    1.0000   XC_MGGA_C_M06_2X

   => Molecular Quadrature <=

    Radial Scheme          =       TREUTLER
    Pruning Scheme         =           FLAT
    Nuclear Scheme         =       TREUTLER

    BS radius alpha        =              1
    Pruning alpha          =              1
    Radial Points          =             75
    Spherical Points       =            302
    Total Points           =          88542
    Total Blocks           =            740
    Max Points             =            256
    Max Functions          =             88


  -Total Gradient:
     Atom            X                  Y                   Z
    ------   -----------------  -----------------  -----------------
       1       -0.062048725777     0.000000000000     0.000000000000
       2        0.059209850866     0.000000000000     0.000000000000
       3       -0.007098543507     0.000000000000     0.000000000000
       4        0.009936865748     0.000000000000     0.000000000000


*** tstop() called on atlantis at Tue Apr 19 02:14:07 2022
Module time:
	user time   =       0.95 seconds =       0.02 minutes
	system time =       0.00 seconds =       0.00 minutes
	total time  =          1 seconds =       0.02 minutes
Total time:
	user time   =      72.22 seconds =       1.20 minutes
	system time =       0.32 seconds =       0.01 minutes
	total time  =         72 seconds =       1.20 minutes

         ----------------------------------------------------------
                                   FINDIF
                     R. A. King and Jonathon Misiewicz
         ---------------------------------------------------------

  Computing second-derivative from gradients using projected, 
  symmetry-adapted, cartesian coordinates.

  12 gradients passed in, including the reference geometry.
  Generating complete list of displacements from unique ones.

    Operation 3 takes plus displacements of irrep B1g to minus ones.
    Operation 2 takes plus displacements of irrep B2g to minus ones.
    Operation 3 takes plus displacements of irrep B1u to minus ones.
    Operation 2 takes plus displacements of irrep B2u to minus ones.
    Operation 2 takes plus displacements of irrep B3u to minus ones.

-------------------------------------------------------------


  ==> Harmonic Vibrational Analysis <==

  non-mass-weighted Hessian:       Symmetric? True   Hermitian? True   Lin Dep Dim?  3 (0)
  projection of translations (True) and rotations (False) removed 3 degrees of freedom (5)
  total projector:                 Symmetric? True   Hermitian? True   Lin Dep Dim?  3 (3)
  mass-weighted Hessian:           Symmetric? True   Hermitian? True   Lin Dep Dim?  3 (0)
  pre-proj  low-frequency mode:    0.0000i [cm^-1]
  pre-proj  low-frequency mode:    0.0000  [cm^-1]
  pre-proj  low-frequency mode:    0.0000  [cm^-1]
  pre-proj  low-frequency mode:  310.4665  [cm^-1]
  pre-proj  low-frequency mode:  310.4665  [cm^-1]
  pre-proj  all modes:['0.0000i' '0.0000' '0.0000' '310.4665' '310.4665' '740.8196' '740.8196'
 '837.2531' '837.2531' '1914.6394' '3316.6946' '3407.9175']
  projected mass-weighted Hessian: Symmetric? True   Hermitian? True   Lin Dep Dim?  3 (3)
  post-proj low-frequency mode:    0.0000i [cm^-1] (TR)
  post-proj low-frequency mode:    0.0000i [cm^-1] (TR)
  post-proj low-frequency mode:    0.0000  [cm^-1] (TR)
  post-proj low-frequency mode:  310.4665  [cm^-1] (V)
  post-proj low-frequency mode:  310.4665  [cm^-1] (V)
  post-proj  all modes:['0.0000i' '0.0000i' '0.0000' '310.4665' '310.4665' '740.8196' '740.8196'
 '837.2531' '837.2531' '1914.6394' '3316.6946' '3407.9175']

  Note that "Vibration"s include 2 un-projected rotation-like modes.
  Vibration                       4                   5                   6           
  Freq [cm^-1]                 310.4665            310.4665            740.8196       
  Irrep                          B1g                 B2g                 B2g          
  Reduced mass [u]              2.0792              2.0792              1.6818        
  Force const [mDyne/A]         0.1181              0.1181              0.5438        
  Turning point v=0 [a0]        0.4319              0.4319              0.3109        
  RMS dev v=0 [a0 u^1/2]        0.4403              0.4403              0.2851        
  Char temp [K]                446.6921            446.6921           1065.8745       
  ----------------------------------------------------------------------------------
      1   C               -0.00  0.22  0.00    0.00 -0.00  0.22   -0.00  0.00 -0.18   
      2   C               -0.00 -0.22 -0.00    0.00  0.00 -0.22   -0.00 -0.00  0.18   
      3   H               -0.00  0.67  0.00    0.00 -0.00  0.67   -0.00 -0.00  0.69   
      4   H               -0.00 -0.67 -0.00    0.00  0.00 -0.67   -0.00  0.00 -0.69   

  Vibration                       7                   8                   9           
  Freq [cm^-1]                 740.8196            837.2531            837.2531       
  Irrep                          B1g                 B2u                 B1u          
  Reduced mass [u]              1.6818              1.0848              1.0848        
  Force const [mDyne/A]         0.5438              0.4480              0.4480        
  Turning point v=0 [a0]        0.3109              0.3641              0.3641        
  RMS dev v=0 [a0 u^1/2]        0.2851              0.2681              0.2681        
  Char temp [K]               1065.8745           1204.6208           1204.6208       
  ----------------------------------------------------------------------------------
      1   C                0.00 -0.18 -0.00    0.00 -0.06 -0.00   -0.00  0.00 -0.06   
      2   C                0.00  0.18  0.00    0.00 -0.06 -0.00   -0.00  0.00 -0.06   
      3   H                0.00  0.69  0.00    0.00  0.70  0.00   -0.00 -0.00  0.70   
      4   H                0.00 -0.69 -0.00    0.00  0.70  0.00   -0.00 -0.00  0.70   

  Vibration                       10                  11                  12          
  Freq [cm^-1]                1914.6394           3316.6946           3407.9175       
  Irrep                           Ag                 B3u                  Ag          
  Reduced mass [u]              4.0218              1.0848              1.2093        
  Force const [mDyne/A]         8.6866              7.0310              8.2749        
  Turning point v=0 [a0]        0.1250              0.1829              0.1709        
  RMS dev v=0 [a0 u^1/2]        0.1773              0.1347              0.1329        
  Char temp [K]               2754.7398           4771.9850           4903.2345       
  ----------------------------------------------------------------------------------
      1   C                0.37  0.00 -0.00   -0.06  0.00  0.00   -0.10 -0.00 -0.00   
      2   C               -0.37 -0.00  0.00   -0.06  0.00 -0.00    0.10  0.00  0.00   
      3   H                0.60  0.00  0.00    0.70  0.00 -0.00    0.70  0.00  0.00   
      4   H               -0.60 -0.00 -0.00    0.70 -0.00  0.00   -0.70 -0.00 -0.00   

  ==> Thermochemistry Components <==

  Entropy, S
    Electronic S            0.000 [cal/(mol K)]        0.000 [J/(mol K)]       0.00000000 [mEh/K] (multiplicity = 1)
    Translational S        35.704 [cal/(mol K)]      149.387 [J/(mol K)]       0.05689862 [mEh/K] (mol. weight = 26.0157 [u], P = 101325.00 [Pa])
    Rotational S           10.952 [cal/(mol K)]       45.824 [J/(mol K)]       0.01745345 [mEh/K] (symmetry no. = 2)
    Vibrational S           3.602 [cal/(mol K)]       15.072 [J/(mol K)]       0.00574053 [mEh/K]
  Total S                  50.259 [cal/(mol K)]      210.283 [J/(mol K)]       0.08009260 [mEh/K]
  Correction S              0.000 [cal/(mol K)]        0.000 [J/(mol K)]       0.00000000 [mEh/K]

  Constant volume heat capacity, Cv
    Electronic Cv           0.000 [cal/(mol K)]        0.000 [J/(mol K)]       0.00000000 [mEh/K]
    Translational Cv        2.981 [cal/(mol K)]       12.472 [J/(mol K)]       0.00475022 [mEh/K]
    Rotational Cv           1.987 [cal/(mol K)]        8.314 [J/(mol K)]       0.00316681 [mEh/K]
    Vibrational Cv          6.013 [cal/(mol K)]       25.158 [J/(mol K)]       0.00958231 [mEh/K]
  Total Cv                 10.981 [cal/(mol K)]       45.944 [J/(mol K)]       0.01749933 [mEh/K]
  Correction Cv             0.000 [cal/(mol K)]        0.000 [J/(mol K)]       0.00000000 [mEh/K]

  Constant pressure heat capacity, Cp
    Electronic Cp           0.000 [cal/(mol K)]        0.000 [J/(mol K)]       0.00000000 [mEh/K]
    Translational Cp        4.968 [cal/(mol K)]       20.786 [J/(mol K)]       0.00791703 [mEh/K]
    Rotational Cp           1.987 [cal/(mol K)]        8.314 [J/(mol K)]       0.00316681 [mEh/K]
    Vibrational Cp          6.013 [cal/(mol K)]       25.158 [J/(mol K)]       0.00958231 [mEh/K]
  Total Cp                 12.968 [cal/(mol K)]       54.259 [J/(mol K)]       0.02066614 [mEh/K]
  Correction Cp             0.000 [cal/(mol K)]        0.000 [J/(mol K)]       0.00000000 [mEh/K]

  ==> Thermochemistry Energy Analysis <==

  Raw electronic energy, E0
  Total E0, Electronic energy at well bottom at 0 [K]                  -77.32191422 [Eh]

  Zero-point energy, ZPE_vib = Sum_i nu_i / 2
    Electronic ZPE          0.000 [kcal/mol]        0.000 [kJ/mol]       0.00000000 [Eh]
    Translational ZPE       0.000 [kcal/mol]        0.000 [kJ/mol]       0.00000000 [Eh]
    Rotational ZPE          0.000 [kcal/mol]        0.000 [kJ/mol]       0.00000000 [Eh]
    Vibrational ZPE        17.750 [kcal/mol]       74.266 [kJ/mol]       0.02828648 [Eh]        6208.165 [cm^-1]
  Correction ZPE           17.750 [kcal/mol]       74.266 [kJ/mol]       0.02828648 [Eh]        6208.165 [cm^-1]
  Total ZPE, Electronic energy at 0 [K]                                -77.29362774 [Eh]

  Thermal Energy, E (includes ZPE)
    Electronic E            0.000 [kcal/mol]        0.000 [kJ/mol]       0.00000000 [Eh]
    Translational E         0.889 [kcal/mol]        3.718 [kJ/mol]       0.00141628 [Eh]
    Rotational E            0.592 [kcal/mol]        2.479 [kJ/mol]       0.00094418 [Eh]
    Vibrational E          18.469 [kcal/mol]       77.276 [kJ/mol]       0.02943300 [Eh]
  Correction E             19.951 [kcal/mol]       83.474 [kJ/mol]       0.03179346 [Eh]
  Total E, Electronic energy at  298.15 [K]                            -77.29012076 [Eh]

  Enthalpy, H_trans = E_trans + k_B * T
    Electronic H            0.000 [kcal/mol]        0.000 [kJ/mol]       0.00000000 [Eh]
    Translational H         1.481 [kcal/mol]        6.197 [kJ/mol]       0.00236046 [Eh]
    Rotational H            0.592 [kcal/mol]        2.479 [kJ/mol]       0.00094418 [Eh]
    Vibrational H          18.469 [kcal/mol]       77.276 [kJ/mol]       0.02943300 [Eh]
  Correction H             20.543 [kcal/mol]       85.953 [kJ/mol]       0.03273765 [Eh]
  Total H, Enthalpy at  298.15 [K]                                     -77.28917657 [Eh]

  Gibbs free energy, G = H - T * S
    Electronic G            0.000 [kcal/mol]        0.000 [kJ/mol]       0.00000000 [Eh]
    Translational G        -9.164 [kcal/mol]      -38.342 [kJ/mol]      -0.01460386 [Eh]
    Rotational G           -2.673 [kcal/mol]      -11.183 [kJ/mol]      -0.00425956 [Eh]
    Vibrational G          17.395 [kcal/mol]       72.783 [kJ/mol]       0.02772146 [Eh]
  Correction G              5.559 [kcal/mol]       23.257 [kJ/mol]       0.00885804 [Eh]
  Total G, Free enthalpy at  298.15 [K]                                -77.31305618 [Eh]

    Psi4 stopped on: Tuesday, 19 April 2022 02:14AM
    Psi4 wall time for execution: 0:01:12.77

*** Psi4 exiting successfully. Buy a developer a beer!
