
    -----------------------------------------------------------------------
          Psi4: An Open-Source Ab Initio Electronic Structure Package
                               Psi4 1.3.2 release

                         Git: Rev {HEAD} ecbda83 


    R. M. Parrish, L. A. Burns, D. G. A. Smith, A. C. Simmonett,
    A. E. DePrince III, E. G. Hohenstein, U. Bozkaya, A. Yu. Sokolov,
    R. Di Remigio, R. M. Richard, J. F. Gonthier, A. M. James,
    H. R. McAlexander, A. Kumar, M. Saitow, X. Wang, B. P. Pritchard,
    P. Verma, H. F. Schaefer III, K. Patkowski, R. A. King, E. F. Valeev,
    F. A. Evangelista, J. M. Turney, T. D. Crawford, and C. D. Sherrill,
    J. Chem. Theory Comput. 13(7) pp 3185--3197 (2017).
    (doi: 10.1021/acs.jctc.7b00174)


                         Additional Contributions by
    P. Kraus, H. Kruse, M. H. Lechner, M. C. Schieber, R. A. Shaw,
    A. Alenaizan, R. Galvelis, Z. L. Glick, S. Lehtola, and J. P. Misiewicz

    -----------------------------------------------------------------------


    Psi4 started on: Tuesday, 19 April 2022 03:58PM

    Process ID: 5554
    Host:       atlantis
    PSIDATADIR: /home/akrom/software/anaconda3/envs/ffpenv/share/psi4
    Memory:     500.0 MiB
    Threads:    1
    
  ==> Input File <==

--------------------------------------------------------------------------
set basis  6-311++G**
molecule {
0 1
   C        0.32153        0.81326        0.00000
   C       -0.86505       -0.12817        0.00000
   C        0.54353       -0.68508        0.00000
   H        0.53795        1.36069       -0.92039
   H        0.53795        1.36069        0.92039
   H       -1.44742       -0.21449        0.92034
   H       -1.44742       -0.21449       -0.92034
   H        0.90937       -1.14629       -0.92037
   H        0.90937       -1.14629        0.92037
}
energy('scf')
frequencies('scf')
--------------------------------------------------------------------------

*** tstart() called on atlantis
*** at Tue Apr 19 15:58:27 2022

   => Loading Basis Set <=

    Name: 6-311++G**
    Role: ORBITAL
    Keyword: BASIS
    atoms 1-3 entry C          line   119 file /home/akrom/software/anaconda3/envs/ffpenv/share/psi4/basis/6-311ppgss.gbs 
    atoms 4-9 entry H          line    42 file /home/akrom/software/anaconda3/envs/ffpenv/share/psi4/basis/6-311ppgss.gbs 


         ---------------------------------------------------------
                                   SCF
               by Justin Turney, Rob Parrish, Andy Simmonett
                          and Daniel G. A. Smith
                              RHF Reference
                        1 Threads,    500 MiB Core
         ---------------------------------------------------------

  ==> Geometry <==

    Molecular point group: cs
    Full point group: Cs

    Geometry (in Angstrom), charge = 0, multiplicity = 1:

       Center              X                  Y                   Z               Mass       
    ------------   -----------------  -----------------  -----------------  -----------------
         C            0.321531939855     0.813261460475     0.000000000000    12.000000000000
         C           -0.865048060145    -0.128168539525     0.000000000000    12.000000000000
         C            0.543531939855    -0.685078539525     0.000000000000    12.000000000000
         H            0.537951939855     1.360691460475    -0.920390000000     1.007825032230
         H            0.537951939855     1.360691460475     0.920390000000     1.007825032230
         H           -1.447418060145    -0.214488539525     0.920340000000     1.007825032230
         H           -1.447418060145    -0.214488539525    -0.920340000000     1.007825032230
         H            0.909371939855    -1.146288539525    -0.920370000000     1.007825032230
         H            0.909371939855    -1.146288539525     0.920370000000     1.007825032230

  Running in cs symmetry.

  Rotational constants: A =      0.66472  B =      0.66470  C =      0.41647 [cm^-1]
  Rotational constants: A =  19927.70596  B =  19927.20236  C =  12485.44714 [MHz]
  Nuclear repulsion =   75.281464809014025

  Charge       = 0
  Multiplicity = 1
  Electrons    = 24
  Nalpha       = 12
  Nbeta        = 12

  ==> Algorithm <==

  SCF Algorithm Type is DF.
  DIIS enabled.
  MOM disabled.
  Fractional occupation disabled.
  Guess Type is SAD.
  Energy threshold   = 1.00e-06
  Density threshold  = 1.00e-06
  Integral threshold = 0.00e+00

  ==> Primary Basis <==

  Basis Set: 6-311++G**
    Blend: 6-311++G**
    Number of shells: 60
    Number of basis function: 108
    Number of Cartesian functions: 111
    Spherical Harmonics?: true
    Max angular momentum: 2

   => Loading Basis Set <=

    Name: (6-311++G** AUX)
    Role: JKFIT
    Keyword: DF_BASIS_SCF
    atoms 1-3 entry C          line   162 file /home/akrom/software/anaconda3/envs/ffpenv/share/psi4/basis/aug-cc-pvtz-jkfit.gbs 
    atoms 4-9 entry H          line    70 file /home/akrom/software/anaconda3/envs/ffpenv/share/psi4/basis/aug-cc-pvtz-jkfit.gbs 

  ==> Pre-Iterations <==

   -------------------------------------------------------
    Irrep   Nso     Nmo     Nalpha   Nbeta   Ndocc  Nsocc
   -------------------------------------------------------
     A'        69      69       0       0       0       0
     A"        39      39       0       0       0       0
   -------------------------------------------------------
    Total     108     108      12      12      12       0
   -------------------------------------------------------

  ==> Integral Setup <==

  DFHelper Memory: AOs need 0.056 GiB; user supplied 0.366 GiB. Using in-core AOs.

  ==> MemDFJK: Density-Fitted J/K Matrices <==

    J tasked:                   Yes
    K tasked:                   Yes
    wK tasked:                   No
    OpenMP threads:               1
    Memory [MiB]:               375
    Algorithm:                 Core
    Schwarz Cutoff:           1E-12
    Mask sparsity (%):       0.0000
    Fitting Condition:        1E-10

   => Auxiliary Basis Set <=

  Basis Set: (6-311++G** AUX)
    Blend: AUG-CC-PVTZ-JKFIT
    Number of shells: 174
    Number of basis function: 588
    Number of Cartesian functions: 723
    Spherical Harmonics?: true
    Max angular momentum: 4

  Minimum eigenvalue in the overlap matrix is 8.8978795943E-05.
  Using Symmetric Orthogonalization.

  SCF Guess: Superposition of Atomic Densities via on-the-fly atomic UHF.

  ==> Iterations <==

                           Total Energy        Delta E     RMS |[F,P]|

   @DF-RHF iter SAD:  -116.63454660200679   -1.16635e+02   0.00000e+00 
   @DF-RHF iter   1:  -116.96160315446531   -3.27057e-01   5.80778e-03 DIIS
   @DF-RHF iter   2:  -117.05929001464479   -9.76869e-02   2.91116e-03 DIIS
   @DF-RHF iter   3:  -117.08634137900575   -2.70514e-02   4.27215e-04 DIIS
   @DF-RHF iter   4:  -117.08746985177018   -1.12847e-03   5.52779e-05 DIIS
   @DF-RHF iter   5:  -117.08749774271149   -2.78909e-05   1.26424e-05 DIIS
   @DF-RHF iter   6:  -117.08749932167157   -1.57896e-06   2.15253e-06 DIIS
   @DF-RHF iter   7:  -117.08749937409524   -5.24237e-08   3.33679e-07 DIIS
  Energy and wave function converged.


  ==> Post-Iterations <==

    Orbital Energies [Eh]
    ---------------------

    Doubly Occupied:                                                      

       1Ap   -11.228414     2Ap   -11.227442     3Ap   -11.227437  
       4Ap    -1.126352     5Ap    -0.814601     6Ap    -0.814595  
       1App   -0.663761     7Ap    -0.622864     2App   -0.510819  
       3App   -0.510804     8Ap    -0.417302     9Ap    -0.417294  

    Virtual:                                                              

      10Ap     0.049593     4App    0.060308    11Ap     0.060801  
      12Ap     0.060801     5App    0.091528     6App    0.091532  
      13Ap     0.136011    14Ap     0.136214    15Ap     0.136217  
      16Ap     0.174044    17Ap     0.180134    18Ap     0.180139  
       7App    0.207757     8App    0.211888     9App    0.211895  
      19Ap     0.222900    20Ap     0.224116    21Ap     0.224118  
      10App    0.284568    22Ap     0.294498    23Ap     0.336996  
      11App    0.363436    12App    0.363449    24Ap     0.381203  
      25Ap     0.381210    26Ap     0.471906    27Ap     0.471912  
      28Ap     0.545838    13App    0.588260    29Ap     0.653141  
      30Ap     0.653157    14App    0.715518    15App    0.715567  
      31Ap     0.752602    16App    0.850186    32Ap     0.861150  
      33Ap     0.864311    34Ap     0.864320    17App    0.880668  
      18App    0.880677    35Ap     0.910072    36Ap     0.910081  
      37Ap     0.967115    38Ap     1.119485    39Ap     1.119487  
      19App    1.432652    40Ap     1.472055    20App    1.479469  
      21App    1.479480    22App    1.624423    41Ap     1.718212  
      42Ap     1.718240    23App    1.777033    24App    1.777091  
      43Ap     1.859430    25App    1.897888    44Ap     1.925603  
      45Ap     1.925642    26App    2.031973    27App    2.032005  
      46Ap     2.032713    47Ap     2.114380    48Ap     2.114385  
      49Ap     2.329866    50Ap     2.329874    28App    2.350639  
      29App    2.350650    51Ap     2.412221    52Ap     2.536864  
      53Ap     2.536928    54Ap     2.602912    30App    2.684989  
      55Ap     2.719277    31App    2.778699    32App    2.861206  
      33App    2.861236    56Ap     2.993671    57Ap     2.993730  
      34App    3.036388    58Ap     3.072805    59Ap     3.077306  
      60Ap     3.077325    35App    3.324146    36App    3.324188  
      61Ap     3.325440    62Ap     3.325450    63Ap     3.785887  
      37App    3.927240    64Ap     3.930648    38App    4.260747  
      39App    4.260774    65Ap     4.819146    66Ap     4.819177  
      67Ap    25.046010    68Ap    25.046036    69Ap    25.060668  

    Final Occupation by Irrep:
             Ap   App 
    DOCC [     9,    3 ]

  @DF-RHF Final Energy:  -117.08749937409524

   => Energetics <=

    Nuclear Repulsion Energy =             75.2814648090140253
    One-Electron Energy =                -305.5746036543075661
    Two-Electron Energy =                 113.2056394711982819
    Total Energy =                       -117.0874993740952448

Computation Completed


Properties will be evaluated at   0.000000,   0.000000,   0.000000 [a0]

Properties computed using the SCF density matrix

  Nuclear Dipole Moment: [e a0]
     X:    -0.0002      Y:    -0.0002      Z:     0.0000

  Electronic Dipole Moment: [e a0]
     X:     0.0001      Y:     0.0001      Z:     0.0000

  Dipole Moment: [e a0]
     X:    -0.0000      Y:    -0.0000      Z:     0.0000     Total:     0.0000

  Dipole Moment: [D]
     X:    -0.0001      Y:    -0.0001      Z:     0.0000     Total:     0.0001


*** tstop() called on atlantis at Tue Apr 19 15:58:28 2022
Module time:
	user time   =       1.00 seconds =       0.02 minutes
	system time =       0.03 seconds =       0.00 minutes
	total time  =          1 seconds =       0.02 minutes
Total time:
	user time   =       1.00 seconds =       0.02 minutes
	system time =       0.03 seconds =       0.00 minutes
	total time  =          1 seconds =       0.02 minutes
gradient() will perform analytic gradient computation.

*** tstart() called on atlantis
*** at Tue Apr 19 15:58:28 2022

   => Loading Basis Set <=

    Name: 6-311++G**
    Role: ORBITAL
    Keyword: BASIS
    atoms 1-3 entry C          line   119 file /home/akrom/software/anaconda3/envs/ffpenv/share/psi4/basis/6-311ppgss.gbs 
    atoms 4-9 entry H          line    42 file /home/akrom/software/anaconda3/envs/ffpenv/share/psi4/basis/6-311ppgss.gbs 


         ---------------------------------------------------------
                                   SCF
               by Justin Turney, Rob Parrish, Andy Simmonett
                          and Daniel G. A. Smith
                              RHF Reference
                        1 Threads,    500 MiB Core
         ---------------------------------------------------------

  ==> Geometry <==

    Molecular point group: cs
    Full point group: Cs

    Geometry (in Angstrom), charge = 0, multiplicity = 1:

       Center              X                  Y                   Z               Mass       
    ------------   -----------------  -----------------  -----------------  -----------------
         C            0.321531939855     0.813261460475     0.000000000000    12.000000000000
         C           -0.865048060145    -0.128168539525     0.000000000000    12.000000000000
         C            0.543531939855    -0.685078539525     0.000000000000    12.000000000000
         H            0.537951939855     1.360691460475    -0.920390000000     1.007825032230
         H            0.537951939855     1.360691460475     0.920390000000     1.007825032230
         H           -1.447418060145    -0.214488539525     0.920340000000     1.007825032230
         H           -1.447418060145    -0.214488539525    -0.920340000000     1.007825032230
         H            0.909371939855    -1.146288539525    -0.920370000000     1.007825032230
         H            0.909371939855    -1.146288539525     0.920370000000     1.007825032230

  Running in cs symmetry.

  Rotational constants: A =      0.66472  B =      0.66470  C =      0.41647 [cm^-1]
  Rotational constants: A =  19927.70596  B =  19927.20236  C =  12485.44714 [MHz]
  Nuclear repulsion =   75.281464809014025

  Charge       = 0
  Multiplicity = 1
  Electrons    = 24
  Nalpha       = 12
  Nbeta        = 12

  ==> Algorithm <==

  SCF Algorithm Type is DF.
  DIIS enabled.
  MOM disabled.
  Fractional occupation disabled.
  Guess Type is SAD.
  Energy threshold   = 1.00e-08
  Density threshold  = 1.00e-08
  Integral threshold = 0.00e+00

  ==> Primary Basis <==

  Basis Set: 6-311++G**
    Blend: 6-311++G**
    Number of shells: 60
    Number of basis function: 108
    Number of Cartesian functions: 111
    Spherical Harmonics?: true
    Max angular momentum: 2

   => Loading Basis Set <=

    Name: (6-311++G** AUX)
    Role: JKFIT
    Keyword: DF_BASIS_SCF
    atoms 1-3 entry C          line   162 file /home/akrom/software/anaconda3/envs/ffpenv/share/psi4/basis/aug-cc-pvtz-jkfit.gbs 
    atoms 4-9 entry H          line    70 file /home/akrom/software/anaconda3/envs/ffpenv/share/psi4/basis/aug-cc-pvtz-jkfit.gbs 

  ==> Pre-Iterations <==

   -------------------------------------------------------
    Irrep   Nso     Nmo     Nalpha   Nbeta   Ndocc  Nsocc
   -------------------------------------------------------
     A'        69      69       0       0       0       0
     A"        39      39       0       0       0       0
   -------------------------------------------------------
    Total     108     108      12      12      12       0
   -------------------------------------------------------

  ==> Integral Setup <==

  DFHelper Memory: AOs need 0.056 GiB; user supplied 0.366 GiB. Using in-core AOs.

  ==> MemDFJK: Density-Fitted J/K Matrices <==

    J tasked:                   Yes
    K tasked:                   Yes
    wK tasked:                   No
    OpenMP threads:               1
    Memory [MiB]:               375
    Algorithm:                 Core
    Schwarz Cutoff:           1E-12
    Mask sparsity (%):       0.0000
    Fitting Condition:        1E-10

   => Auxiliary Basis Set <=

  Basis Set: (6-311++G** AUX)
    Blend: AUG-CC-PVTZ-JKFIT
    Number of shells: 174
    Number of basis function: 588
    Number of Cartesian functions: 723
    Spherical Harmonics?: true
    Max angular momentum: 4

  Minimum eigenvalue in the overlap matrix is 8.8978795942E-05.
  Using Symmetric Orthogonalization.

  SCF Guess: Superposition of Atomic Densities via on-the-fly atomic UHF.

  ==> Iterations <==

                           Total Energy        Delta E     RMS |[F,P]|

   @DF-RHF iter SAD:  -116.63454660197473   -1.16635e+02   0.00000e+00 
   @DF-RHF iter   1:  -116.96160315442786   -3.27057e-01   5.80778e-03 DIIS
   @DF-RHF iter   2:  -117.05929001460882   -9.76869e-02   2.91116e-03 DIIS
   @DF-RHF iter   3:  -117.08634137897008   -2.70514e-02   4.27215e-04 DIIS
   @DF-RHF iter   4:  -117.08746985173461   -1.12847e-03   5.52779e-05 DIIS
   @DF-RHF iter   5:  -117.08749774267588   -2.78909e-05   1.26424e-05 DIIS
   @DF-RHF iter   6:  -117.08749932163572   -1.57896e-06   2.15253e-06 DIIS
   @DF-RHF iter   7:  -117.08749937405990   -5.24242e-08   3.33679e-07 DIIS
   @DF-RHF iter   8:  -117.08749937514750   -1.08760e-09   4.06487e-08 DIIS
   @DF-RHF iter   9:  -117.08749937516173   -1.42251e-11   7.04604e-09 DIIS
  Energy and wave function converged.


  ==> Post-Iterations <==

    Orbital Energies [Eh]
    ---------------------

    Doubly Occupied:                                                      

       1Ap   -11.228413     2Ap   -11.227441     3Ap   -11.227436  
       4Ap    -1.126351     5Ap    -0.814600     6Ap    -0.814595  
       1App   -0.663761     7Ap    -0.622863     2App   -0.510819  
       3App   -0.510804     8Ap    -0.417301     9Ap    -0.417293  

    Virtual:                                                              

      10Ap     0.049593     4App    0.060308    11Ap     0.060801  
      12Ap     0.060801     5App    0.091528     6App    0.091532  
      13Ap     0.136011    14Ap     0.136215    15Ap     0.136217  
      16Ap     0.174044    17Ap     0.180134    18Ap     0.180139  
       7App    0.207757     8App    0.211888     9App    0.211895  
      19Ap     0.222900    20Ap     0.224117    21Ap     0.224118  
      10App    0.284569    22Ap     0.294498    23Ap     0.336997  
      11App    0.363436    12App    0.363450    24Ap     0.381203  
      25Ap     0.381210    26Ap     0.471906    27Ap     0.471912  
      28Ap     0.545838    13App    0.588260    29Ap     0.653142  
      30Ap     0.653158    14App    0.715518    15App    0.715567  
      31Ap     0.752603    16App    0.850186    32Ap     0.861151  
      33Ap     0.864312    34Ap     0.864321    17App    0.880669  
      18App    0.880678    35Ap     0.910073    36Ap     0.910082  
      37Ap     0.967115    38Ap     1.119486    39Ap     1.119487  
      19App    1.432653    40Ap     1.472056    20App    1.479469  
      21App    1.479481    22App    1.624424    41Ap     1.718213  
      42Ap     1.718241    23App    1.777034    24App    1.777092  
      43Ap     1.859431    25App    1.897889    44Ap     1.925603  
      45Ap     1.925642    26App    2.031974    27App    2.032005  
      46Ap     2.032713    47Ap     2.114381    48Ap     2.114386  
      49Ap     2.329867    50Ap     2.329874    28App    2.350640  
      29App    2.350651    51Ap     2.412222    52Ap     2.536865  
      53Ap     2.536928    54Ap     2.602913    30App    2.684990  
      55Ap     2.719278    31App    2.778700    32App    2.861207  
      33App    2.861237    56Ap     2.993672    57Ap     2.993731  
      34App    3.036389    58Ap     3.072805    59Ap     3.077307  
      60Ap     3.077325    35App    3.324147    36App    3.324189  
      61Ap     3.325441    62Ap     3.325451    63Ap     3.785888  
      37App    3.927241    64Ap     3.930649    38App    4.260748  
      39App    4.260775    65Ap     4.819147    66Ap     4.819178  
      67Ap    25.046011    68Ap    25.046038    69Ap    25.060669  

    Final Occupation by Irrep:
             Ap   App 
    DOCC [     9,    3 ]

  @DF-RHF Final Energy:  -117.08749937516173

   => Energetics <=

    Nuclear Repulsion Energy =             75.2814648090140253
    One-Electron Energy =                -305.5745740239669885
    Two-Electron Energy =                 113.2056098397912223
    Total Energy =                       -117.0874993751617268

Computation Completed


Properties will be evaluated at   0.000000,   0.000000,   0.000000 [a0]

Properties computed using the SCF density matrix

  Nuclear Dipole Moment: [e a0]
     X:    -0.0002      Y:    -0.0002      Z:     0.0000

  Electronic Dipole Moment: [e a0]
     X:     0.0001      Y:     0.0001      Z:     0.0000

  Dipole Moment: [e a0]
     X:    -0.0000      Y:    -0.0000      Z:     0.0000     Total:     0.0000

  Dipole Moment: [D]
     X:    -0.0001      Y:    -0.0001      Z:     0.0000     Total:     0.0001


*** tstop() called on atlantis at Tue Apr 19 15:58:29 2022
Module time:
	user time   =       1.02 seconds =       0.02 minutes
	system time =       0.02 seconds =       0.00 minutes
	total time  =          1 seconds =       0.02 minutes
Total time:
	user time   =       2.03 seconds =       0.03 minutes
	system time =       0.05 seconds =       0.00 minutes
	total time  =          2 seconds =       0.03 minutes

*** tstart() called on atlantis
*** at Tue Apr 19 15:58:29 2022


         ------------------------------------------------------------
                                   SCF GRAD                          
                          Rob Parrish, Justin Turney,                
                       Andy Simmonett, and Alex Sokolov              
         ------------------------------------------------------------

  ==> Geometry <==

    Molecular point group: cs
    Full point group: Cs

    Geometry (in Angstrom), charge = 0, multiplicity = 1:

       Center              X                  Y                   Z               Mass       
    ------------   -----------------  -----------------  -----------------  -----------------
         C            0.321531939855     0.813261460475     0.000000000000    12.000000000000
         C           -0.865048060145    -0.128168539525     0.000000000000    12.000000000000
         C            0.543531939855    -0.685078539525     0.000000000000    12.000000000000
         H            0.537951939855     1.360691460475    -0.920390000000     1.007825032230
         H            0.537951939855     1.360691460475     0.920390000000     1.007825032230
         H           -1.447418060145    -0.214488539525     0.920340000000     1.007825032230
         H           -1.447418060145    -0.214488539525    -0.920340000000     1.007825032230
         H            0.909371939855    -1.146288539525    -0.920370000000     1.007825032230
         H            0.909371939855    -1.146288539525     0.920370000000     1.007825032230

  Nuclear repulsion =   75.281464809014025

  ==> Basis Set <==

  Basis Set: 6-311++G**
    Blend: 6-311++G**
    Number of shells: 60
    Number of basis function: 108
    Number of Cartesian functions: 111
    Spherical Harmonics?: true
    Max angular momentum: 2

  ==> DFJKGrad: Density-Fitted SCF Gradients <==

    Gradient:                    1
    J tasked:                  Yes
    K tasked:                  Yes
    wK tasked:                  No
    OpenMP threads:              1
    Integrals threads:           1
    Memory [MiB]:              375
    Schwarz Cutoff:          0E+00
    Fitting Condition:       1E-10

   => Auxiliary Basis Set <=

  Basis Set: (6-311++G** AUX)
    Blend: AUG-CC-PVTZ-JKFIT
    Number of shells: 174
    Number of basis function: 588
    Number of Cartesian functions: 723
    Spherical Harmonics?: true
    Max angular momentum: 4


  -Total Gradient:
     Atom            X                  Y                   Z
    ------   -----------------  -----------------  -----------------
       1        0.000857075071     0.002168846353     0.000000000000
       2       -0.002279168017    -0.000333643589     0.000000000000
       3        0.001447952530    -0.001813029340     0.000000000000
       4        0.002171893582     0.005497255110    -0.010522357708
       5        0.002171893582     0.005497255110     0.010522357708
       6       -0.005856854497    -0.000870886146     0.010511687068
       7       -0.005856854497    -0.000870886146    -0.010511687068
       8        0.003672031123    -0.004637455676    -0.010518211991
       9        0.003672031123    -0.004637455676     0.010518211991


*** tstop() called on atlantis at Tue Apr 19 15:58:30 2022
Module time:
	user time   =       1.39 seconds =       0.02 minutes
	system time =       0.03 seconds =       0.00 minutes
	total time  =          1 seconds =       0.02 minutes
Total time:
	user time   =       3.42 seconds =       0.06 minutes
	system time =       0.08 seconds =       0.00 minutes
	total time  =          3 seconds =       0.05 minutes

  Based on options and gradient (rms=5.74E-03), recommend projecting translations and projecting rotations.
hessian() will perform analytic frequency computation.

*** tstart() called on atlantis
*** at Tue Apr 19 15:58:30 2022

   => Loading Basis Set <=

    Name: 6-311++G**
    Role: ORBITAL
    Keyword: BASIS
    atoms 1-3 entry C          line   119 file /home/akrom/software/anaconda3/envs/ffpenv/share/psi4/basis/6-311ppgss.gbs 
    atoms 4-9 entry H          line    42 file /home/akrom/software/anaconda3/envs/ffpenv/share/psi4/basis/6-311ppgss.gbs 


         ---------------------------------------------------------
                                   SCF
               by Justin Turney, Rob Parrish, Andy Simmonett
                          and Daniel G. A. Smith
                              RHF Reference
                        1 Threads,    500 MiB Core
         ---------------------------------------------------------

  ==> Geometry <==

    Molecular point group: cs
    Full point group: Cs

    Geometry (in Angstrom), charge = 0, multiplicity = 1:

       Center              X                  Y                   Z               Mass       
    ------------   -----------------  -----------------  -----------------  -----------------
         C            0.321531939855     0.813261460475     0.000000000000    12.000000000000
         C           -0.865048060145    -0.128168539525     0.000000000000    12.000000000000
         C            0.543531939855    -0.685078539525     0.000000000000    12.000000000000
         H            0.537951939855     1.360691460475    -0.920390000000     1.007825032230
         H            0.537951939855     1.360691460475     0.920390000000     1.007825032230
         H           -1.447418060145    -0.214488539525     0.920340000000     1.007825032230
         H           -1.447418060145    -0.214488539525    -0.920340000000     1.007825032230
         H            0.909371939855    -1.146288539525    -0.920370000000     1.007825032230
         H            0.909371939855    -1.146288539525     0.920370000000     1.007825032230

  Running in cs symmetry.

  Rotational constants: A =      0.66472  B =      0.66470  C =      0.41647 [cm^-1]
  Rotational constants: A =  19927.70596  B =  19927.20236  C =  12485.44714 [MHz]
  Nuclear repulsion =   75.281464809014025

  Charge       = 0
  Multiplicity = 1
  Electrons    = 24
  Nalpha       = 12
  Nbeta        = 12

  ==> Algorithm <==

  SCF Algorithm Type is DF.
  DIIS enabled.
  MOM disabled.
  Fractional occupation disabled.
  Guess Type is SAD.
  Energy threshold   = 1.00e-08
  Density threshold  = 1.00e-08
  Integral threshold = 0.00e+00

  ==> Primary Basis <==

  Basis Set: 6-311++G**
    Blend: 6-311++G**
    Number of shells: 60
    Number of basis function: 108
    Number of Cartesian functions: 111
    Spherical Harmonics?: true
    Max angular momentum: 2

   => Loading Basis Set <=

    Name: (6-311++G** AUX)
    Role: JKFIT
    Keyword: DF_BASIS_SCF
    atoms 1-3 entry C          line   162 file /home/akrom/software/anaconda3/envs/ffpenv/share/psi4/basis/aug-cc-pvtz-jkfit.gbs 
    atoms 4-9 entry H          line    70 file /home/akrom/software/anaconda3/envs/ffpenv/share/psi4/basis/aug-cc-pvtz-jkfit.gbs 

  ==> Pre-Iterations <==

   -------------------------------------------------------
    Irrep   Nso     Nmo     Nalpha   Nbeta   Ndocc  Nsocc
   -------------------------------------------------------
     A'        69      69       0       0       0       0
     A"        39      39       0       0       0       0
   -------------------------------------------------------
    Total     108     108      12      12      12       0
   -------------------------------------------------------

  ==> Integral Setup <==

  DFHelper Memory: AOs need 0.056 GiB; user supplied 0.366 GiB. Using in-core AOs.

  ==> MemDFJK: Density-Fitted J/K Matrices <==

    J tasked:                   Yes
    K tasked:                   Yes
    wK tasked:                   No
    OpenMP threads:               1
    Memory [MiB]:               375
    Algorithm:                 Core
    Schwarz Cutoff:           1E-12
    Mask sparsity (%):       0.0000
    Fitting Condition:        1E-10

   => Auxiliary Basis Set <=

  Basis Set: (6-311++G** AUX)
    Blend: AUG-CC-PVTZ-JKFIT
    Number of shells: 174
    Number of basis function: 588
    Number of Cartesian functions: 723
    Spherical Harmonics?: true
    Max angular momentum: 4

  Minimum eigenvalue in the overlap matrix is 8.8978795942E-05.
  Using Symmetric Orthogonalization.

  SCF Guess: Superposition of Atomic Densities via on-the-fly atomic UHF.

  ==> Iterations <==

                           Total Energy        Delta E     RMS |[F,P]|

   @DF-RHF iter SAD:  -116.63454660197431   -1.16635e+02   0.00000e+00 
   @DF-RHF iter   1:  -116.96160315442694   -3.27057e-01   5.80778e-03 DIIS
   @DF-RHF iter   2:  -117.05929001460771   -9.76869e-02   2.91116e-03 DIIS
   @DF-RHF iter   3:  -117.08634137896905   -2.70514e-02   4.27215e-04 DIIS
   @DF-RHF iter   4:  -117.08746985173372   -1.12847e-03   5.52779e-05 DIIS
   @DF-RHF iter   5:  -117.08749774267500   -2.78909e-05   1.26424e-05 DIIS
   @DF-RHF iter   6:  -117.08749932163491   -1.57896e-06   2.15253e-06 DIIS
   @DF-RHF iter   7:  -117.08749937405901   -5.24241e-08   3.33679e-07 DIIS
   @DF-RHF iter   8:  -117.08749937514671   -1.08770e-09   4.06487e-08 DIIS
   @DF-RHF iter   9:  -117.08749937516060   -1.38982e-11   7.04604e-09 DIIS
  Energy and wave function converged.


  ==> Post-Iterations <==

    Orbital Energies [Eh]
    ---------------------

    Doubly Occupied:                                                      

       1Ap   -11.228413     2Ap   -11.227441     3Ap   -11.227436  
       4Ap    -1.126351     5Ap    -0.814600     6Ap    -0.814595  
       1App   -0.663761     7Ap    -0.622863     2App   -0.510819  
       3App   -0.510804     8Ap    -0.417301     9Ap    -0.417293  

    Virtual:                                                              

      10Ap     0.049593     4App    0.060308    11Ap     0.060801  
      12Ap     0.060801     5App    0.091528     6App    0.091532  
      13Ap     0.136011    14Ap     0.136215    15Ap     0.136217  
      16Ap     0.174044    17Ap     0.180134    18Ap     0.180139  
       7App    0.207757     8App    0.211888     9App    0.211895  
      19Ap     0.222900    20Ap     0.224117    21Ap     0.224118  
      10App    0.284569    22Ap     0.294498    23Ap     0.336997  
      11App    0.363436    12App    0.363450    24Ap     0.381203  
      25Ap     0.381210    26Ap     0.471906    27Ap     0.471912  
      28Ap     0.545838    13App    0.588260    29Ap     0.653142  
      30Ap     0.653158    14App    0.715518    15App    0.715567  
      31Ap     0.752603    16App    0.850186    32Ap     0.861151  
      33Ap     0.864312    34Ap     0.864321    17App    0.880669  
      18App    0.880678    35Ap     0.910073    36Ap     0.910082  
      37Ap     0.967115    38Ap     1.119486    39Ap     1.119487  
      19App    1.432653    40Ap     1.472056    20App    1.479469  
      21App    1.479481    22App    1.624424    41Ap     1.718213  
      42Ap     1.718241    23App    1.777034    24App    1.777092  
      43Ap     1.859431    25App    1.897889    44Ap     1.925603  
      45Ap     1.925642    26App    2.031974    27App    2.032005  
      46Ap     2.032713    47Ap     2.114381    48Ap     2.114386  
      49Ap     2.329867    50Ap     2.329874    28App    2.350640  
      29App    2.350651    51Ap     2.412222    52Ap     2.536865  
      53Ap     2.536928    54Ap     2.602913    30App    2.684990  
      55Ap     2.719278    31App    2.778700    32App    2.861207  
      33App    2.861237    56Ap     2.993672    57Ap     2.993731  
      34App    3.036389    58Ap     3.072805    59Ap     3.077307  
      60Ap     3.077325    35App    3.324147    36App    3.324189  
      61Ap     3.325441    62Ap     3.325451    63Ap     3.785888  
      37App    3.927241    64Ap     3.930649    38App    4.260748  
      39App    4.260775    65Ap     4.819147    66Ap     4.819178  
      67Ap    25.046011    68Ap    25.046038    69Ap    25.060669  

    Final Occupation by Irrep:
             Ap   App 
    DOCC [     9,    3 ]

  @DF-RHF Final Energy:  -117.08749937516060

   => Energetics <=

    Nuclear Repulsion Energy =             75.2814648090140253
    One-Electron Energy =                -305.5745740239662496
    Two-Electron Energy =                 113.2056098397916060
    Total Energy =                       -117.0874993751606041

Computation Completed


Properties will be evaluated at   0.000000,   0.000000,   0.000000 [a0]

Properties computed using the SCF density matrix

  Nuclear Dipole Moment: [e a0]
     X:    -0.0002      Y:    -0.0002      Z:     0.0000

  Electronic Dipole Moment: [e a0]
     X:     0.0001      Y:     0.0001      Z:     0.0000

  Dipole Moment: [e a0]
     X:    -0.0000      Y:    -0.0000      Z:     0.0000     Total:     0.0000

  Dipole Moment: [D]
     X:    -0.0001      Y:    -0.0001      Z:     0.0000     Total:     0.0001


*** tstop() called on atlantis at Tue Apr 19 15:58:31 2022
Module time:
	user time   =       1.03 seconds =       0.02 minutes
	system time =       0.01 seconds =       0.00 minutes
	total time  =          1 seconds =       0.02 minutes
Total time:
	user time   =       4.45 seconds =       0.07 minutes
	system time =       0.09 seconds =       0.00 minutes
	total time  =          4 seconds =       0.07 minutes

*** tstart() called on atlantis
*** at Tue Apr 19 15:58:31 2022


         ------------------------------------------------------------
                                   SCF HESS                          
                          Rob Parrish, Justin Turney,                
                       Andy Simmonett, and Alex Sokolov              
         ------------------------------------------------------------

  ==> Geometry <==

    Molecular point group: cs
    Full point group: Cs

    Geometry (in Angstrom), charge = 0, multiplicity = 1:

       Center              X                  Y                   Z               Mass       
    ------------   -----------------  -----------------  -----------------  -----------------
         C            0.321531939855     0.813261460475     0.000000000000    12.000000000000
         C           -0.865048060145    -0.128168539525     0.000000000000    12.000000000000
         C            0.543531939855    -0.685078539525     0.000000000000    12.000000000000
         H            0.537951939855     1.360691460475    -0.920390000000     1.007825032230
         H            0.537951939855     1.360691460475     0.920390000000     1.007825032230
         H           -1.447418060145    -0.214488539525     0.920340000000     1.007825032230
         H           -1.447418060145    -0.214488539525    -0.920340000000     1.007825032230
         H            0.909371939855    -1.146288539525    -0.920370000000     1.007825032230
         H            0.909371939855    -1.146288539525     0.920370000000     1.007825032230

  Nuclear repulsion =   75.281464809014025

  ==> Basis Set <==

  Basis Set: 6-311++G**
    Blend: 6-311++G**
    Number of shells: 60
    Number of basis function: 108
    Number of Cartesian functions: 111
    Spherical Harmonics?: true
    Max angular momentum: 2

  ==> DFJKGrad: Density-Fitted SCF Gradients <==

    Gradient:                    2
    J tasked:                  Yes
    K tasked:                  Yes
    wK tasked:                  No
    OpenMP threads:              1
    Integrals threads:           1
    Memory [MiB]:              375
    Schwarz Cutoff:          0E+00
    Fitting Condition:       1E-10

   => Auxiliary Basis Set <=

  Basis Set: (6-311++G** AUX)
    Blend: AUG-CC-PVTZ-JKFIT
    Number of shells: 174
    Number of basis function: 588
    Number of Cartesian functions: 723
    Spherical Harmonics?: true
    Max angular momentum: 4

  DFHelper Memory: AOs need 0.056 GiB; user supplied 0.439 GiB. Using in-core AOs.

  ==> MemDFJK: Density-Fitted J/K Matrices <==

    J tasked:                   Yes
    K tasked:                   Yes
    wK tasked:                   No
    OpenMP threads:               1
    Memory [MiB]:               450
    Algorithm:                 Core
    Schwarz Cutoff:           1E-12
    Mask sparsity (%):       0.0000
    Fitting Condition:        1E-10

   => Auxiliary Basis Set <=

  Basis Set: (6-311++G** AUX)
    Blend: AUG-CC-PVTZ-JKFIT
    Number of shells: 174
    Number of basis function: 588
    Number of Cartesian functions: 723
    Spherical Harmonics?: true
    Max angular momentum: 4


         ------------------------------------------------------------
                                     CPHF                           
                                  Rob Parrish                       
         ------------------------------------------------------------

  ==> Geometry <==

    Molecular point group: cs
    Full point group: Cs

    Geometry (in Angstrom), charge = 0, multiplicity = 1:

       Center              X                  Y                   Z               Mass       
    ------------   -----------------  -----------------  -----------------  -----------------
         C            0.321531939855     0.813261460475     0.000000000000    12.000000000000
         C           -0.865048060145    -0.128168539525     0.000000000000    12.000000000000
         C            0.543531939855    -0.685078539525     0.000000000000    12.000000000000
         H            0.537951939855     1.360691460475    -0.920390000000     1.007825032230
         H            0.537951939855     1.360691460475     0.920390000000     1.007825032230
         H           -1.447418060145    -0.214488539525     0.920340000000     1.007825032230
         H           -1.447418060145    -0.214488539525    -0.920340000000     1.007825032230
         H            0.909371939855    -1.146288539525    -0.920370000000     1.007825032230
         H            0.909371939855    -1.146288539525     0.920370000000     1.007825032230

  Nuclear repulsion =   75.281464809014025
  Reference energy  = -117.087499375160604

  ==> Basis Set <==

  Basis Set: 6-311++G**
    Blend: 6-311++G**
    Number of shells: 60
    Number of basis function: 108
    Number of Cartesian functions: 111
    Spherical Harmonics?: true
    Max angular momentum: 2

  ==> CGRSolver (by Rob Parrish) <==

   Number of roots    =        27
   Preconditioning    =    JACOBI
   Convergence cutoff =     1E-06
   Maximum iterations =       100

  ==> CPHFRHamiltonian (by Rob Parrish) <== 

  ==> MemDFJK: Density-Fitted J/K Matrices <==

    J tasked:                   Yes
    K tasked:                   Yes
    wK tasked:                   No
    OpenMP threads:               1
    Memory [MiB]:               450
    Algorithm:                 Core
    Schwarz Cutoff:           1E-12
    Mask sparsity (%):       0.0000
    Fitting Condition:        1E-10

   => Auxiliary Basis Set <=

  Basis Set: (6-311++G** AUX)
    Blend: AUG-CC-PVTZ-JKFIT
    Number of shells: 174
    Number of basis function: 588
    Number of Cartesian functions: 723
    Spherical Harmonics?: true
    Max angular momentum: 4

  ==> CPHF Iterations <==

  => Iterations <=

             Iter  Converged  Remaining    Residual
  CGR           1          0         27   9.647E-02
  CGR           2          0         27   2.037E-02
  CGR           3          0         27   4.101E-03
  CGR           4          0         27   1.187E-03
  CGR           5          0         27   2.774E-04
  CGR           6          0         27   9.274E-05
  CGR           7          0         27   2.442E-05
  CGR           8          3         24   6.095E-06
  CGR           9         19          8   1.293E-06
  CGR          10         27          0   2.310E-07

    CGRSolver converged.


*** tstop() called on atlantis at Tue Apr 19 20:01:46 2022
Module time:
	user time   =   14587.09 seconds =     243.12 minutes
	system time =       0.82 seconds =       0.01 minutes
	total time  =      14595 seconds =     243.25 minutes
Total time:
	user time   =   14591.54 seconds =     243.19 minutes
	system time =       0.91 seconds =       0.02 minutes
	total time  =      14599 seconds =     243.32 minutes


  ==> Harmonic Vibrational Analysis <==

  non-mass-weighted Hessian:       Symmetric? True   Hermitian? True   Lin Dep Dim?  0 (0)
  projection of translations (True) and rotations (True) removed 6 degrees of freedom (6)
  total projector:                 Symmetric? True   Hermitian? True   Lin Dep Dim?  6 (6)
  mass-weighted Hessian:           Symmetric? True   Hermitian? True   Lin Dep Dim?  0 (0)
  pre-proj  low-frequency mode:    0.0000i [cm^-1]
  pre-proj  low-frequency mode:    0.0401  [cm^-1]
  pre-proj  low-frequency mode:    0.1284  [cm^-1]
  pre-proj  low-frequency mode:  140.1447  [cm^-1]
  pre-proj  low-frequency mode:  214.3482  [cm^-1]
  pre-proj  low-frequency mode:  214.3605  [cm^-1]
  pre-proj  all modes:['0.1103i' '0.0401' '0.1284' '140.1447' '214.3482' '214.3605' '873.6875'
 '873.6915' '907.6250' '907.6589' '978.4228' '1207.1880' '1207.1976'
 '1240.7846' '1243.9630' '1281.2773' '1332.6712' '1332.6740' '1602.2547'
 '1602.2720' '1656.9535' '3110.7474' '3110.7661' '3124.6638' '3184.6388'
 '3184.6537' '3208.6362']
  projected mass-weighted Hessian: Symmetric? True   Hermitian? True   Lin Dep Dim?  6 (6)
  post-proj low-frequency mode:    0.0000i [cm^-1] (TR)
  post-proj low-frequency mode:    0.0000i [cm^-1] (TR)
  post-proj low-frequency mode:    0.0000i [cm^-1] (TR)
  post-proj low-frequency mode:    0.0000  [cm^-1] (TR)
  post-proj low-frequency mode:    0.0000  [cm^-1] (TR)
  post-proj low-frequency mode:    0.0000  [cm^-1] (TR)
  post-proj  all modes:['0.0000i' '0.0000i' '0.0000i' '0.0000' '0.0000' '0.0000' '873.6846'
 '873.6885' '907.6250' '907.6589' '978.4228' '1207.1880' '1207.1976'
 '1240.6225' '1243.9630' '1281.2773' '1331.8966' '1331.8994' '1602.2547'
 '1602.2720' '1656.9535' '3110.7474' '3110.7661' '3124.6638' '3184.6387'
 '3184.6535' '3208.6362']

  Vibration                       7                   8                   9           
  Freq [cm^-1]                 873.6846            873.6885            907.6250       
  Irrep                          App                 App                  Ap          
  Reduced mass [u]              1.0220              1.0220              3.9390        
  Force const [mDyne/A]         0.4596              0.4596              1.9118        
  Turning point v=0 [a0]        0.3672              0.3672              0.1835        
  RMS dev v=0 [a0 u^1/2]        0.2625              0.2625              0.2575        
  IR activ [km/mol]             0.0000              0.0000             27.7290        
  Char temp [K]               1257.0376           1257.0432           1305.8704       
  ----------------------------------------------------------------------------------
      1   C                0.00  0.00 -0.03   -0.00  0.00  0.00   -0.21  0.20 -0.00   
      2   C               -0.00 -0.00  0.01    0.00 -0.00 -0.03    0.29  0.09 -0.00   
      3   C               -0.00  0.00  0.02   -0.00 -0.00  0.02   -0.05 -0.29 -0.00   
      4   H                0.18  0.27  0.18    0.39 -0.21 -0.03   -0.33  0.23 -0.01   
      5   H               -0.18 -0.27  0.18   -0.39  0.21 -0.03   -0.33  0.23  0.01   
      6   H               -0.18  0.39 -0.07    0.27  0.21  0.17    0.25  0.11 -0.03   
      7   H                0.18 -0.39 -0.07   -0.27 -0.21  0.17    0.25  0.11  0.03   
      8   H               -0.40 -0.06 -0.11    0.06  0.37 -0.14   -0.14 -0.33 -0.02   
      9   H                0.40  0.06 -0.11   -0.06 -0.37 -0.14   -0.14 -0.33  0.02   

  Vibration                       10                  11                  12          
  Freq [cm^-1]                 907.6589            978.4228           1207.1880       
  Irrep                           Ap                 App                  Ap          
  Reduced mass [u]              3.9391              1.0440              1.2371        
  Force const [mDyne/A]         1.9120              0.5888              1.0622        
  Turning point v=0 [a0]        0.1835              0.3433              0.2839        
  RMS dev v=0 [a0 u^1/2]        0.2575              0.2480              0.2233        
  IR activ [km/mol]            27.7204              0.0246              5.8483        
  Char temp [K]               1305.9191           1407.7325           1736.8747       
  ----------------------------------------------------------------------------------
      1   C               -0.20 -0.23 -0.00    0.00 -0.00 -0.03   -0.06  0.04  0.00   
      2   C               -0.09  0.27  0.00   -0.00  0.00 -0.03    0.03 -0.04  0.00   
      3   C                0.29 -0.07  0.00    0.00  0.00 -0.03   -0.09 -0.07 -0.00   
      4   H               -0.23 -0.18  0.02    0.13  0.33  0.20    0.33 -0.13 -0.01   
      5   H               -0.23 -0.18 -0.02   -0.13 -0.33  0.20    0.33 -0.13  0.01   
      6   H               -0.11  0.40  0.00    0.35  0.05  0.20   -0.03  0.20 -0.01   
      7   H               -0.11  0.40 -0.00   -0.35 -0.05  0.20   -0.03  0.20  0.01   
      8   H                0.34  0.00 -0.02    0.22 -0.28  0.20    0.44  0.35 -0.00   
      9   H                0.34  0.00  0.02   -0.22  0.28  0.20    0.44  0.35  0.00   

  Vibration                       13                  14                  15          
  Freq [cm^-1]                1207.1976           1240.6225           1243.9630       
  Irrep                           Ap                  Ap                  Ap          
  Reduced mass [u]              1.2371              1.4254              2.9187        
  Force const [mDyne/A]         1.0623              1.2926              2.6611        
  Turning point v=0 [a0]        0.2839              0.2609              0.1821        
  RMS dev v=0 [a0 u^1/2]        0.2233              0.2203              0.2200        
  IR activ [km/mol]             5.8461              0.0000              0.0000        
  Char temp [K]               1736.8885           1784.9795           1789.7858       
  ----------------------------------------------------------------------------------
      1   C                0.09 -0.02 -0.00   -0.10  0.04 -0.00   -0.09 -0.22  0.00   
      2   C                0.01 -0.11 -0.00    0.02 -0.11  0.00    0.24  0.04 -0.00   
      3   C               -0.03  0.00  0.00    0.09  0.07 -0.00   -0.15  0.19 -0.00   
      4   H               -0.41  0.16 -0.01    0.37 -0.15  0.00   -0.13 -0.34 -0.05   
      5   H               -0.41  0.16  0.01    0.37 -0.15 -0.00   -0.13 -0.34  0.05   
      6   H               -0.08  0.53  0.01   -0.06  0.40 -0.00    0.36  0.05  0.05   
      7   H               -0.08  0.53 -0.01   -0.06  0.40  0.00    0.36  0.05 -0.05   
      8   H                0.07  0.05  0.01   -0.31 -0.25  0.00   -0.23  0.29 -0.05   
      9   H                0.07  0.05 -0.01   -0.31 -0.25 -0.00   -0.23  0.29  0.05   

  Vibration                       16                  17                  18          
  Freq [cm^-1]                1281.2773           1331.8966           1331.8994       
  Irrep                          App                 App                 App          
  Reduced mass [u]              1.0078              1.4470              1.4470        
  Force const [mDyne/A]         0.9748              1.5124              1.5124        
  Turning point v=0 [a0]        0.3054              0.2499              0.2499        
  RMS dev v=0 [a0 u^1/2]        0.2168              0.2126              0.2126        
  IR activ [km/mol]             0.0000              0.0000              0.0000        
  Char temp [K]               1843.4727           1916.3027           1916.3067       
  ----------------------------------------------------------------------------------
      1   C               -0.00 -0.00 -0.00    0.00  0.00  0.16   -0.00  0.00 -0.04   
      2   C                0.00 -0.00 -0.00   -0.00 -0.00 -0.11   -0.00 -0.00 -0.12   
      3   C               -0.00  0.00  0.00    0.00 -0.00 -0.05   -0.00 -0.00  0.16   
      4   H               -0.38  0.15  0.00   -0.23 -0.33 -0.08   -0.32  0.22  0.02   
      5   H                0.38 -0.15  0.00    0.23  0.33 -0.08    0.32 -0.22  0.02   
      6   H               -0.06  0.40  0.00    0.23  0.32  0.06    0.33 -0.22  0.06   
      7   H                0.06 -0.40  0.00   -0.23 -0.32  0.06   -0.33  0.22  0.06   
      8   H                0.32  0.25 -0.00   -0.22 -0.32  0.02   -0.33  0.23 -0.08   
      9   H               -0.32 -0.25 -0.00    0.22  0.32  0.02    0.33 -0.23 -0.08   

  Vibration                       19                  20                  21          
  Freq [cm^-1]                1602.2547           1602.2720           1656.9535       
  Irrep                           Ap                  Ap                  Ap          
  Reduced mass [u]              1.0929              1.0929              1.2723        
  Force const [mDyne/A]         1.6530              1.6531              2.0581        
  Turning point v=0 [a0]        0.2622              0.2622              0.2390        
  RMS dev v=0 [a0 u^1/2]        0.1938              0.1938              0.1906        
  IR activ [km/mol]             0.6491              0.6492              0.0000        
  Char temp [K]               2305.2877           2305.3126           2383.9872       
  ----------------------------------------------------------------------------------
      1   C               -0.02 -0.06  0.00   -0.02 -0.02  0.00   -0.03 -0.08  0.00   
      2   C               -0.01 -0.01 -0.00   -0.07 -0.01  0.00    0.09  0.01 -0.00   
      3   C                0.03 -0.05 -0.00   -0.04  0.03 -0.00   -0.06  0.07 -0.00   
      4   H                0.16  0.42  0.31    0.07  0.13  0.10    0.12  0.29  0.25   
      5   H                0.16  0.42 -0.31    0.07  0.13 -0.10    0.12  0.29 -0.25   
      6   H                0.09  0.03  0.07    0.46  0.06  0.32   -0.31 -0.05 -0.25   
      7   H                0.09  0.03 -0.07    0.46  0.06 -0.32   -0.31 -0.05  0.25   
      8   H               -0.21  0.28 -0.25    0.20 -0.24  0.22    0.20 -0.25  0.25   
      9   H               -0.21  0.28  0.25    0.20 -0.24 -0.22    0.20 -0.25 -0.25   

  Vibration                       22                  23                  24          
  Freq [cm^-1]                3110.7474           3110.7661           3124.6638       
  Irrep                           Ap                  Ap                  Ap          
  Reduced mass [u]              1.0503              1.0503              1.0647        
  Force const [mDyne/A]         5.9881              5.9882              6.1247        
  Turning point v=0 [a0]        0.1920              0.1920              0.1902        
  RMS dev v=0 [a0 u^1/2]        0.1391              0.1391              0.1388        
  IR activ [km/mol]            34.2734             34.2776              0.0000        
  Char temp [K]               4475.6729           4475.6999           4495.6955       
  ----------------------------------------------------------------------------------
      1   C                0.02  0.04  0.00    0.01  0.02  0.00    0.02  0.04 -0.00   
      2   C                0.01  0.00 -0.00    0.05  0.01 -0.00   -0.04 -0.01  0.00   
      3   C               -0.03  0.03 -0.00    0.02 -0.02  0.00    0.03 -0.03  0.00   
      4   H               -0.10 -0.26  0.46   -0.04 -0.10  0.19   -0.08 -0.20  0.35   
      5   H               -0.10 -0.26 -0.46   -0.04 -0.10 -0.19   -0.08 -0.20 -0.35   
      6   H               -0.04 -0.01  0.07   -0.29 -0.04  0.49    0.21  0.03 -0.35   
      7   H               -0.04 -0.01 -0.07   -0.29 -0.04 -0.49    0.21  0.03  0.35   
      8   H                0.15 -0.19 -0.39   -0.11  0.14  0.30   -0.13  0.16  0.35   
      9   H                0.15 -0.19  0.39   -0.11  0.14 -0.30   -0.13  0.16 -0.35   

  Vibration                       25                  26                  27          
  Freq [cm^-1]                3184.6387           3184.6535           3208.6362       
  Irrep                          App                 App                 App          
  Reduced mass [u]              1.1216              1.1216              1.1162        
  Force const [mDyne/A]         6.7022              6.7023              6.7708        
  Turning point v=0 [a0]        0.1836              0.1836              0.1833        
  RMS dev v=0 [a0 u^1/2]        0.1375              0.1375              0.1370        
  IR activ [km/mol]             0.0000              0.0000             54.9586        
  Char temp [K]               4581.9860           4582.0073           4616.5131       
  ----------------------------------------------------------------------------------
      1   C               -0.00 -0.00  0.02    0.00  0.00 -0.08   -0.00  0.00 -0.06   
      2   C               -0.00 -0.00 -0.08    0.00  0.00  0.03   -0.00 -0.00 -0.06   
      3   C               -0.00  0.00  0.06   -0.00  0.00  0.06    0.00 -0.00 -0.06   
      4   H                0.02  0.06 -0.10   -0.11 -0.28  0.47   -0.08 -0.20  0.34   
      5   H               -0.02 -0.06 -0.10    0.11  0.28  0.47    0.08  0.20  0.34   
      6   H               -0.29 -0.04  0.46    0.09  0.01 -0.15   -0.22 -0.03  0.34   
      7   H                0.29  0.04  0.46   -0.09 -0.01 -0.15    0.22  0.03  0.34   
      8   H                0.14 -0.18 -0.36    0.13 -0.16 -0.33   -0.14  0.17  0.34   
      9   H               -0.14  0.18 -0.36   -0.13  0.16 -0.33    0.14 -0.17  0.34   

  ==> Thermochemistry Components <==

  Entropy, S
    Electronic S            0.000 [cal/(mol K)]        0.000 [J/(mol K)]       0.00000000 [mEh/K] (multiplicity = 1)
    Translational S        37.135 [cal/(mol K)]      155.375 [J/(mol K)]       0.05917914 [mEh/K] (mol. weight = 42.0470 [u], P = 101325.00 [Pa])
    Rotational S           21.699 [cal/(mol K)]       90.789 [J/(mol K)]       0.03457982 [mEh/K] (symmetry no. = 1)
    Vibrational S           0.931 [cal/(mol K)]        3.897 [J/(mol K)]       0.00148412 [mEh/K]
  Total S                  59.766 [cal/(mol K)]      250.061 [J/(mol K)]       0.09524308 [mEh/K]
  Correction S              0.000 [cal/(mol K)]        0.000 [J/(mol K)]       0.00000000 [mEh/K]

  Constant volume heat capacity, Cv
    Electronic Cv           0.000 [cal/(mol K)]        0.000 [J/(mol K)]       0.00000000 [mEh/K]
    Translational Cv        2.981 [cal/(mol K)]       12.472 [J/(mol K)]       0.00475022 [mEh/K]
    Rotational Cv           2.981 [cal/(mol K)]       12.472 [J/(mol K)]       0.00475022 [mEh/K]
    Vibrational Cv          3.784 [cal/(mol K)]       15.834 [J/(mol K)]       0.00603085 [mEh/K]
  Total Cv                  9.746 [cal/(mol K)]       40.777 [J/(mol K)]       0.01553128 [mEh/K]
  Correction Cv             0.000 [cal/(mol K)]        0.000 [J/(mol K)]       0.00000000 [mEh/K]

  Constant pressure heat capacity, Cp
    Electronic Cp           0.000 [cal/(mol K)]        0.000 [J/(mol K)]       0.00000000 [mEh/K]
    Translational Cp        4.968 [cal/(mol K)]       20.786 [J/(mol K)]       0.00791703 [mEh/K]
    Rotational Cp           2.981 [cal/(mol K)]       12.472 [J/(mol K)]       0.00475022 [mEh/K]
    Vibrational Cp          3.784 [cal/(mol K)]       15.834 [J/(mol K)]       0.00603085 [mEh/K]
  Total Cp                 11.733 [cal/(mol K)]       49.092 [J/(mol K)]       0.01869809 [mEh/K]
  Correction Cp             0.000 [cal/(mol K)]        0.000 [J/(mol K)]       0.00000000 [mEh/K]

  ==> Thermochemistry Energy Analysis <==

  Raw electronic energy, E0
  Total E0, Electronic energy at well bottom at 0 [K]                 -117.08749938 [Eh]

  Zero-point energy, ZPE_vib = Sum_i nu_i / 2
    Electronic ZPE          0.000 [kcal/mol]        0.000 [kJ/mol]       0.00000000 [Eh]
    Translational ZPE       0.000 [kcal/mol]        0.000 [kJ/mol]       0.00000000 [Eh]
    Rotational ZPE          0.000 [kcal/mol]        0.000 [kJ/mol]       0.00000000 [Eh]
    Vibrational ZPE        53.138 [kcal/mol]      222.330 [kJ/mol]       0.08468111 [Eh]       18585.355 [cm^-1]
  Correction ZPE           53.138 [kcal/mol]      222.330 [kJ/mol]       0.08468111 [Eh]       18585.355 [cm^-1]
  Total ZPE, Electronic energy at 0 [K]                               -117.00281827 [Eh]

  Thermal Energy, E (includes ZPE)
    Electronic E            0.000 [kcal/mol]        0.000 [kJ/mol]       0.00000000 [Eh]
    Translational E         0.889 [kcal/mol]        3.718 [kJ/mol]       0.00141628 [Eh]
    Rotational E            0.889 [kcal/mol]        3.718 [kJ/mol]       0.00141628 [Eh]
    Vibrational E          53.368 [kcal/mol]      223.290 [kJ/mol]       0.08504684 [Eh]
  Correction E             55.145 [kcal/mol]      230.727 [kJ/mol]       0.08787939 [Eh]
  Total E, Electronic energy at  298.15 [K]                           -116.99961999 [Eh]

  Enthalpy, H_trans = E_trans + k_B * T
    Electronic H            0.000 [kcal/mol]        0.000 [kJ/mol]       0.00000000 [Eh]
    Translational H         1.481 [kcal/mol]        6.197 [kJ/mol]       0.00236046 [Eh]
    Rotational H            0.889 [kcal/mol]        3.718 [kJ/mol]       0.00141628 [Eh]
    Vibrational H          53.368 [kcal/mol]      223.290 [kJ/mol]       0.08504684 [Eh]
  Correction H             55.738 [kcal/mol]      233.206 [kJ/mol]       0.08882357 [Eh]
  Total H, Enthalpy at  298.15 [K]                                    -116.99867580 [Eh]

  Gibbs free energy, G = H - T * S
    Electronic G            0.000 [kcal/mol]        0.000 [kJ/mol]       0.00000000 [Eh]
    Translational G        -9.591 [kcal/mol]      -40.128 [kJ/mol]      -0.01528380 [Eh]
    Rotational G           -5.581 [kcal/mol]      -23.350 [kJ/mol]      -0.00889370 [Eh]
    Vibrational G          53.090 [kcal/mol]      222.129 [kJ/mol]       0.08460435 [Eh]
  Correction G             37.918 [kcal/mol]      158.651 [kJ/mol]       0.06042685 [Eh]
  Total G, Free enthalpy at  298.15 [K]                               -117.02707253 [Eh]

    Psi4 stopped on: Tuesday, 19 April 2022 08:01PM
    Psi4 wall time for execution: 4:03:19.52

*** Psi4 exiting successfully. Buy a developer a beer!
