
    -----------------------------------------------------------------------
          Psi4: An Open-Source Ab Initio Electronic Structure Package
                               Psi4 1.3.2 release

                         Git: Rev {HEAD} ecbda83 


    R. M. Parrish, L. A. Burns, D. G. A. Smith, A. C. Simmonett,
    A. E. DePrince III, E. G. Hohenstein, U. Bozkaya, A. Yu. Sokolov,
    R. Di Remigio, R. M. Richard, J. F. Gonthier, A. M. James,
    H. R. McAlexander, A. Kumar, M. Saitow, X. Wang, B. P. Pritchard,
    P. Verma, H. F. Schaefer III, K. Patkowski, R. A. King, E. F. Valeev,
    F. A. Evangelista, J. M. Turney, T. D. Crawford, and C. D. Sherrill,
    J. Chem. Theory Comput. 13(7) pp 3185--3197 (2017).
    (doi: 10.1021/acs.jctc.7b00174)


                         Additional Contributions by
    P. Kraus, H. Kruse, M. H. Lechner, M. C. Schieber, R. A. Shaw,
    A. Alenaizan, R. Galvelis, Z. L. Glick, S. Lehtola, and J. P. Misiewicz

    -----------------------------------------------------------------------


    Psi4 started on: Tuesday, 19 April 2022 03:33PM

    Process ID: 4845
    Host:       atlantis
    PSIDATADIR: /home/akrom/software/anaconda3/envs/ffpenv/share/psi4
    Memory:     500.0 MiB
    Threads:    1
    
  ==> Input File <==

--------------------------------------------------------------------------
set basis  6-31++G**
molecule {
0 1
   C        0.32153        0.81326        0.00000
   C       -0.86505       -0.12817        0.00000
   C        0.54353       -0.68508        0.00000
   H        0.53795        1.36069       -0.92039
   H        0.53795        1.36069        0.92039
   H       -1.44742       -0.21449        0.92034
   H       -1.44742       -0.21449       -0.92034
   H        0.90937       -1.14629       -0.92037
   H        0.90937       -1.14629        0.92037
}
energy('CCSD')
frequencies('CCSD')
--------------------------------------------------------------------------

*** tstart() called on atlantis
*** at Tue Apr 19 15:33:21 2022

   => Loading Basis Set <=

    Name: 6-31++G**
    Role: ORBITAL
    Keyword: BASIS
    atoms 1-3 entry C          line   115 file /home/akrom/software/anaconda3/envs/ffpenv/share/psi4/basis/6-31ppgss.gbs 
    atoms 4-9 entry H          line    46 file /home/akrom/software/anaconda3/envs/ffpenv/share/psi4/basis/6-31ppgss.gbs 


         ---------------------------------------------------------
                                   SCF
               by Justin Turney, Rob Parrish, Andy Simmonett
                          and Daniel G. A. Smith
                              RHF Reference
                        1 Threads,    500 MiB Core
         ---------------------------------------------------------

  ==> Geometry <==

    Molecular point group: cs
    Full point group: Cs

    Geometry (in Angstrom), charge = 0, multiplicity = 1:

       Center              X                  Y                   Z               Mass       
    ------------   -----------------  -----------------  -----------------  -----------------
         C            0.321531939855     0.813261460475     0.000000000000    12.000000000000
         C           -0.865048060145    -0.128168539525     0.000000000000    12.000000000000
         C            0.543531939855    -0.685078539525     0.000000000000    12.000000000000
         H            0.537951939855     1.360691460475    -0.920390000000     1.007825032230
         H            0.537951939855     1.360691460475     0.920390000000     1.007825032230
         H           -1.447418060145    -0.214488539525     0.920340000000     1.007825032230
         H           -1.447418060145    -0.214488539525    -0.920340000000     1.007825032230
         H            0.909371939855    -1.146288539525    -0.920370000000     1.007825032230
         H            0.909371939855    -1.146288539525     0.920370000000     1.007825032230

  Running in cs symmetry.

  Rotational constants: A =      0.66472  B =      0.66470  C =      0.41647 [cm^-1]
  Rotational constants: A =  19927.70596  B =  19927.20236  C =  12485.44714 [MHz]
  Nuclear repulsion =   75.281464809014025

  Charge       = 0
  Multiplicity = 1
  Electrons    = 24
  Nalpha       = 12
  Nbeta        = 12

  ==> Algorithm <==

  SCF Algorithm Type is PK.
  DIIS enabled.
  MOM disabled.
  Fractional occupation disabled.
  Guess Type is SAD.
  Energy threshold   = 1.00e-08
  Density threshold  = 1.00e-08
  Integral threshold = 0.00e+00

  ==> Primary Basis <==

  Basis Set: 6-31++G**
    Blend: 6-31++G**
    Number of shells: 48
    Number of basis function: 93
    Number of Cartesian functions: 93
    Spherical Harmonics?: false
    Max angular momentum: 2

  ==> Pre-Iterations <==

   -------------------------------------------------------
    Irrep   Nso     Nmo     Nalpha   Nbeta   Ndocc  Nsocc
   -------------------------------------------------------
     A'        60      60       0       0       0       0
     A"        33      33       0       0       0       0
   -------------------------------------------------------
    Total      93      93      12      12      12       0
   -------------------------------------------------------

  ==> Integral Setup <==

  Using in-core PK algorithm.
   Calculation information:
      Number of atoms:                   9
      Number of AO shells:              48
      Number of primitives:             87
      Number of atomic orbitals:        93
      Number of basis functions:        93

      Integral cutoff                 1.00e-12
      Number of threads:                 1

  Performing in-core PK
  Using 19110012 doubles for integral storage.
  We computed 691708 shell quartets total.
  Whereas there are 692076 unique shell quartets.

  ==> DiskJK: Disk-Based J/K Matrices <==

    J tasked:                  Yes
    K tasked:                  Yes
    wK tasked:                  No
    Memory [MiB]:              375
    Schwarz Cutoff:          1E-12

    OpenMP threads:              1

  Minimum eigenvalue in the overlap matrix is 1.8844418511E-04.
  Using Symmetric Orthogonalization.

  SCF Guess: Superposition of Atomic Densities via on-the-fly atomic UHF.

  ==> Iterations <==

                        Total Energy        Delta E     RMS |[F,P]|

   @RHF iter SAD:  -116.58948010927398   -1.16589e+02   0.00000e+00 
   @RHF iter   1:  -116.94345832842441   -3.53978e-01   6.66109e-03 DIIS
   @RHF iter   2:  -117.04250826169195   -9.90499e-02   3.30118e-03 DIIS
   @RHF iter   3:  -117.06869373601327   -2.61855e-02   4.60233e-04 DIIS
   @RHF iter   4:  -117.06969344074618   -9.99705e-04   5.60076e-05 DIIS
   @RHF iter   5:  -117.06971558991451   -2.21492e-05   1.30113e-05 DIIS
   @RHF iter   6:  -117.06971689809612   -1.30818e-06   2.14481e-06 DIIS
   @RHF iter   7:  -117.06971693552521   -3.74291e-08   2.69923e-07 DIIS
   @RHF iter   8:  -117.06971693605099   -5.25787e-10   3.58909e-08 DIIS
   @RHF iter   9:  -117.06971693605837   -7.37543e-12   6.46914e-09 DIIS
  Energy and wave function converged.


  ==> Post-Iterations <==

    Orbital Energies [Eh]
    ---------------------

    Doubly Occupied:                                                      

       1Ap   -11.230417     2Ap   -11.229465     3Ap   -11.229461  
       4Ap    -1.126730     5Ap    -0.814647     6Ap    -0.814641  
       1App   -0.663333     7Ap    -0.622394     2App   -0.510429  
       3App   -0.510414     8Ap    -0.416655     9Ap    -0.416648  

    Virtual:                                                              

      10Ap     0.049975     4App    0.060580    11Ap     0.062029  
      12Ap     0.062029     5App    0.092118     6App    0.092122  
      13Ap     0.139168    14Ap     0.142753    15Ap     0.142756  
      16Ap     0.175315    17Ap     0.183394    18Ap     0.183399  
       7App    0.222574     8App    0.235006     9App    0.235013  
      19Ap     0.240310    20Ap     0.242052    21Ap     0.242053  
      10App    0.333402    22Ap     0.351532    23Ap     0.369222  
      24Ap     0.445104    25Ap     0.445116    11App    0.451813  
      12App    0.451837    26Ap     0.521390    27Ap     0.521399  
      28Ap     0.794376    29Ap     0.882011    30Ap     0.882028  
      13App    0.947435    31Ap     1.015406    32Ap     1.018224  
      33Ap     1.018228    14App    1.035047    15App    1.035074  
      34Ap     1.146063    16App    1.157763    35Ap     1.248965  
      17App    1.304234    18App    1.304277    36Ap     1.326200  
      37Ap     1.326217    38Ap     1.524568    39Ap     1.524578  
      40Ap     1.829072    19App    1.890423    20App    1.896442  
      21App    1.896457    41Ap     2.082785    42Ap     2.082821  
      22App    2.194752    43Ap     2.392145    23App    2.393283  
      24App    2.393344    25App    2.529844    44Ap     2.557906  
      45Ap     2.557949    46Ap     2.599340    47Ap     2.599397  
      26App    2.697038    27App    2.697059    48Ap     2.711286  
      49Ap     2.862002    50Ap     2.862019    51Ap     3.006253  
      28App    3.025894    29App    3.025898    30App    3.154116  
      52Ap     3.193214    53Ap     3.272054    54Ap     3.272112  
      55Ap     3.565087    31App    3.689179    56Ap     3.769306  
      57Ap     3.769365    32App    3.941291    33App    3.941318  
      58Ap     4.712226    59Ap     4.982380    60Ap     4.982381  

    Final Occupation by Irrep:
             Ap   App 
    DOCC [     9,    3 ]

  @RHF Final Energy:  -117.06971693605837

   => Energetics <=

    Nuclear Repulsion Energy =             75.2814648090140253
    One-Electron Energy =                -305.5318930731181126
    Two-Electron Energy =                 113.1807113280457031
    Total Energy =                       -117.0697169360583700

Computation Completed


Properties will be evaluated at   0.000000,   0.000000,   0.000000 [a0]

Properties computed using the SCF density matrix

  Nuclear Dipole Moment: [e a0]
     X:    -0.0002      Y:    -0.0002      Z:     0.0000

  Electronic Dipole Moment: [e a0]
     X:     0.0001      Y:     0.0001      Z:     0.0000

  Dipole Moment: [e a0]
     X:    -0.0000      Y:    -0.0000      Z:     0.0000     Total:     0.0000

  Dipole Moment: [D]
     X:    -0.0001      Y:    -0.0001      Z:     0.0000     Total:     0.0001


*** tstop() called on atlantis at Tue Apr 19 15:33:22 2022
Module time:
	user time   =       1.23 seconds =       0.02 minutes
	system time =       0.04 seconds =       0.00 minutes
	total time  =          1 seconds =       0.02 minutes
Total time:
	user time   =       1.23 seconds =       0.02 minutes
	system time =       0.04 seconds =       0.00 minutes
	total time  =          1 seconds =       0.02 minutes
 MINTS: Wrapper to libmints.
   by Justin Turney

   Calculation information:
      Number of threads:                 1
      Number of atoms:                   9
      Number of AO shells:              48
      Number of SO shells:              36
      Number of primitives:             87
      Number of atomic orbitals:        93
      Number of basis functions:        93

      Number of irreps:                  2
      Integral cutoff                 0.00e+00
      Number of functions per irrep: [  60   33 ]

 OEINTS: Overlap, kinetic, potential, dipole, and quadrupole integrals
         stored in file 35.

      Computing two-electron integrals...done
      Computed 4803441 non-zero two-electron integrals.
        Stored in file 33.


*** tstart() called on atlantis
*** at Tue Apr 19 15:33:22 2022


	Wfn Parameters:
	--------------------
	Wavefunction         = CCSD
	Number of irreps     = 2
	Number of MOs        = 93
	Number of active MOs = 93
	AO-Basis             = NONE
	Semicanonical        = false
	Reference            = RHF
	Print Level          = 1

	IRREP	# MOs	# FZDC	# DOCC	# SOCC	# VIRT	# FZVR
	-----	-----	------	------	------	------	------
	 Ap	   60	    0	    9	    0	    51	    0
	 App	   33	    0	    3	    0	    30	    0
	Transforming integrals...
	IWL integrals will be deleted.
	(OO|OO)...
	Presorting SO-basis two-electron integrals.
	Sorting File: SO Ints (nn|nn) nbuckets = 1
	Transforming the one-electron integrals and constructing Fock matrices
	Starting first half-transformation.
	Sorting half-transformed integrals.
	First half integral transformation complete.
	Starting second half-transformation.
	Two-electron integral transformation complete.
	(OO|OV)...
	Starting second half-transformation.
	Two-electron integral transformation complete.
	(OO|VV)...
	Starting second half-transformation.
	Two-electron integral transformation complete.
	(OV|OO)...
	Starting first half-transformation.
	Sorting half-transformed integrals.
	First half integral transformation complete.
	Starting second half-transformation.
	Two-electron integral transformation complete.
	(OV|OV)...
	Starting second half-transformation.
	Two-electron integral transformation complete.
	(OV|VV)...
	Starting second half-transformation.
	Two-electron integral transformation complete.
	(VV|OO)...
	Starting first half-transformation.
	Sorting half-transformed integrals.
	First half integral transformation complete.
	Starting second half-transformation.
	Two-electron integral transformation complete.
	(VV|OV)...
	Starting second half-transformation.
	Two-electron integral transformation complete.
	(VV|VV)...
	Starting second half-transformation.
	Two-electron integral transformation complete.
	Frozen core energy     =      0.00000000000000

	Size of irrep 0 of <ab|cd> integrals:     12.257 (MW) /     98.056 (MB)
	Size of irrep 1 of <ab|cd> integrals:      9.364 (MW) /     74.909 (MB)
	Total:                                    21.621 (MW) /    172.965 (MB)

	Size of irrep 0 of <ia|bc> integrals:      1.922 (MW) /     15.376 (MB)
	Size of irrep 1 of <ia|bc> integrals:      1.294 (MW) /     10.355 (MB)
	Total:                                     3.216 (MW) /     25.731 (MB)

	Size of irrep 0 of tijab amplitudes:       0.315 (MW) /      2.521 (MB)
	Size of irrep 1 of tijab amplitudes:       0.165 (MW) /      1.322 (MB)
	Total:                                     0.480 (MW) /      3.843 (MB)

	Nuclear Rep. energy          =     75.28146480901403
	SCF energy                   =   -117.06971693605837
	One-electron energy          =   -305.53189389478956
	Two-electron energy          =    113.18071214971545
	Reference energy             =   -117.06971693606009

*** tstop() called on atlantis at Tue Apr 19 15:33:24 2022
Module time:
	user time   =       1.34 seconds =       0.02 minutes
	system time =       0.70 seconds =       0.01 minutes
	total time  =          2 seconds =       0.03 minutes
Total time:
	user time   =       3.04 seconds =       0.05 minutes
	system time =       0.77 seconds =       0.01 minutes
	total time  =          3 seconds =       0.05 minutes
            **************************
            *                        *
            *        CCENERGY        *
            *                        *
            **************************

    Nuclear Rep. energy (wfn)     =   75.281464809014025
    SCF energy          (wfn)     = -117.069716936058370
    Reference energy    (file100) = -117.069716936060090

    Input parameters:
    -----------------
    Wave function   =     CCSD
    Reference wfn   =     RHF
    Brueckner       =     No
    Memory (Mbytes) =     524.3
    Maxiter         =     50
    R_Convergence   =     1.0e-07
    E_Convergence   =     1.0e-06
    Restart         =     Yes
    DIIS            =     Yes
    AO Basis        =     NONE
    ABCD            =     NEW
    Cache Level     =     2
    Cache Type      =     LOW
    Print Level     =     1
    Num. of threads =     1
    # Amps to Print =     10
    Print MP2 Amps? =     No
    Analyze T2 Amps =     No
    Print Pair Ener =     No
    Local CC        =     No
    SCS-MP2         =     False
    SCSN-MP2        =     False
    SCS-CCSD        =     False

MP2 correlation energy -0.4490274229937414
                Solving CC Amplitude Equations
                ------------------------------
  Iter             Energy              RMS        T1Diag      D1Diag    New D1Diag    D2Diag
  ----     ---------------------    ---------   ----------  ----------  ----------   --------
     0        -0.449027422993741    0.000e+00    0.000000    0.000000    0.000000    0.131746
     1        -0.470740784464147    5.590e-02    0.005417    0.012192    0.012192    0.138722
     2        -0.482957040423475    1.833e-02    0.005968    0.013692    0.013692    0.145487
     3        -0.484117011260517    5.041e-03    0.006395    0.014773    0.014773    0.146900
     4        -0.484147437896945    1.337e-03    0.006397    0.014789    0.014789    0.147294
     5        -0.484178451771829    3.499e-04    0.006393    0.014791    0.014791    0.147376
     6        -0.484182479728518    1.082e-04    0.006392    0.014787    0.014787    0.147388
     7        -0.484182090853469    2.405e-05    0.006391    0.014786    0.014786    0.147388
     8        -0.484182458922459    6.535e-06    0.006391    0.014786    0.014786    0.147388
     9        -0.484182523559397    1.951e-06    0.006391    0.014785    0.014785    0.147388
    10        -0.484182474065965    5.397e-07    0.006391    0.014785    0.014785    0.147388
    11        -0.484182487535182    1.584e-07    0.006391    0.014785    0.014785    0.147388
    12        -0.484182486516079    4.225e-08    0.006391    0.014785    0.014785    0.147388

    Iterations converged.


    Largest TIA Amplitudes:
              9  57         0.0103130617
              7  31        -0.0080392530
              8  32         0.0080390041
              7  20         0.0076223871
              8  19        -0.0076222474
             11  61         0.0063953974
             10  62         0.0063951224
              9  63         0.0062576979
              6  33        -0.0051234472
              8   5        -0.0044697659

    Largest TIjAb Amplitudes:
      7   7  12  12        -0.0437749955
      8   8  12  12        -0.0437736396
     11  11  58  58        -0.0189260093
     10  10  59  59        -0.0189243051
     11  11  57  57        -0.0174161441
     10  10  57  57        -0.0174146281
      7   7  12  21        -0.0173064848
      7   7  21  12        -0.0173064848
      8   8  12  21        -0.0172707471
      8   8  21  12        -0.0172707471

    SCF energy       (wfn)                    = -117.069716936058370
    Reference energy (file100)                = -117.069716936060090

    Opposite-spin MP2 correlation energy      =   -0.347415821750385
    Same-spin MP2 correlation energy          =   -0.101611601243357
    MP2 correlation energy                    =   -0.449027422993741
      * MP2 total energy                      = -117.518744359053827

    Opposite-spin CCSD correlation energy     =   -0.390520028615512
    Same-spin CCSD correlation energy         =   -0.093662457900567
    CCSD correlation energy                   =   -0.484182486516079
      * CCSD total energy                     = -117.553899422576166

gradient() will perform analytic gradient computation.

*** tstart() called on atlantis
*** at Tue Apr 19 15:33:28 2022

   => Loading Basis Set <=

    Name: 6-31++G**
    Role: ORBITAL
    Keyword: BASIS
    atoms 1-3 entry C          line   115 file /home/akrom/software/anaconda3/envs/ffpenv/share/psi4/basis/6-31ppgss.gbs 
    atoms 4-9 entry H          line    46 file /home/akrom/software/anaconda3/envs/ffpenv/share/psi4/basis/6-31ppgss.gbs 


         ---------------------------------------------------------
                                   SCF
               by Justin Turney, Rob Parrish, Andy Simmonett
                          and Daniel G. A. Smith
                              RHF Reference
                        1 Threads,    500 MiB Core
         ---------------------------------------------------------

  ==> Geometry <==

    Molecular point group: cs
    Full point group: Cs

    Geometry (in Angstrom), charge = 0, multiplicity = 1:

       Center              X                  Y                   Z               Mass       
    ------------   -----------------  -----------------  -----------------  -----------------
         C            0.321531939855     0.813261460475     0.000000000000    12.000000000000
         C           -0.865048060145    -0.128168539525     0.000000000000    12.000000000000
         C            0.543531939855    -0.685078539525     0.000000000000    12.000000000000
         H            0.537951939855     1.360691460475    -0.920390000000     1.007825032230
         H            0.537951939855     1.360691460475     0.920390000000     1.007825032230
         H           -1.447418060145    -0.214488539525     0.920340000000     1.007825032230
         H           -1.447418060145    -0.214488539525    -0.920340000000     1.007825032230
         H            0.909371939855    -1.146288539525    -0.920370000000     1.007825032230
         H            0.909371939855    -1.146288539525     0.920370000000     1.007825032230

  Running in cs symmetry.

  Rotational constants: A =      0.66472  B =      0.66470  C =      0.41647 [cm^-1]
  Rotational constants: A =  19927.70596  B =  19927.20236  C =  12485.44714 [MHz]
  Nuclear repulsion =   75.281464809014025

  Charge       = 0
  Multiplicity = 1
  Electrons    = 24
  Nalpha       = 12
  Nbeta        = 12

  ==> Algorithm <==

  SCF Algorithm Type is PK.
  DIIS enabled.
  MOM disabled.
  Fractional occupation disabled.
  Guess Type is SAD.
  Energy threshold   = 1.00e-10
  Density threshold  = 1.00e-10
  Integral threshold = 0.00e+00

  ==> Primary Basis <==

  Basis Set: 6-31++G**
    Blend: 6-31++G**
    Number of shells: 48
    Number of basis function: 93
    Number of Cartesian functions: 93
    Spherical Harmonics?: false
    Max angular momentum: 2

  ==> Pre-Iterations <==

   -------------------------------------------------------
    Irrep   Nso     Nmo     Nalpha   Nbeta   Ndocc  Nsocc
   -------------------------------------------------------
     A'        60      60       0       0       0       0
     A"        33      33       0       0       0       0
   -------------------------------------------------------
    Total      93      93      12      12      12       0
   -------------------------------------------------------

  ==> Integral Setup <==

  Using in-core PK algorithm.
   Calculation information:
      Number of atoms:                   9
      Number of AO shells:              48
      Number of primitives:             87
      Number of atomic orbitals:        93
      Number of basis functions:        93

      Integral cutoff                 1.00e-12
      Number of threads:                 1

  Performing in-core PK
  Using 19110012 doubles for integral storage.
  We computed 691708 shell quartets total.
  Whereas there are 692076 unique shell quartets.

  ==> DiskJK: Disk-Based J/K Matrices <==

    J tasked:                  Yes
    K tasked:                  Yes
    wK tasked:                  No
    Memory [MiB]:              375
    Schwarz Cutoff:          1E-12

    OpenMP threads:              1

  Minimum eigenvalue in the overlap matrix is 1.8844418511E-04.
  Using Symmetric Orthogonalization.

  SCF Guess: Superposition of Atomic Densities via on-the-fly atomic UHF.

  ==> Iterations <==

                        Total Energy        Delta E     RMS |[F,P]|

   @RHF iter SAD:  -116.58948010927398   -1.16589e+02   0.00000e+00 
   @RHF iter   1:  -116.94345832842396   -3.53978e-01   6.66109e-03 DIIS
   @RHF iter   2:  -117.04250826169185   -9.90499e-02   3.30118e-03 DIIS
   @RHF iter   3:  -117.06869373601282   -2.61855e-02   4.60233e-04 DIIS
   @RHF iter   4:  -117.06969344074582   -9.99705e-04   5.60076e-05 DIIS
   @RHF iter   5:  -117.06971558991413   -2.21492e-05   1.30113e-05 DIIS
   @RHF iter   6:  -117.06971689809569   -1.30818e-06   2.14481e-06 DIIS
   @RHF iter   7:  -117.06971693552472   -3.74290e-08   2.69923e-07 DIIS
   @RHF iter   8:  -117.06971693605055   -5.25830e-10   3.58909e-08 DIIS
   @RHF iter   9:  -117.06971693605816   -7.60281e-12   6.46914e-09 DIIS
   @RHF iter  10:  -117.06971693605854   -3.83693e-13   1.08022e-09 DIIS
   @RHF iter  11:  -117.06971693605838    1.56319e-13   3.90952e-10 DIIS
   @RHF iter  12:  -117.06971693605851   -1.27898e-13   2.46760e-11 DIIS
  Energy and wave function converged.


  ==> Post-Iterations <==

    Orbital Energies [Eh]
    ---------------------

    Doubly Occupied:                                                      

       1Ap   -11.230417     2Ap   -11.229465     3Ap   -11.229461  
       4Ap    -1.126730     5Ap    -0.814647     6Ap    -0.814641  
       1App   -0.663333     7Ap    -0.622394     2App   -0.510429  
       3App   -0.510414     8Ap    -0.416655     9Ap    -0.416648  

    Virtual:                                                              

      10Ap     0.049975     4App    0.060580    11Ap     0.062029  
      12Ap     0.062029     5App    0.092118     6App    0.092122  
      13Ap     0.139168    14Ap     0.142753    15Ap     0.142756  
      16Ap     0.175315    17Ap     0.183394    18Ap     0.183399  
       7App    0.222574     8App    0.235006     9App    0.235013  
      19Ap     0.240310    20Ap     0.242052    21Ap     0.242053  
      10App    0.333402    22Ap     0.351532    23Ap     0.369222  
      24Ap     0.445104    25Ap     0.445116    11App    0.451813  
      12App    0.451837    26Ap     0.521390    27Ap     0.521399  
      28Ap     0.794376    29Ap     0.882011    30Ap     0.882028  
      13App    0.947435    31Ap     1.015406    32Ap     1.018224  
      33Ap     1.018228    14App    1.035047    15App    1.035074  
      34Ap     1.146063    16App    1.157763    35Ap     1.248965  
      17App    1.304234    18App    1.304277    36Ap     1.326200  
      37Ap     1.326217    38Ap     1.524568    39Ap     1.524578  
      40Ap     1.829072    19App    1.890423    20App    1.896442  
      21App    1.896457    41Ap     2.082785    42Ap     2.082821  
      22App    2.194752    43Ap     2.392145    23App    2.393283  
      24App    2.393344    25App    2.529844    44Ap     2.557906  
      45Ap     2.557949    46Ap     2.599340    47Ap     2.599398  
      26App    2.697038    27App    2.697059    48Ap     2.711286  
      49Ap     2.862002    50Ap     2.862019    51Ap     3.006253  
      28App    3.025894    29App    3.025898    30App    3.154116  
      52Ap     3.193214    53Ap     3.272054    54Ap     3.272112  
      55Ap     3.565087    31App    3.689179    56Ap     3.769306  
      57Ap     3.769365    32App    3.941291    33App    3.941318  
      58Ap     4.712226    59Ap     4.982380    60Ap     4.982381  

    Final Occupation by Irrep:
             Ap   App 
    DOCC [     9,    3 ]

  @RHF Final Energy:  -117.06971693605851

   => Energetics <=

    Nuclear Repulsion Energy =             75.2814648090140253
    One-Electron Energy =                -305.5318938274161837
    Two-Electron Energy =                 113.1807120823436321
    Total Energy =                       -117.0697169360585121

Computation Completed


Properties will be evaluated at   0.000000,   0.000000,   0.000000 [a0]

Properties computed using the SCF density matrix

  Nuclear Dipole Moment: [e a0]
     X:    -0.0002      Y:    -0.0002      Z:     0.0000

  Electronic Dipole Moment: [e a0]
     X:     0.0001      Y:     0.0001      Z:     0.0000

  Dipole Moment: [e a0]
     X:    -0.0000      Y:    -0.0000      Z:     0.0000     Total:     0.0000

  Dipole Moment: [D]
     X:    -0.0001      Y:    -0.0001      Z:     0.0000     Total:     0.0001


*** tstop() called on atlantis at Tue Apr 19 15:33:29 2022
Module time:
	user time   =       1.24 seconds =       0.02 minutes
	system time =       0.02 seconds =       0.00 minutes
	total time  =          1 seconds =       0.02 minutes
Total time:
	user time   =       6.77 seconds =       0.11 minutes
	system time =       1.79 seconds =       0.03 minutes
	total time  =          8 seconds =       0.13 minutes
 MINTS: Wrapper to libmints.
   by Justin Turney

   Calculation information:
      Number of threads:                 1
      Number of atoms:                   9
      Number of AO shells:              48
      Number of SO shells:              36
      Number of primitives:             87
      Number of atomic orbitals:        93
      Number of basis functions:        93

      Number of irreps:                  2
      Integral cutoff                 0.00e+00
      Number of functions per irrep: [  60   33 ]

 OEINTS: Overlap, kinetic, potential, dipole, and quadrupole integrals
         stored in file 35.

      Computing two-electron integrals...done
      Computed 4803032 non-zero two-electron integrals.
        Stored in file 33.


*** tstart() called on atlantis
*** at Tue Apr 19 15:33:30 2022


	Wfn Parameters:
	--------------------
	Wavefunction         = CCSD
	Number of irreps     = 2
	Number of MOs        = 93
	Number of active MOs = 93
	AO-Basis             = NONE
	Semicanonical        = false
	Reference            = RHF
	Print Level          = 1

	IRREP	# MOs	# FZDC	# DOCC	# SOCC	# VIRT	# FZVR
	-----	-----	------	------	------	------	------
	 Ap	   60	    0	    9	    0	    51	    0
	 App	   33	    0	    3	    0	    30	    0
	Transforming integrals...
	IWL integrals will be deleted.
	(OO|OO)...
	Presorting SO-basis two-electron integrals.
	Sorting File: SO Ints (nn|nn) nbuckets = 1
	Transforming the one-electron integrals and constructing Fock matrices
	Starting first half-transformation.
	Sorting half-transformed integrals.
	First half integral transformation complete.
	Starting second half-transformation.
	Two-electron integral transformation complete.
	(OO|OV)...
	Starting second half-transformation.
	Two-electron integral transformation complete.
	(OO|VV)...
	Starting second half-transformation.
	Two-electron integral transformation complete.
	(OV|OO)...
	Starting first half-transformation.
	Sorting half-transformed integrals.
	First half integral transformation complete.
	Starting second half-transformation.
	Two-electron integral transformation complete.
	(OV|OV)...
	Starting second half-transformation.
	Two-electron integral transformation complete.
	(OV|VV)...
	Starting second half-transformation.
	Two-electron integral transformation complete.
	(VV|OO)...
	Starting first half-transformation.
	Sorting half-transformed integrals.
	First half integral transformation complete.
	Starting second half-transformation.
	Two-electron integral transformation complete.
	(VV|OV)...
	Starting second half-transformation.
	Two-electron integral transformation complete.
	(VV|VV)...
	Starting second half-transformation.
	Two-electron integral transformation complete.
	Frozen core energy     =      0.00000000000000

	Size of irrep 0 of <ab|cd> integrals:     12.257 (MW) /     98.056 (MB)
	Size of irrep 1 of <ab|cd> integrals:      9.364 (MW) /     74.909 (MB)
	Total:                                    21.621 (MW) /    172.965 (MB)

	Size of irrep 0 of <ia|bc> integrals:      1.922 (MW) /     15.376 (MB)
	Size of irrep 1 of <ia|bc> integrals:      1.294 (MW) /     10.355 (MB)
	Total:                                     3.216 (MW) /     25.731 (MB)

	Size of irrep 0 of tijab amplitudes:       0.315 (MW) /      2.521 (MB)
	Size of irrep 1 of tijab amplitudes:       0.165 (MW) /      1.322 (MB)
	Total:                                     0.480 (MW) /      3.843 (MB)

	Nuclear Rep. energy          =     75.28146480901403
	SCF energy                   =   -117.06971693605851
	One-electron energy          =   -305.53189382830135
	Two-electron energy          =    113.18071208322768
	Reference energy             =   -117.06971693605966

*** tstop() called on atlantis at Tue Apr 19 15:33:32 2022
Module time:
	user time   =       1.43 seconds =       0.02 minutes
	system time =       0.34 seconds =       0.01 minutes
	total time  =          2 seconds =       0.03 minutes
Total time:
	user time   =       8.65 seconds =       0.14 minutes
	system time =       2.17 seconds =       0.04 minutes
	total time  =         11 seconds =       0.18 minutes
            **************************
            *                        *
            *        CCENERGY        *
            *                        *
            **************************

    Nuclear Rep. energy (wfn)     =   75.281464809014025
    SCF energy          (wfn)     = -117.069716936058512
    Reference energy    (file100) = -117.069716936059663

    Input parameters:
    -----------------
    Wave function   =     CCSD
    Reference wfn   =     RHF
    Brueckner       =     No
    Memory (Mbytes) =     524.3
    Maxiter         =     50
    R_Convergence   =     1.0e-07
    E_Convergence   =     1.0e-08
    Restart         =     Yes
    DIIS            =     Yes
    AO Basis        =     NONE
    ABCD            =     NEW
    Cache Level     =     2
    Cache Type      =     LOW
    Print Level     =     1
    Num. of threads =     1
    # Amps to Print =     10
    Print MP2 Amps? =     No
    Analyze T2 Amps =     No
    Print Pair Ener =     No
    Local CC        =     No
    SCS-MP2         =     False
    SCSN-MP2        =     False
    SCS-CCSD        =     False

    Using old T1 amplitudes.
    Using old T2 amplitudes.

MP2 correlation energy -0.4490274213754979
                Solving CC Amplitude Equations
                ------------------------------
  Iter             Energy              RMS        T1Diag      D1Diag    New D1Diag    D2Diag
  ----     ---------------------    ---------   ----------  ----------  ----------   --------
     0        -0.484182365826774    0.000e+00    0.006391    0.014785    0.014785    0.147388
     1        -0.484182482884015    1.822e-04    0.006391    0.014785    0.014785    0.147388
     2        -0.484182483001891    3.252e-05    0.006391    0.014785    0.014785    0.147388
     3        -0.484182484472200    8.413e-06    0.006391    0.014785    0.014785    0.147388
     4        -0.484182484661836    2.760e-06    0.006391    0.014785    0.014785    0.147388
     5        -0.484182484597871    5.742e-07    0.006391    0.014785    0.014785    0.147388
     6        -0.484182484606740    1.631e-07    0.006391    0.014785    0.014785    0.147388
     7        -0.484182484608589    3.583e-08    0.006391    0.014785    0.014785    0.147388

    Iterations converged.


    Largest TIA Amplitudes:
              9  57         0.0103130578
              7  31        -0.0080386415
              8  32         0.0080383925
              7  20         0.0076215675
              8  19        -0.0076214284
             11  61         0.0063954914
             10  62         0.0063952164
              9  63         0.0062576970
              6  33        -0.0051234474
              8   5        -0.0044696265

    Largest TIjAb Amplitudes:
      7   7  12  12        -0.0437749897
      8   8  12  12        -0.0437736373
     11  11  58  58        -0.0189263419
     10  10  59  59        -0.0189246390
     11  11  57  57        -0.0174161437
     10  10  57  57        -0.0174146266
      7   7  12  21        -0.0173064327
      7   7  21  12        -0.0173064327
      8   8  12  21        -0.0172707973
      8   8  21  12        -0.0172707973

    SCF energy       (wfn)                    = -117.069716936058512
    Reference energy (file100)                = -117.069716936059663

    Opposite-spin MP2 correlation energy      =   -0.347415820280782
    Same-spin MP2 correlation energy          =   -0.101611601094716
    MP2 correlation energy                    =   -0.449027421375498
      * MP2 total energy                      = -117.518744357435168

    Opposite-spin CCSD correlation energy     =   -0.390520026693166
    Same-spin CCSD correlation energy         =   -0.093662457915423
    CCSD correlation energy                   =   -0.484182484608589
      * CCSD total energy                     = -117.553899420668259


			**************************
			*                        *
			*         CCHBAR         *
			*                        *
			**************************


			**************************
			*        CCLAMBDA        *
			**************************


	Nuclear Rep. energy (wfn)     =   75.281464809014025
	Reference           (wfn)     =                    0
	SCF energy          (wfn)     = -117.069716936058512
	Reference energy    (CC_INFO) = -117.069716936059663
	CCSD energy         (CC_INFO) =   -0.484182484608589
	Total CCSD energy   (CC_INFO) = -117.553899420668259

	Input parameters:
	-----------------
	Maxiter           =     50
	Convergence       = 1.0e-07
	Restart           =     No
	Cache Level       =     2
	Model III         =     No
	DIIS              =     Yes
	AO Basis          =     No
	ABCD              =     NEW
	Local CC          =     No
	Parameters for left-handed eigenvectors:
	    Irr   Root  Ground-State?    EOM energy        R0
	  1   0     0        Yes       0.0000000000   1.0000000000
	Labels for eigenvector 1:
	LIA 0 -1, Lia 0 -1, LIJAB 0 -1, Lijab 0 -1, LIjAb 0 -1, 2LIjAb - LIjbA 0 -1
	Symmetry of left-hand state: Ap
	Symmetry of left-hand eigenvector: Ap

	          Solving Lambda Equations
	          ------------------------
	Iter     PseudoEnergy or Norm         RMS  
	----     ---------------------     --------
	   0        -0.484280446458788    0.000e+00
	   1        -0.472894053563966    1.463e-02
	   2        -0.471306230515604    2.850e-03
	   3        -0.471065418616128    7.932e-04
	   4        -0.471054645420139    2.131e-04
	   5        -0.471059570732563    5.280e-05
	   6        -0.471058520263397    1.605e-05
	   7        -0.471058453093397    5.083e-06
	   8        -0.471058570176304    1.465e-06
	   9        -0.471058557754015    4.849e-07
	  10        -0.471058558805007    1.152e-07
	  11        -0.471058557951794    2.979e-08

	Largest LIA Amplitudes:
	          7  31        -0.0069524933
	          8  32         0.0069522549
	          9  57         0.0067007799
	          7  20         0.0054371543
	          8  19        -0.0054370544
	          6  33        -0.0045942684
	          9  69        -0.0040489429
	         11  61         0.0040473804
	         10  62         0.0040469906
	          9  63         0.0039747786

	Largest LIjAb Amplitudes:
	  7   7  12  12        -0.0417219592
	  8   8  12  12        -0.0417206494
	 11  11  58  58        -0.0185144912
	 10  10  59  59        -0.0185128473
	 11  11  57  57        -0.0168413488
	 10  10  57  57        -0.0168398930
	  7   7  12  21        -0.0164983534
	  7   7  21  12        -0.0164983534
	  8   8  12  21        -0.0164641205
	  8   8  21  12        -0.0164641205

	Iterations converged.

	Overlap <L|e^T> =        0.82753318914

			**************************
			*                        *
			*        CCDENSITY       *
			*                        *
			**************************


	Input parameters:
	-----------------
	Wave function    =   CCSD
	Reference wfn    =   RHF
	Dertype          = 1
	Tolerance        = 1.0e-14
	Cache Level      = 2
	AO Basis         = No
	OPDM Only        = No
	Relax OPDM       = Yes
	Compute Xi       = No
	Use Zeta         = No
	Xi connected     = Yes
	Compute NO       = No

	Nuclear Rep. energy (wfn)     =   75.281464809014025
	SCF energy          (wfn)     = -117.069716936058512
	Reference energy    (file100) = -117.069716936059663
	CCSD energy         (CC_INFO) =   -0.484182484608589
	Total CCSD energy   (CC_INFO) = -117.553899420668259
	Number of States = 1

	Ground?  State     EOM Energy       R0
	  Yes     0 Ap    0.0000000000   1.00000000

	Virial Theorem Data:
	--------------------
	Kinetic energy (ref)   =  116.773766719529419
	Kinetic energy (corr)  =    0.528437604334170
	Kinetic energy (total) =  117.302204323863592
	-V/T (ref)             =    2.002534389570913
	-V/T (corr)            =    1.916252894641474
	-V/T (total)           =    2.002145697928317
  Cartesian Displacement SALCs
  By SALC:
  Number of SALCs: 15, nirreps: A'
  Project out translations: False
  Project out rotations: False
	irrep = 0, ncomponent = 1
		0: atom 0, direction x, coef 1.000000
	irrep = 0, ncomponent = 1
		0: atom 0, direction y, coef 1.000000
	irrep = 0, ncomponent = 1
		0: atom 1, direction x, coef 1.000000
	irrep = 0, ncomponent = 1
		0: atom 1, direction y, coef 1.000000
	irrep = 0, ncomponent = 1
		0: atom 2, direction x, coef 1.000000
	irrep = 0, ncomponent = 1
		0: atom 2, direction y, coef 1.000000
	irrep = 0, ncomponent = 2
		0: atom 3, direction x, coef 0.707107
		1: atom 4, direction x, coef 0.707107
	irrep = 0, ncomponent = 2
		0: atom 3, direction y, coef 0.707107
		1: atom 4, direction y, coef 0.707107
	irrep = 0, ncomponent = 2
		0: atom 3, direction z, coef 0.707107
		1: atom 4, direction z, coef -0.707107
	irrep = 0, ncomponent = 2
		0: atom 5, direction x, coef 0.707107
		1: atom 6, direction x, coef 0.707107
	irrep = 0, ncomponent = 2
		0: atom 5, direction y, coef 0.707107
		1: atom 6, direction y, coef 0.707107
	irrep = 0, ncomponent = 2
		0: atom 5, direction z, coef 0.707107
		1: atom 6, direction z, coef -0.707107
	irrep = 0, ncomponent = 2
		0: atom 7, direction x, coef 0.707107
		1: atom 8, direction x, coef 0.707107
	irrep = 0, ncomponent = 2
		0: atom 7, direction y, coef 0.707107
		1: atom 8, direction y, coef 0.707107
	irrep = 0, ncomponent = 2
		0: atom 7, direction z, coef 0.707107
		1: atom 8, direction z, coef -0.707107

  By Atomic Center:
  Number of atomic centers: 9
   Atomic Center 0:
	x component, size = 1
		0: salc 0, irrep 0, coef 1.000000
	y component, size = 1
		0: salc 1, irrep 0, coef 1.000000
	z component, size = 0
   Atomic Center 1:
	x component, size = 1
		0: salc 2, irrep 0, coef 1.000000
	y component, size = 1
		0: salc 3, irrep 0, coef 1.000000
	z component, size = 0
   Atomic Center 2:
	x component, size = 1
		0: salc 4, irrep 0, coef 1.000000
	y component, size = 1
		0: salc 5, irrep 0, coef 1.000000
	z component, size = 0
   Atomic Center 3:
	x component, size = 1
		0: salc 6, irrep 0, coef 0.707107
	y component, size = 1
		0: salc 7, irrep 0, coef 0.707107
	z component, size = 1
		0: salc 8, irrep 0, coef 0.707107
   Atomic Center 4:
	x component, size = 1
		0: salc 6, irrep 0, coef 0.707107
	y component, size = 1
		0: salc 7, irrep 0, coef 0.707107
	z component, size = 1
		0: salc 8, irrep 0, coef -0.707107
   Atomic Center 5:
	x component, size = 1
		0: salc 9, irrep 0, coef 0.707107
	y component, size = 1
		0: salc 10, irrep 0, coef 0.707107
	z component, size = 1
		0: salc 11, irrep 0, coef 0.707107
   Atomic Center 6:
	x component, size = 1
		0: salc 9, irrep 0, coef 0.707107
	y component, size = 1
		0: salc 10, irrep 0, coef 0.707107
	z component, size = 1
		0: salc 11, irrep 0, coef -0.707107
   Atomic Center 7:
	x component, size = 1
		0: salc 12, irrep 0, coef 0.707107
	y component, size = 1
		0: salc 13, irrep 0, coef 0.707107
	z component, size = 1
		0: salc 14, irrep 0, coef 0.707107
   Atomic Center 8:
	x component, size = 1
		0: salc 12, irrep 0, coef 0.707107
	y component, size = 1
		0: salc 13, irrep 0, coef 0.707107
	z component, size = 1
		0: salc 14, irrep 0, coef -0.707107

    Molecular point group: cs
    Full point group: Cs

    Geometry (in Bohr), charge = 0, multiplicity = 1:

       Center              X                  Y                   Z       
    ------------   -----------------  -----------------  -----------------
         C            0.607607306914     1.536841428687     0.000000000000
         C           -1.634703919032    -0.242203437603     0.000000000000
         C            1.027126506766    -1.294610814132     0.000000000000
         H            1.016581834986     2.571334201546    -1.739285028610
         H            1.016581834986     2.571334201546     1.739285028610
         H           -2.735223722715    -0.405324596752     1.739190542304
         H           -2.735223722715    -0.405324596752    -1.739190542304
         H            1.718463912503    -2.166171400454    -1.739247234088
         H            1.718463912503    -2.166171400454     1.739247234088

	Presorting MO-basis TPDM.
	Sorting File: MO TPDM (AA|AA) nbuckets = 1
	Starting first half-transformation.
	Sorting half-transformed TPDM.
	First half integral transformation complete.


  -Nuclear Repulsion Energy 1st Derivatives:
     Atom            X                  Y                   Z
    ------   -----------------  -----------------  -----------------
       1       -2.592111453938    -6.556100075531     0.000000000000
       2        6.973669949172     1.033154087036     0.000000000000
       3       -4.381860927033     5.522668221185     0.000000000000
       4       -0.529292910653    -1.338801441551     1.575980406544
       5       -0.529292910653    -1.338801441551    -1.575980406544
       6        1.424171732267     0.211061483034    -1.575901173652
       7        1.424171732267     0.211061483034     1.575901173652
       8       -0.894727605715     1.127878842172     1.575946927528
       9       -0.894727605715     1.127878842172    -1.575946927528


  -Core Hamiltonian Gradient:
     Atom            X                  Y                   Z
    ------   -----------------  -----------------  -----------------
       1        4.828629459543    12.212823994469     0.000000000000
       2      -12.989831559883    -1.924323271788     0.000000000000
       3        8.162572804422   -10.287274694795     0.000000000000
       4        1.262078558219     3.192425099764    -4.342513299126
       5        1.262078558219     3.192425099764     4.342513299126
       6       -3.396203044445    -0.503404842985     4.342102215334
       7       -3.396203044445    -0.503404842985    -4.342102215334
       8        2.133439134185    -2.689633270722    -4.342344687270
       9        2.133439134185    -2.689633270722     4.342344687270


  -Lagrangian contribution to gradient:
     Atom            X                  Y                   Z
    ------   -----------------  -----------------  -----------------
       1       -0.024633264103    -0.062296105074     0.000000000000
       2        0.066209582859     0.009797060140     0.000000000000
       3       -0.041640542366     0.052442242131     0.000000000000
       4       -0.038123412353    -0.096437035032     0.178878146545
       5       -0.038123412353    -0.096437035032    -0.178878146545
       6        0.102599137776     0.015211286553    -0.178858103464
       7        0.102599137776     0.015211286553     0.178858103464
       8       -0.064443613618     0.081254149881     0.178869782444
       9       -0.064443613618     0.081254149881    -0.178869782444


  -Two-electron contribution to gradient:
     Atom            X                  Y                   Z
    ------   -----------------  -----------------  -----------------
       1       -2.212036349629    -5.594809971967     0.000000000000
       2        5.950384712590     0.881439800319     0.000000000000
       3       -3.739328751177     4.712499043195     0.000000000000
       4       -0.693195648587    -1.753473538206     2.580499414808
       5       -0.693195648587    -1.753473538206    -2.580499414808
       6        1.865474019239     0.276542742473    -2.580197470947
       7        1.865474019239     0.276542742473     2.580197470947
       8       -1.171788176543     1.477366359959     2.580376455098
       9       -1.171788176543     1.477366359959    -2.580376455098


  -Total gradient:
     Atom            X                  Y                   Z
    ------   -----------------  -----------------  -----------------
       1       -0.000151608126    -0.000382158103     0.000000000000
       2        0.000432684739     0.000067675707     0.000000000000
       3       -0.000257416155     0.000334811716     0.000000000000
       4        0.001466586626     0.003713084975    -0.007155331229
       5        0.001466586626     0.003713084975     0.007155331229
       6       -0.003958155163    -0.000589330925     0.007145467271
       7       -0.003958155163    -0.000589330925    -0.007145467271
       8        0.002479738308    -0.003133918710    -0.007151522200
       9        0.002479738308    -0.003133918710     0.007151522200


  Based on options and gradient (rms=3.86E-03), recommend projecting translations and projecting rotations.
hessian() will perform frequency computation by finite difference of analytic gradients.

         ----------------------------------------------------------
                                   FINDIF
                     R. A. King and Jonathon Misiewicz
         ---------------------------------------------------------

  Using finite-differences of gradients to determine vibrational frequencies and 
  normal modes.  Resulting frequencies are only valid at stationary points.
    Generating geometries for use with 3-point formula.
    Displacement size will be 5.00e-03.
    Number of atoms is 9.
    Number of irreps is 2.
    Number of SALCs is 21.
    Translations projected? 1. Rotations projected? 1.
    Index of SALCs per irrep:
     1 :  0  1  2  3  4  5  6  7  8  9  10  11 
     2 :  12  13  14  15  16  17  18  19  20 
    Number of SALCs per irrep:
     Irrep 1: 12
     Irrep 2: 9
    Number of geometries (including reference) is 34.
    Number of displacements per irrep:
      Irrep 1: 24
      Irrep 2: 9

  //>>>>>>>>>>>>>>>>>>>>>>>>>>>>>>>>>>>//
  //    Loading displacement 1 of 34   //
  //<<<<<<<<<<<<<<<<<<<<<<<<<<<<<<<<<<<//
gradient() will perform analytic gradient computation.

*** tstart() called on atlantis
*** at Tue Apr 19 15:33:44 2022

   => Loading Basis Set <=

    Name: 6-31++G**
    Role: ORBITAL
    Keyword: BASIS
    atoms 1-3 entry C          line   115 file /home/akrom/software/anaconda3/envs/ffpenv/share/psi4/basis/6-31ppgss.gbs 
    atoms 4-9 entry H          line    46 file /home/akrom/software/anaconda3/envs/ffpenv/share/psi4/basis/6-31ppgss.gbs 


         ---------------------------------------------------------
                                   SCF
               by Justin Turney, Rob Parrish, Andy Simmonett
                          and Daniel G. A. Smith
                              RHF Reference
                        1 Threads,    500 MiB Core
         ---------------------------------------------------------

  ==> Geometry <==

    Molecular point group: cs
    Full point group: Cs

    Geometry (in Angstrom), charge = 0, multiplicity = 1:

       Center              X                  Y                   Z               Mass       
    ------------   -----------------  -----------------  -----------------  -----------------
         C            0.321531939855     0.813261460475     0.000000000000    12.000000000000
         C           -0.865048060145    -0.128168539525     0.000000000000    12.000000000000
         C            0.543531939855    -0.685078539525     0.000000000000    12.000000000000
         H            0.537951939855     1.360691460475    -0.920390000000     1.007825032230
         H            0.537951939855     1.360691460475     0.920390000000     1.007825032230
         H           -1.447418060145    -0.214488539525     0.920340000000     1.007825032230
         H           -1.447418060145    -0.214488539525    -0.920340000000     1.007825032230
         H            0.909371939855    -1.146288539525    -0.920370000000     1.007825032230
         H            0.909371939855    -1.146288539525     0.920370000000     1.007825032230

  Running in cs symmetry.

  Rotational constants: A =      0.66472  B =      0.66470  C =      0.41647 [cm^-1]
  Rotational constants: A =  19927.70596  B =  19927.20236  C =  12485.44714 [MHz]
  Nuclear repulsion =   75.281464809014025

  Charge       = 0
  Multiplicity = 1
  Electrons    = 24
  Nalpha       = 12
  Nbeta        = 12

  ==> Algorithm <==

  SCF Algorithm Type is PK.
  DIIS enabled.
  MOM disabled.
  Fractional occupation disabled.
  Guess Type is SAD.
  Energy threshold   = 1.00e-10
  Density threshold  = 1.00e-10
  Integral threshold = 0.00e+00

  ==> Primary Basis <==

  Basis Set: 6-31++G**
    Blend: 6-31++G**
    Number of shells: 48
    Number of basis function: 93
    Number of Cartesian functions: 93
    Spherical Harmonics?: false
    Max angular momentum: 2

  ==> Pre-Iterations <==

   -------------------------------------------------------
    Irrep   Nso     Nmo     Nalpha   Nbeta   Ndocc  Nsocc
   -------------------------------------------------------
     A'        60      60       0       0       0       0
     A"        33      33       0       0       0       0
   -------------------------------------------------------
    Total      93      93      12      12      12       0
   -------------------------------------------------------

  ==> Integral Setup <==

  Using in-core PK algorithm.
   Calculation information:
      Number of atoms:                   9
      Number of AO shells:              48
      Number of primitives:             87
      Number of atomic orbitals:        93
      Number of basis functions:        93

      Integral cutoff                 1.00e-12
      Number of threads:                 1

  Performing in-core PK
  Using 19110012 doubles for integral storage.
  We computed 691708 shell quartets total.
  Whereas there are 692076 unique shell quartets.

  ==> DiskJK: Disk-Based J/K Matrices <==

    J tasked:                  Yes
    K tasked:                  Yes
    wK tasked:                  No
    Memory [MiB]:              375
    Schwarz Cutoff:          1E-12

    OpenMP threads:              1

  Minimum eigenvalue in the overlap matrix is 1.8844418511E-04.
  Using Symmetric Orthogonalization.

  SCF Guess: Superposition of Atomic Densities via on-the-fly atomic UHF.

  ==> Iterations <==

                        Total Energy        Delta E     RMS |[F,P]|

   @RHF iter SAD:  -116.58948010927398   -1.16589e+02   0.00000e+00 
   @RHF iter   1:  -116.94345832842424   -3.53978e-01   6.66109e-03 DIIS
   @RHF iter   2:  -117.04250826169205   -9.90499e-02   3.30118e-03 DIIS
   @RHF iter   3:  -117.06869373601340   -2.61855e-02   4.60233e-04 DIIS
   @RHF iter   4:  -117.06969344074622   -9.99705e-04   5.60076e-05 DIIS
   @RHF iter   5:  -117.06971558991434   -2.21492e-05   1.30113e-05 DIIS
   @RHF iter   6:  -117.06971689809602   -1.30818e-06   2.14481e-06 DIIS
   @RHF iter   7:  -117.06971693552535   -3.74293e-08   2.69923e-07 DIIS
   @RHF iter   8:  -117.06971693605107   -5.25716e-10   3.58909e-08 DIIS
   @RHF iter   9:  -117.06971693605860   -7.53175e-12   6.46914e-09 DIIS
   @RHF iter  10:  -117.06971693605898   -3.83693e-13   1.08023e-09 DIIS
   @RHF iter  11:  -117.06971693605904   -5.68434e-14   3.90951e-10 DIIS
   @RHF iter  12:  -117.06971693605887    1.70530e-13   2.46758e-11 DIIS
  Energy and wave function converged.


  ==> Post-Iterations <==

    Orbital Energies [Eh]
    ---------------------

    Doubly Occupied:                                                      

       1Ap   -11.230417     2Ap   -11.229465     3Ap   -11.229461  
       4Ap    -1.126730     5Ap    -0.814647     6Ap    -0.814641  
       1App   -0.663333     7Ap    -0.622394     2App   -0.510429  
       3App   -0.510414     8Ap    -0.416655     9Ap    -0.416648  

    Virtual:                                                              

      10Ap     0.049975     4App    0.060580    11Ap     0.062029  
      12Ap     0.062029     5App    0.092118     6App    0.092122  
      13Ap     0.139168    14Ap     0.142753    15Ap     0.142756  
      16Ap     0.175315    17Ap     0.183394    18Ap     0.183399  
       7App    0.222574     8App    0.235006     9App    0.235013  
      19Ap     0.240310    20Ap     0.242052    21Ap     0.242053  
      10App    0.333402    22Ap     0.351532    23Ap     0.369222  
      24Ap     0.445104    25Ap     0.445116    11App    0.451813  
      12App    0.451837    26Ap     0.521390    27Ap     0.521399  
      28Ap     0.794376    29Ap     0.882011    30Ap     0.882028  
      13App    0.947435    31Ap     1.015406    32Ap     1.018224  
      33Ap     1.018228    14App    1.035047    15App    1.035074  
      34Ap     1.146063    16App    1.157763    35Ap     1.248965  
      17App    1.304234    18App    1.304277    36Ap     1.326200  
      37Ap     1.326217    38Ap     1.524568    39Ap     1.524578  
      40Ap     1.829072    19App    1.890423    20App    1.896442  
      21App    1.896457    41Ap     2.082785    42Ap     2.082821  
      22App    2.194752    43Ap     2.392145    23App    2.393283  
      24App    2.393344    25App    2.529844    44Ap     2.557906  
      45Ap     2.557949    46Ap     2.599340    47Ap     2.599398  
      26App    2.697038    27App    2.697059    48Ap     2.711286  
      49Ap     2.862002    50Ap     2.862019    51Ap     3.006253  
      28App    3.025894    29App    3.025898    30App    3.154116  
      52Ap     3.193214    53Ap     3.272054    54Ap     3.272112  
      55Ap     3.565087    31App    3.689179    56Ap     3.769306  
      57Ap     3.769365    32App    3.941291    33App    3.941318  
      58Ap     4.712226    59Ap     4.982380    60Ap     4.982381  

    Final Occupation by Irrep:
             Ap   App 
    DOCC [     9,    3 ]

  @RHF Final Energy:  -117.06971693605887

   => Energetics <=

    Nuclear Repulsion Energy =             75.2814648090140253
    One-Electron Energy =                -305.5318938274164680
    Two-Electron Energy =                 113.1807120823435611
    Total Energy =                       -117.0697169360588674

Computation Completed


Properties will be evaluated at   0.000000,   0.000000,   0.000000 [a0]

Properties computed using the SCF density matrix

  Nuclear Dipole Moment: [e a0]
     X:    -0.0002      Y:    -0.0002      Z:     0.0000

  Electronic Dipole Moment: [e a0]
     X:     0.0001      Y:     0.0001      Z:     0.0000

  Dipole Moment: [e a0]
     X:    -0.0000      Y:    -0.0000      Z:     0.0000     Total:     0.0000

  Dipole Moment: [D]
     X:    -0.0001      Y:    -0.0001      Z:     0.0000     Total:     0.0001


*** tstop() called on atlantis at Tue Apr 19 15:33:46 2022
Module time:
	user time   =       1.24 seconds =       0.02 minutes
	system time =       0.02 seconds =       0.00 minutes
	total time  =          2 seconds =       0.03 minutes
Total time:
	user time   =      18.71 seconds =       0.31 minutes
	system time =       5.90 seconds =       0.10 minutes
	total time  =         25 seconds =       0.42 minutes
 MINTS: Wrapper to libmints.
   by Justin Turney

   Calculation information:
      Number of threads:                 1
      Number of atoms:                   9
      Number of AO shells:              48
      Number of SO shells:              36
      Number of primitives:             87
      Number of atomic orbitals:        93
      Number of basis functions:        93

      Number of irreps:                  2
      Integral cutoff                 0.00e+00
      Number of functions per irrep: [  60   33 ]

 OEINTS: Overlap, kinetic, potential, dipole, and quadrupole integrals
         stored in file 35.

      Computing two-electron integrals...done
      Computed 4803206 non-zero two-electron integrals.
        Stored in file 33.


*** tstart() called on atlantis
*** at Tue Apr 19 15:33:46 2022


	Wfn Parameters:
	--------------------
	Wavefunction         = CCSD
	Number of irreps     = 2
	Number of MOs        = 93
	Number of active MOs = 93
	AO-Basis             = NONE
	Semicanonical        = false
	Reference            = RHF
	Print Level          = 1

	IRREP	# MOs	# FZDC	# DOCC	# SOCC	# VIRT	# FZVR
	-----	-----	------	------	------	------	------
	 Ap	   60	    0	    9	    0	    51	    0
	 App	   33	    0	    3	    0	    30	    0
	Transforming integrals...
	IWL integrals will be deleted.
	(OO|OO)...
	Presorting SO-basis two-electron integrals.
	Sorting File: SO Ints (nn|nn) nbuckets = 1
	Transforming the one-electron integrals and constructing Fock matrices
	Starting first half-transformation.
	Sorting half-transformed integrals.
	First half integral transformation complete.
	Starting second half-transformation.
	Two-electron integral transformation complete.
	(OO|OV)...
	Starting second half-transformation.
	Two-electron integral transformation complete.
	(OO|VV)...
	Starting second half-transformation.
	Two-electron integral transformation complete.
	(OV|OO)...
	Starting first half-transformation.
	Sorting half-transformed integrals.
	First half integral transformation complete.
	Starting second half-transformation.
	Two-electron integral transformation complete.
	(OV|OV)...
	Starting second half-transformation.
	Two-electron integral transformation complete.
	(OV|VV)...
	Starting second half-transformation.
	Two-electron integral transformation complete.
	(VV|OO)...
	Starting first half-transformation.
	Sorting half-transformed integrals.
	First half integral transformation complete.
	Starting second half-transformation.
	Two-electron integral transformation complete.
	(VV|OV)...
	Starting second half-transformation.
	Two-electron integral transformation complete.
	(VV|VV)...
	Starting second half-transformation.
	Two-electron integral transformation complete.
	Frozen core energy     =      0.00000000000000

	Size of irrep 0 of <ab|cd> integrals:     12.257 (MW) /     98.056 (MB)
	Size of irrep 1 of <ab|cd> integrals:      9.364 (MW) /     74.909 (MB)
	Total:                                    21.621 (MW) /    172.965 (MB)

	Size of irrep 0 of <ia|bc> integrals:      1.922 (MW) /     15.376 (MB)
	Size of irrep 1 of <ia|bc> integrals:      1.294 (MW) /     10.355 (MB)
	Total:                                     3.216 (MW) /     25.731 (MB)

	Size of irrep 0 of tijab amplitudes:       0.315 (MW) /      2.521 (MB)
	Size of irrep 1 of tijab amplitudes:       0.165 (MW) /      1.322 (MB)
	Total:                                     0.480 (MW) /      3.843 (MB)

	Nuclear Rep. energy          =     75.28146480901403
	SCF energy                   =   -117.06971693605887
	One-electron energy          =   -305.53189382830180
	Two-electron energy          =    113.18071208322756
	Reference energy             =   -117.06971693606023

*** tstop() called on atlantis at Tue Apr 19 15:33:48 2022
Module time:
	user time   =       1.36 seconds =       0.02 minutes
	system time =       0.49 seconds =       0.01 minutes
	total time  =          2 seconds =       0.03 minutes
Total time:
	user time   =      20.52 seconds =       0.34 minutes
	system time =       6.43 seconds =       0.11 minutes
	total time  =         27 seconds =       0.45 minutes
            **************************
            *                        *
            *        CCENERGY        *
            *                        *
            **************************

    Nuclear Rep. energy (wfn)     =   75.281464809014025
    SCF energy          (wfn)     = -117.069716936058867
    Reference energy    (file100) = -117.069716936060232

    Input parameters:
    -----------------
    Wave function   =     CCSD
    Reference wfn   =     RHF
    Brueckner       =     No
    Memory (Mbytes) =     524.3
    Maxiter         =     50
    R_Convergence   =     1.0e-07
    E_Convergence   =     1.0e-08
    Restart         =     Yes
    DIIS            =     Yes
    AO Basis        =     NONE
    ABCD            =     NEW
    Cache Level     =     2
    Cache Type      =     LOW
    Print Level     =     1
    Num. of threads =     1
    # Amps to Print =     10
    Print MP2 Amps? =     No
    Analyze T2 Amps =     No
    Print Pair Ener =     No
    Local CC        =     No
    SCS-MP2         =     False
    SCSN-MP2        =     False
    SCS-CCSD        =     False

MP2 correlation energy -0.4490274213755042
                Solving CC Amplitude Equations
                ------------------------------
  Iter             Energy              RMS        T1Diag      D1Diag    New D1Diag    D2Diag
  ----     ---------------------    ---------   ----------  ----------  ----------   --------
     0        -0.449027421375504    0.000e+00    0.000000    0.000000    0.000000    0.131746
     1        -0.470740782287901    5.590e-02    0.005417    0.012192    0.012192    0.138722
     2        -0.482957038009047    1.833e-02    0.005968    0.013692    0.013692    0.145487
     3        -0.484117008887882    5.041e-03    0.006395    0.014773    0.014773    0.146900
     4        -0.484147435511187    1.337e-03    0.006397    0.014789    0.014789    0.147294
     5        -0.484178449387910    3.499e-04    0.006393    0.014791    0.014791    0.147376
     6        -0.484182477345283    1.082e-04    0.006392    0.014787    0.014787    0.147388
     7        -0.484182088470156    2.405e-05    0.006391    0.014786    0.014786    0.147388
     8        -0.484182456539117    6.535e-06    0.006391    0.014786    0.014786    0.147388
     9        -0.484182521176068    1.951e-06    0.006391    0.014785    0.014785    0.147388
    10        -0.484182471682636    5.397e-07    0.006391    0.014785    0.014785    0.147388
    11        -0.484182485151850    1.584e-07    0.006391    0.014785    0.014785    0.147388
    12        -0.484182483001464    4.225e-08    0.006391    0.014785    0.014785    0.147388
    13        -0.484182484235461    1.362e-08    0.006391    0.014785    0.014785    0.147388

    Iterations converged.


    Largest TIA Amplitudes:
              9  57         0.0103130584
              7  31        -0.0080386413
              8  32         0.0080383924
              7  20         0.0076215670
              8  19        -0.0076214278
             11  61         0.0063954919
             10  62         0.0063952169
              9  63         0.0062576970
              6  33        -0.0051234473
              8   5        -0.0044696286

    Largest TIjAb Amplitudes:
      7   7  12  12        -0.0437749896
      8   8  12  12        -0.0437736373
     11  11  58  58        -0.0189263417
     10  10  59  59        -0.0189246388
     11  11  57  57        -0.0174161438
     10  10  57  57        -0.0174146267
      7   7  12  21        -0.0173064326
      7   7  21  12        -0.0173064326
      8   8  12  21        -0.0172707972
      8   8  21  12        -0.0172707972

    SCF energy       (wfn)                    = -117.069716936058867
    Reference energy (file100)                = -117.069716936060232

    Opposite-spin MP2 correlation energy      =   -0.347415820280787
    Same-spin MP2 correlation energy          =   -0.101611601094717
    MP2 correlation energy                    =   -0.449027421375504
      * MP2 total energy                      = -117.518744357435736

    Opposite-spin CCSD correlation energy     =   -0.390520025971211
    Same-spin CCSD correlation energy         =   -0.093662458264249
    CCSD correlation energy                   =   -0.484182484235461
      * CCSD total energy                     = -117.553899420295693


			**************************
			*                        *
			*         CCHBAR         *
			*                        *
			**************************


			**************************
			*        CCLAMBDA        *
			**************************


	Nuclear Rep. energy (wfn)     =   75.281464809014025
	Reference           (wfn)     =                    0
	SCF energy          (wfn)     = -117.069716936058867
	Reference energy    (CC_INFO) = -117.069716936060232
	CCSD energy         (CC_INFO) =   -0.484182484235461
	Total CCSD energy   (CC_INFO) = -117.553899420295693

	Input parameters:
	-----------------
	Maxiter           =     50
	Convergence       = 1.0e-07
	Restart           =     No
	Cache Level       =     2
	Model III         =     No
	DIIS              =     Yes
	AO Basis          =     No
	ABCD              =     NEW
	Local CC          =     No
	Parameters for left-handed eigenvectors:
	    Irr   Root  Ground-State?    EOM energy        R0
	  1   0     0        Yes       0.0000000000   1.0000000000
	Labels for eigenvector 1:
	LIA 0 -1, Lia 0 -1, LIJAB 0 -1, Lijab 0 -1, LIjAb 0 -1, 2LIjAb - LIjbA 0 -1
	Symmetry of left-hand state: Ap
	Symmetry of left-hand eigenvector: Ap

	          Solving Lambda Equations
	          ------------------------
	Iter     PseudoEnergy or Norm         RMS  
	----     ---------------------     --------
	   0        -0.484280446073314    2.979e-08
	   1        -0.472894053406817    1.463e-02
	   2        -0.471306230494943    2.850e-03
	   3        -0.471065418610619    7.932e-04
	   4        -0.471054645424116    2.131e-04
	   5        -0.471059570744701    5.280e-05
	   6        -0.471058520275090    1.605e-05
	   7        -0.471058453106285    5.083e-06
	   8        -0.471058570190064    1.465e-06
	   9        -0.471058557767756    4.849e-07
	  10        -0.471058558818778    1.152e-07
	  11        -0.471058557965560    2.979e-08

	Largest LIA Amplitudes:
	          7  31        -0.0069524933
	          8  32         0.0069522549
	          9  57         0.0067007799
	          7  20         0.0054371543
	          8  19        -0.0054370544
	          6  33        -0.0045942684
	          9  69        -0.0040489430
	         11  61         0.0040473805
	         10  62         0.0040469907
	          9  63         0.0039747786

	Largest LIjAb Amplitudes:
	  7   7  12  12        -0.0417219592
	  8   8  12  12        -0.0417206494
	 11  11  58  58        -0.0185144912
	 10  10  59  59        -0.0185128473
	 11  11  57  57        -0.0168413488
	 10  10  57  57        -0.0168398930
	  7   7  12  21        -0.0164983534
	  7   7  21  12        -0.0164983534
	  8   8  12  21        -0.0164641205
	  8   8  21  12        -0.0164641205

	Iterations converged.

	Overlap <L|e^T> =        0.82753318938

			**************************
			*                        *
			*        CCDENSITY       *
			*                        *
			**************************


	Input parameters:
	-----------------
	Wave function    =   CCSD
	Reference wfn    =   RHF
	Dertype          = 1
	Tolerance        = 1.0e-14
	Cache Level      = 2
	AO Basis         = No
	OPDM Only        = No
	Relax OPDM       = Yes
	Compute Xi       = No
	Use Zeta         = No
	Xi connected     = Yes
	Compute NO       = No

	Nuclear Rep. energy (wfn)     =   75.281464809014025
	SCF energy          (wfn)     = -117.069716936058867
	Reference energy    (file100) = -117.069716936060232
	CCSD energy         (CC_INFO) =   -0.484182484235461
	Total CCSD energy   (CC_INFO) = -117.553899420295693
	Number of States = 1

	Ground?  State     EOM Energy       R0
	  Yes     0 Ap    0.0000000000   1.00000000

	Virial Theorem Data:
	--------------------
	Kinetic energy (ref)   =  116.773766719529732
	Kinetic energy (corr)  =    0.528437598175368
	Kinetic energy (total) =  117.302204317705105
	-V/T (ref)             =    2.002534389570916
	-V/T (corr)            =    1.916252904614066
	-V/T (total)           =    2.002145697977754
  Cartesian Displacement SALCs
  By SALC:
  Number of SALCs: 15, nirreps: A'
  Project out translations: False
  Project out rotations: False
	irrep = 0, ncomponent = 1
		0: atom 0, direction x, coef 1.000000
	irrep = 0, ncomponent = 1
		0: atom 0, direction y, coef 1.000000
	irrep = 0, ncomponent = 1
		0: atom 1, direction x, coef 1.000000
	irrep = 0, ncomponent = 1
		0: atom 1, direction y, coef 1.000000
	irrep = 0, ncomponent = 1
		0: atom 2, direction x, coef 1.000000
	irrep = 0, ncomponent = 1
		0: atom 2, direction y, coef 1.000000
	irrep = 0, ncomponent = 2
		0: atom 3, direction x, coef 0.707107
		1: atom 4, direction x, coef 0.707107
	irrep = 0, ncomponent = 2
		0: atom 3, direction y, coef 0.707107
		1: atom 4, direction y, coef 0.707107
	irrep = 0, ncomponent = 2
		0: atom 3, direction z, coef 0.707107
		1: atom 4, direction z, coef -0.707107
	irrep = 0, ncomponent = 2
		0: atom 5, direction x, coef 0.707107
		1: atom 6, direction x, coef 0.707107
	irrep = 0, ncomponent = 2
		0: atom 5, direction y, coef 0.707107
		1: atom 6, direction y, coef 0.707107
	irrep = 0, ncomponent = 2
		0: atom 5, direction z, coef 0.707107
		1: atom 6, direction z, coef -0.707107
	irrep = 0, ncomponent = 2
		0: atom 7, direction x, coef 0.707107
		1: atom 8, direction x, coef 0.707107
	irrep = 0, ncomponent = 2
		0: atom 7, direction y, coef 0.707107
		1: atom 8, direction y, coef 0.707107
	irrep = 0, ncomponent = 2
		0: atom 7, direction z, coef 0.707107
		1: atom 8, direction z, coef -0.707107

  By Atomic Center:
  Number of atomic centers: 9
   Atomic Center 0:
	x component, size = 1
		0: salc 0, irrep 0, coef 1.000000
	y component, size = 1
		0: salc 1, irrep 0, coef 1.000000
	z component, size = 0
   Atomic Center 1:
	x component, size = 1
		0: salc 2, irrep 0, coef 1.000000
	y component, size = 1
		0: salc 3, irrep 0, coef 1.000000
	z component, size = 0
   Atomic Center 2:
	x component, size = 1
		0: salc 4, irrep 0, coef 1.000000
	y component, size = 1
		0: salc 5, irrep 0, coef 1.000000
	z component, size = 0
   Atomic Center 3:
	x component, size = 1
		0: salc 6, irrep 0, coef 0.707107
	y component, size = 1
		0: salc 7, irrep 0, coef 0.707107
	z component, size = 1
		0: salc 8, irrep 0, coef 0.707107
   Atomic Center 4:
	x component, size = 1
		0: salc 6, irrep 0, coef 0.707107
	y component, size = 1
		0: salc 7, irrep 0, coef 0.707107
	z component, size = 1
		0: salc 8, irrep 0, coef -0.707107
   Atomic Center 5:
	x component, size = 1
		0: salc 9, irrep 0, coef 0.707107
	y component, size = 1
		0: salc 10, irrep 0, coef 0.707107
	z component, size = 1
		0: salc 11, irrep 0, coef 0.707107
   Atomic Center 6:
	x component, size = 1
		0: salc 9, irrep 0, coef 0.707107
	y component, size = 1
		0: salc 10, irrep 0, coef 0.707107
	z component, size = 1
		0: salc 11, irrep 0, coef -0.707107
   Atomic Center 7:
	x component, size = 1
		0: salc 12, irrep 0, coef 0.707107
	y component, size = 1
		0: salc 13, irrep 0, coef 0.707107
	z component, size = 1
		0: salc 14, irrep 0, coef 0.707107
   Atomic Center 8:
	x component, size = 1
		0: salc 12, irrep 0, coef 0.707107
	y component, size = 1
		0: salc 13, irrep 0, coef 0.707107
	z component, size = 1
		0: salc 14, irrep 0, coef -0.707107

    Molecular point group: cs
    Full point group: Cs

    Geometry (in Bohr), charge = 0, multiplicity = 1:

       Center              X                  Y                   Z       
    ------------   -----------------  -----------------  -----------------
         C            0.607607306914     1.536841428687     0.000000000000
         C           -1.634703919032    -0.242203437603     0.000000000000
         C            1.027126506766    -1.294610814132     0.000000000000
         H            1.016581834986     2.571334201546    -1.739285028610
         H            1.016581834986     2.571334201546     1.739285028610
         H           -2.735223722715    -0.405324596752     1.739190542304
         H           -2.735223722715    -0.405324596752    -1.739190542304
         H            1.718463912503    -2.166171400454    -1.739247234088
         H            1.718463912503    -2.166171400454     1.739247234088

	Presorting MO-basis TPDM.
	Sorting File: MO TPDM (AA|AA) nbuckets = 1
	Starting first half-transformation.
	Sorting half-transformed TPDM.
	First half integral transformation complete.


  -Nuclear Repulsion Energy 1st Derivatives:
     Atom            X                  Y                   Z
    ------   -----------------  -----------------  -----------------
       1       -2.592111453938    -6.556100075531     0.000000000000
       2        6.973669949172     1.033154087036     0.000000000000
       3       -4.381860927033     5.522668221185     0.000000000000
       4       -0.529292910653    -1.338801441551     1.575980406544
       5       -0.529292910653    -1.338801441551    -1.575980406544
       6        1.424171732267     0.211061483034    -1.575901173652
       7        1.424171732267     0.211061483034     1.575901173652
       8       -0.894727605715     1.127878842172     1.575946927528
       9       -0.894727605715     1.127878842172    -1.575946927528


  -Core Hamiltonian Gradient:
     Atom            X                  Y                   Z
    ------   -----------------  -----------------  -----------------
       1        4.828629441554    12.212823998750     0.000000000000
       2      -12.989831554627    -1.924323289382     0.000000000000
       3        8.162572817196   -10.287274681409     0.000000000000
       4        1.262078558554     3.192425100968    -4.342513300895
       5        1.262078558554     3.192425100968     4.342513300895
       6       -3.396203045603    -0.503404843281     4.342102217082
       7       -3.396203045603    -0.503404843281    -4.342102217082
       8        2.133439134988    -2.689633271666    -4.342344689041
       9        2.133439134988    -2.689633271666     4.342344689041


  -Lagrangian contribution to gradient:
     Atom            X                  Y                   Z
    ------   -----------------  -----------------  -----------------
       1       -0.024633263440    -0.062296105468     0.000000000000
       2        0.066209582888     0.009797060911     0.000000000000
       3       -0.041640543059     0.052442241751     0.000000000000
       4       -0.038123412404    -0.096437035057     0.178878146614
       5       -0.038123412404    -0.096437035057    -0.178878146614
       6        0.102599137821     0.015211286520    -0.178858103533
       7        0.102599137821     0.015211286520     0.178858103533
       8       -0.064443613612     0.081254149940     0.178869782514
       9       -0.064443613612     0.081254149940    -0.178869782514


  -Two-electron contribution to gradient:
     Atom            X                  Y                   Z
    ------   -----------------  -----------------  -----------------
       1       -2.212036332692    -5.594809975489     0.000000000000
       2        5.950384707191     0.881439816625     0.000000000000
       3       -3.739328762754     4.712499030344     0.000000000000
       4       -0.693195648883    -1.753473539352     2.580499416484
       5       -0.693195648883    -1.753473539352    -2.580499416484
       6        1.865474020330     0.276542742774    -2.580197472604
       7        1.865474020330     0.276542742774     2.580197472604
       8       -1.171788177319     1.477366360837     2.580376456776
       9       -1.171788177319     1.477366360837    -2.580376456776


  -Total gradient:
     Atom            X                  Y                   Z
    ------   -----------------  -----------------  -----------------
       1       -0.000151608516    -0.000382157739     0.000000000000
       2        0.000432684625     0.000067675189     0.000000000000
       3       -0.000257415650     0.000334811870     0.000000000000
       4        0.001466586613     0.003713085008    -0.007155331252
       5        0.001466586613     0.003713085008     0.007155331252
       6       -0.003958155185    -0.000589330952     0.007145467294
       7       -0.003958155185    -0.000589330952    -0.007145467294
       8        0.002479738342    -0.003133918716    -0.007151522223
       9        0.002479738342    -0.003133918716     0.007151522223


  //>>>>>>>>>>>>>>>>>>>>>>>>>>>>>>>>>>>//
  //    Loading displacement 2 of 34   //
  //<<<<<<<<<<<<<<<<<<<<<<<<<<<<<<<<<<<//
gradient() will perform analytic gradient computation.

*** tstart() called on atlantis
*** at Tue Apr 19 15:34:02 2022

   => Loading Basis Set <=

    Name: 6-31++G**
    Role: ORBITAL
    Keyword: BASIS
    atoms 1-3 entry C          line   115 file /home/akrom/software/anaconda3/envs/ffpenv/share/psi4/basis/6-31ppgss.gbs 
    atoms 4-9 entry H          line    46 file /home/akrom/software/anaconda3/envs/ffpenv/share/psi4/basis/6-31ppgss.gbs 


[...]
         H            0.909552016637    -1.145833073832    -0.920392313149     1.007825032230
         H            0.909191863074    -1.146744005218     0.920347686851     1.007825032230

  Running in c1 symmetry.

  Rotational constants: A =      0.66472  B =      0.66470  C =      0.41647 [cm^-1]
  Rotational constants: A =  19927.70296  B =  19927.19704  C =  12485.44609 [MHz]
  Nuclear repulsion =   75.281462451979493

  Charge       = 0
  Multiplicity = 1
  Electrons    = 24
  Nalpha       = 12
  Nbeta        = 12

  ==> Algorithm <==

  SCF Algorithm Type is PK.
  DIIS enabled.
  MOM disabled.
  Fractional occupation disabled.
  Guess Type is SAD.
  Energy threshold   = 1.00e-10
  Density threshold  = 1.00e-10
  Integral threshold = 0.00e+00

  ==> Primary Basis <==

  Basis Set: 6-31++G**
    Blend: 6-31++G**
    Number of shells: 48
    Number of basis function: 93
    Number of Cartesian functions: 93
    Spherical Harmonics?: false
    Max angular momentum: 2

  ==> Pre-Iterations <==

   -------------------------------------------------------
    Irrep   Nso     Nmo     Nalpha   Nbeta   Ndocc  Nsocc
   -------------------------------------------------------
     A         93      93       0       0       0       0
   -------------------------------------------------------
    Total      93      93      12      12      12       0
   -------------------------------------------------------

  ==> Integral Setup <==

  Using in-core PK algorithm.
   Calculation information:
      Number of atoms:                   9
      Number of AO shells:              48
      Number of primitives:             87
      Number of atomic orbitals:        93
      Number of basis functions:        93

      Integral cutoff                 1.00e-12
      Number of threads:                 1

  Performing in-core PK
  Using 19110012 doubles for integral storage.
  We computed 691708 shell quartets total.
  Whereas there are 692076 unique shell quartets.

  ==> DiskJK: Disk-Based J/K Matrices <==

    J tasked:                  Yes
    K tasked:                  Yes
    wK tasked:                  No
    Memory [MiB]:              375
    Schwarz Cutoff:          1E-12

    OpenMP threads:              1

  Minimum eigenvalue in the overlap matrix is 1.8844375374E-04.
  Using Symmetric Orthogonalization.

  SCF Guess: Superposition of Atomic Densities via on-the-fly atomic UHF.

  ==> Iterations <==

                        Total Energy        Delta E     RMS |[F,P]|

   @RHF iter SAD:  -116.58947825286899   -1.16589e+02   0.00000e+00 
   @RHF iter   1:  -116.94345607278981   -3.53978e-01   4.90459e-03 DIIS
   @RHF iter   2:  -117.04250612785866   -9.90501e-02   2.43068e-03 DIIS
   @RHF iter   3:  -117.06869165809209   -2.61855e-02   3.38872e-04 DIIS
   @RHF iter   4:  -117.06969136974537   -9.99712e-04   4.12390e-05 DIIS
   @RHF iter   5:  -117.06971351940160   -2.21497e-05   9.58039e-06 DIIS
   @RHF iter   6:  -117.06971482762094   -1.30822e-06   1.57926e-06 DIIS
   @RHF iter   7:  -117.06971486505090   -3.74300e-08   1.98770e-07 DIIS
   @RHF iter   8:  -117.06971486557654   -5.25645e-10   2.64641e-08 DIIS
   @RHF iter   9:  -117.06971486558473   -8.18545e-12   4.79936e-09 DIIS
   @RHF iter  10:  -117.06971486558476   -2.84217e-14   8.07196e-10 DIIS
   @RHF iter  11:  -117.06971486558456    1.98952e-13   2.53284e-10 DIIS
   @RHF iter  12:  -117.06971486558436    1.98952e-13   3.52314e-11 DIIS
  Energy and wave function converged.


  ==> Post-Iterations <==

    Orbital Energies [Eh]
    ---------------------

    Doubly Occupied:                                                      

       1A    -11.230417     2A    -11.229466     3A    -11.229461  
       4A     -1.126730     5A     -0.814648     6A     -0.814642  
       7A     -0.663332     8A     -0.622395     9A     -0.510428  
      10A     -0.510414    11A     -0.416655    12A     -0.416647  

    Virtual:                                                              

      13A      0.049975    14A      0.060580    15A      0.062029  
      16A      0.062029    17A      0.092118    18A      0.092122  
      19A      0.139168    20A      0.142753    21A      0.142755  
      22A      0.175315    23A      0.183394    24A      0.183399  
      25A      0.222574    26A      0.235006    27A      0.235012  
      28A      0.240312    29A      0.242052    30A      0.242053  
      31A      0.333401    32A      0.351532    33A      0.369221  
      34A      0.445101    35A      0.445115    36A      0.451814  
      37A      0.451839    38A      0.521390    39A      0.521399  
      40A      0.794377    41A      0.882011    42A      0.882028  
      43A      0.947434    44A      1.015406    45A      1.018224  
      46A      1.018228    47A      1.035047    48A      1.035074  
      49A      1.146061    50A      1.157764    51A      1.248964  
      52A      1.304234    53A      1.304276    54A      1.326204  
      55A      1.326217    56A      1.524569    57A      1.524578  
      58A      1.829071    59A      1.890422    60A      1.896442  
      61A      1.896457    62A      2.082786    63A      2.082820  
      64A      2.194751    65A      2.391663    66A      2.393336  
      67A      2.393772    68A      2.529841    69A      2.557907  
      70A      2.557948    71A      2.599340    72A      2.599400  
      73A      2.697035    74A      2.697059    75A      2.711285  
      76A      2.862004    77A      2.862019    78A      3.006249  
      79A      3.025896    80A      3.025901    81A      3.154110  
      82A      3.193222    83A      3.272052    84A      3.272112  
      85A      3.565077    86A      3.689186    87A      3.769306  
      88A      3.769358    89A      3.941302    90A      3.941328  
      91A      4.712226    92A      4.982380    93A      4.982381  

    Final Occupation by Irrep:
              A 
    DOCC [    12 ]

  @RHF Final Energy:  -117.06971486558436

   => Energetics <=

    Nuclear Repulsion Energy =             75.2814624519794933
    One-Electron Energy =                -305.5318826786337922
    Two-Electron Energy =                 113.1807053610699256
    Total Energy =                       -117.0697148655843591

Computation Completed


Properties will be evaluated at   0.000000,   0.000000,   0.000000 [a0]

Properties computed using the SCF density matrix

  Nuclear Dipole Moment: [e a0]
     X:    -0.0002      Y:    -0.0002      Z:     0.0021

  Electronic Dipole Moment: [e a0]
     X:     0.0001      Y:     0.0001      Z:    -0.0024

  Dipole Moment: [e a0]
     X:    -0.0000      Y:    -0.0000      Z:    -0.0004     Total:     0.0004

  Dipole Moment: [D]
     X:    -0.0001      Y:    -0.0001      Z:    -0.0009     Total:     0.0010


*** tstop() called on atlantis at Tue Apr 19 15:41:18 2022
Module time:
	user time   =       1.24 seconds =       0.02 minutes
	system time =       0.03 seconds =       0.00 minutes
	total time  =          2 seconds =       0.03 minutes
Total time:
	user time   =     342.77 seconds =       5.71 minutes
	system time =     126.27 seconds =       2.10 minutes
	total time  =        477 seconds =       7.95 minutes
 MINTS: Wrapper to libmints.
   by Justin Turney

   Calculation information:
      Number of threads:                 1
      Number of atoms:                   9
      Number of AO shells:              48
      Number of SO shells:              48
      Number of primitives:             87
      Number of atomic orbitals:        93
      Number of basis functions:        93

      Number of irreps:                  1
      Integral cutoff                 0.00e+00
      Number of functions per irrep: [  93 ]

 OEINTS: Overlap, kinetic, potential, dipole, and quadrupole integrals
         stored in file 35.

      Computing two-electron integrals...done
      Computed 9520083 non-zero two-electron integrals.
        Stored in file 33.


*** tstart() called on atlantis
*** at Tue Apr 19 15:41:18 2022


	Wfn Parameters:
	--------------------
	Wavefunction         = CCSD
	Number of irreps     = 1
	Number of MOs        = 93
	Number of active MOs = 93
	AO-Basis             = NONE
	Semicanonical        = false
	Reference            = RHF
	Print Level          = 1

	IRREP	# MOs	# FZDC	# DOCC	# SOCC	# VIRT	# FZVR
	-----	-----	------	------	------	------	------
	 A	   93	    0	    12	    0	    81	    0
	Transforming integrals...
	IWL integrals will be deleted.
	(OO|OO)...
	Presorting SO-basis two-electron integrals.
	Sorting File: SO Ints (nn|nn) nbuckets = 1
	Transforming the one-electron integrals and constructing Fock matrices
	Starting first half-transformation.
	Sorting half-transformed integrals.
	First half integral transformation complete.
	Starting second half-transformation.
	Two-electron integral transformation complete.
	(OO|OV)...
	Starting second half-transformation.
	Two-electron integral transformation complete.
	(OO|VV)...
	Starting second half-transformation.
	Two-electron integral transformation complete.
	(OV|OO)...
	Starting first half-transformation.
	Sorting half-transformed integrals.
	First half integral transformation complete.
	Starting second half-transformation.
	Two-electron integral transformation complete.
	(OV|OV)...
	Starting second half-transformation.
	Two-electron integral transformation complete.
	(OV|VV)...
	Starting second half-transformation.
	Two-electron integral transformation complete.
	(VV|OO)...
	Starting first half-transformation.
	Sorting half-transformed integrals.
	First half integral transformation complete.
	Starting second half-transformation.
	Two-electron integral transformation complete.
	(VV|OV)...
	Starting second half-transformation.
	Two-electron integral transformation complete.
	(VV|VV)...
	Starting second half-transformation.
	Two-electron integral transformation complete.
	Frozen core energy     =      0.00000000000000

	Size of irrep 0 of <ab|cd> integrals:     43.047 (MW) /    344.374 (MB)
	Total:                                    43.047 (MW) /    344.374 (MB)

	Size of irrep 0 of <ia|bc> integrals:      6.377 (MW) /     51.018 (MB)
	Total:                                     6.377 (MW) /     51.018 (MB)

	Size of irrep 0 of tijab amplitudes:       0.945 (MW) /      7.558 (MB)
	Total:                                     0.945 (MW) /      7.558 (MB)

	Nuclear Rep. energy          =     75.28146245197949
	SCF energy                   =   -117.06971486558436
	One-electron energy          =   -305.53188267696305
	Two-electron energy          =    113.18070535939748
	Reference energy             =   -117.06971486558608

*** tstop() called on atlantis at Tue Apr 19 15:41:23 2022
Module time:
	user time   =       3.15 seconds =       0.05 minutes
	system time =       1.26 seconds =       0.02 minutes
	total time  =          5 seconds =       0.08 minutes
Total time:
	user time   =     346.70 seconds =       5.78 minutes
	system time =     127.57 seconds =       2.13 minutes
	total time  =        482 seconds =       8.03 minutes
            **************************
            *                        *
            *        CCENERGY        *
            *                        *
            **************************

    Nuclear Rep. energy (wfn)     =   75.281462451979493
    SCF energy          (wfn)     = -117.069714865584359
    Reference energy    (file100) = -117.069714865586079

    Input parameters:
    -----------------
    Wave function   =     CCSD
    Reference wfn   =     RHF
    Brueckner       =     No
    Memory (Mbytes) =     524.3
    Maxiter         =     50
    R_Convergence   =     1.0e-07
    E_Convergence   =     1.0e-08
    Restart         =     Yes
    DIIS            =     Yes
    AO Basis        =     NONE
    ABCD            =     NEW
    Cache Level     =     2
    Cache Type      =     LOW
    Print Level     =     1
    Num. of threads =     1
    # Amps to Print =     10
    Print MP2 Amps? =     No
    Analyze T2 Amps =     No
    Print Pair Ener =     No
    Local CC        =     No
    SCS-MP2         =     False
    SCSN-MP2        =     False
    SCS-CCSD        =     False

MP2 correlation energy -0.4490274987092925
                Solving CC Amplitude Equations
                ------------------------------
  Iter             Energy              RMS        T1Diag      D1Diag    New D1Diag    D2Diag
  ----     ---------------------    ---------   ----------  ----------  ----------   --------
     0        -0.449027498709292    0.000e+00    0.000000    0.000000    0.000000    0.131746
     1        -0.470740855133463    5.590e-02    0.005417    0.012192    0.012192    0.138722
     2        -0.482957133475482    1.833e-02    0.005968    0.013692    0.013692    0.145487
     3        -0.484117108275186    5.041e-03    0.006395    0.014773    0.014773    0.146900
     4        -0.484147534933447    1.337e-03    0.006397    0.014789    0.014789    0.147294
     5        -0.484178548853139    3.499e-04    0.006393    0.014791    0.014791    0.147376
     6        -0.484182576806240    1.082e-04    0.006392    0.014788    0.014788    0.147388
     7        -0.484182187928203    2.405e-05    0.006391    0.014786    0.014786    0.147388
     8        -0.484182555999486    6.535e-06    0.006391    0.014786    0.014786    0.147388
     9        -0.484182620635328    1.951e-06    0.006391    0.014786    0.014786    0.147388
    10        -0.484182571140534    5.398e-07    0.006391    0.014785    0.014785    0.147388
    11        -0.484182584609964    1.584e-07    0.006391    0.014785    0.014785    0.147388
    12        -0.484182582459501    4.225e-08    0.006391    0.014785    0.014785    0.147388
    13        -0.484182583693771    1.362e-08    0.006391    0.014785    0.014785    0.147388

    Iterations converged.


    Largest TIA Amplitudes:
              6  18         0.0103129548
             10  49        -0.0080107394
             11  50         0.0080105397
             10  29         0.0076142978
             11  28        -0.0076141424
              9  34        -0.0063816286
              8  35        -0.0063813501
              6  37        -0.0062573373
              7  52        -0.0044962242
             11   8        -0.0044669529

    Largest TIjAb Amplitudes:
     10  10  19  19        -0.0437749762
     11  11  19  19        -0.0437733536
      9   9  23  23        -0.0188226191
      8   8  24  24        -0.0188197784
      9   9  18  18        -0.0174160135
      8   8  18  18        -0.0174146355
     10  10  19  31        -0.0173064632
     10  10  31  19        -0.0173064632
     11  11  19  31        -0.0172706281
     11  11  31  19        -0.0172706281

    SCF energy       (wfn)                    = -117.069714865584359
    Reference energy (file100)                = -117.069714865586079

    Opposite-spin MP2 correlation energy      =   -0.347415884121044
    Same-spin MP2 correlation energy          =   -0.101611614588249
    MP2 correlation energy                    =   -0.449027498709292
      * MP2 total energy                      = -117.518742364295377

    Opposite-spin CCSD correlation energy     =   -0.390520122412076
    Same-spin CCSD correlation energy         =   -0.093662461281696
    CCSD correlation energy                   =   -0.484182583693771
      * CCSD total energy                     = -117.553897449279845


			**************************
			*                        *
			*         CCHBAR         *
			*                        *
			**************************


			**************************
			*        CCLAMBDA        *
			**************************


	Nuclear Rep. energy (wfn)     =   75.281462451979493
	Reference           (wfn)     =                    0
	SCF energy          (wfn)     = -117.069714865584359
	Reference energy    (CC_INFO) = -117.069714865586079
	CCSD energy         (CC_INFO) =   -0.484182583693771
	Total CCSD energy   (CC_INFO) = -117.553897449279845

	Input parameters:
	-----------------
	Maxiter           =     50
	Convergence       = 1.0e-07
	Restart           =     No
	Cache Level       =     2
	Model III         =     No
	DIIS              =     Yes
	AO Basis          =     No
	ABCD              =     NEW
	Local CC          =     No
	Parameters for left-handed eigenvectors:
	    Irr   Root  Ground-State?    EOM energy        R0
	  1   0     0        Yes       0.0000000000   1.0000000000
	Labels for eigenvector 1:
	LIA 0 -1, Lia 0 -1, LIJAB 0 -1, Lijab 0 -1, LIjAb 0 -1, 2LIjAb - LIjbA 0 -1
	Symmetry of left-hand state: A
	Symmetry of left-hand eigenvector: A

	          Solving Lambda Equations
	          ------------------------
	Iter     PseudoEnergy or Norm         RMS  
	----     ---------------------     --------
	   0        -0.484280546053896    2.969e-08
	   1        -0.472894121327332    1.463e-02
	   2        -0.471306301138504    2.850e-03
	   3        -0.471065499191351    7.932e-04
	   4        -0.471054726640113    2.131e-04
	   5        -0.471059651488411    5.280e-05
	   6        -0.471058600949780    1.605e-05
	   7        -0.471058533818287    5.083e-06
	   8        -0.471058650900613    1.465e-06
	   9        -0.471058638477213    4.849e-07
	  10        -0.471058639528275    1.152e-07
	  11        -0.471058638674929    2.979e-08

	Largest LIA Amplitudes:
	         10  49        -0.0069283612
	         11  50         0.0069281705
	          6  18         0.0067007078
	         10  29         0.0054319635
	         11  28        -0.0054318572
	          6  51         0.0040488938
	          9  34        -0.0040386068
	          8  35        -0.0040382356
	          7  52        -0.0040313633
	          6  37        -0.0039745358

	Largest LIjAb Amplitudes:
	 10  10  19  19        -0.0417219468
	 11  11  19  19        -0.0417203758
	  9   9  23  23        -0.0184130249
	  8   8  24  24        -0.0184102307
	  9   9  18  18        -0.0168412212
	  8   8  18  18        -0.0168398976
	 10  10  19  31        -0.0164983827
	 10  10  31  19        -0.0164983827
	 11  11  19  31        -0.0164639576
	 11  11  31  19        -0.0164639576

	Iterations converged.

	Overlap <L|e^T> =        0.82753302235

			**************************
			*                        *
			*        CCDENSITY       *
			*                        *
			**************************


	Input parameters:
	-----------------
	Wave function    =   CCSD
	Reference wfn    =   RHF
	Dertype          = 1
	Tolerance        = 1.0e-14
	Cache Level      = 2
	AO Basis         = No
	OPDM Only        = No
	Relax OPDM       = Yes
	Compute Xi       = No
	Use Zeta         = No
	Xi connected     = Yes
	Compute NO       = No

	Nuclear Rep. energy (wfn)     =   75.281462451979493
	SCF energy          (wfn)     = -117.069714865584359
	Reference energy    (file100) = -117.069714865586079
	CCSD energy         (CC_INFO) =   -0.484182583693771
	Total CCSD energy   (CC_INFO) = -117.553897449279845
	Number of States = 1

	Ground?  State     EOM Energy       R0
	  Yes     0  A    0.0000000000   1.00000000

	Virial Theorem Data:
	--------------------
	Kinetic energy (ref)   =  116.773768056947517
	Kinetic energy (corr)  =    0.528438050229425
	Kinetic energy (total) =  117.302206107176943
	-V/T (ref)             =    2.002534360358178
	-V/T (corr)            =    1.916252309014387
	-V/T (total)           =    2.002145665886905

	DPD File4 Cache Listing:

Cache Label            DPD File symm  pq  rs  use acc clean    pri lock size(kB)
--------------------------------------------------------------------------------
--------------------------------------------------------------------------------
Total cached:      0.0 kB; MRU =    380; LRU =    280
#LRU deletions =     20; #Low-priority deletions =      0
Core max size:   524288.0 kB
Core used:       344426.3 kB
Core available:  179861.7 kB
Core cached:          0.0 kB
Locked cached:        0.0 kB
Most recent entry  = 380
Least recent entry = 280
dpd_block_matrix: n = 6561  m = 6561
Error in: dpd_block_matrix: No memory left.
