
    -----------------------------------------------------------------------
          Psi4: An Open-Source Ab Initio Electronic Structure Package
                               Psi4 1.3.2 release

                         Git: Rev {HEAD} ecbda83 


    R. M. Parrish, L. A. Burns, D. G. A. Smith, A. C. Simmonett,
    A. E. DePrince III, E. G. Hohenstein, U. Bozkaya, A. Yu. Sokolov,
    R. Di Remigio, R. M. Richard, J. F. Gonthier, A. M. James,
    H. R. McAlexander, A. Kumar, M. Saitow, X. Wang, B. P. Pritchard,
    P. Verma, H. F. Schaefer III, K. Patkowski, R. A. King, E. F. Valeev,
    F. A. Evangelista, J. M. Turney, T. D. Crawford, and C. D. Sherrill,
    J. Chem. Theory Comput. 13(7) pp 3185--3197 (2017).
    (doi: 10.1021/acs.jctc.7b00174)


                         Additional Contributions by
    P. Kraus, H. Kruse, M. H. Lechner, M. C. Schieber, R. A. Shaw,
    A. Alenaizan, R. Galvelis, Z. L. Glick, S. Lehtola, and J. P. Misiewicz

    -----------------------------------------------------------------------


    Psi4 started on: Tuesday, 19 April 2022 01:48AM

    Process ID: 25838
    Host:       atlantis
    PSIDATADIR: /home/akrom/software/anaconda3/envs/ffpenv/share/psi4
    Memory:     500.0 MiB
    Threads:    1
    
  ==> Input File <==

--------------------------------------------------------------------------
set basis  aug-cc-pVTZ
molecule {
0 1
   C       -0.61446        0.00000        0.00000
   C        0.61446        0.00000        0.00000
   H       -1.68923        0.00000        0.00000
   H        1.68923        0.00000        0.00000
}
energy('CCSD')
frequencies('CCSD')
--------------------------------------------------------------------------

*** tstart() called on atlantis
*** at Tue Apr 19 01:48:03 2022

   => Loading Basis Set <=

    Name: AUG-CC-PVTZ
    Role: ORBITAL
    Keyword: BASIS
    atoms 1-2 entry C          line   235 file /home/akrom/software/anaconda3/envs/ffpenv/share/psi4/basis/aug-cc-pvtz.gbs 
    atoms 3-4 entry H          line    36 file /home/akrom/software/anaconda3/envs/ffpenv/share/psi4/basis/aug-cc-pvtz.gbs 


         ---------------------------------------------------------
                                   SCF
               by Justin Turney, Rob Parrish, Andy Simmonett
                          and Daniel G. A. Smith
                              RHF Reference
                        1 Threads,    500 MiB Core
         ---------------------------------------------------------

  ==> Geometry <==

    Molecular point group: d2h
    Full point group: D_inf_h

    Geometry (in Angstrom), charge = 0, multiplicity = 1:

       Center              X                  Y                   Z               Mass       
    ------------   -----------------  -----------------  -----------------  -----------------
         C           -0.614460000000    -0.000000000000     0.000000000000    12.000000000000
         C            0.614460000000     0.000000000000     0.000000000000    12.000000000000
         H           -1.689230000000    -0.000000000000     0.000000000000     1.007825032230
         H            1.689230000000     0.000000000000     0.000000000000     1.007825032230

  Running in d2h symmetry.

  Rotational constants: A = ************  B =      1.13802  C =      1.13802 [cm^-1]
  Rotational constants: A = ************  B =  34116.98697  C =  34116.98697 [MHz]
  Nuclear repulsion =   24.323218171379235

  Charge       = 0
  Multiplicity = 1
  Electrons    = 14
  Nalpha       = 7
  Nbeta        = 7

  ==> Algorithm <==

  SCF Algorithm Type is PK.
  DIIS enabled.
  MOM disabled.
  Fractional occupation disabled.
  Guess Type is SAD.
  Energy threshold   = 1.00e-08
  Density threshold  = 1.00e-08
  Integral threshold = 0.00e+00

  ==> Primary Basis <==

  Basis Set: AUG-CC-PVTZ
    Blend: AUG-CC-PVTZ
    Number of shells: 46
    Number of basis function: 138
    Number of Cartesian functions: 160
    Spherical Harmonics?: true
    Max angular momentum: 3

  ==> Pre-Iterations <==

   -------------------------------------------------------
    Irrep   Nso     Nmo     Nalpha   Nbeta   Ndocc  Nsocc
   -------------------------------------------------------
     Ag        30      30       0       0       0       0
     B1g       16      16       0       0       0       0
     B2g       16      16       0       0       0       0
     B3g        7       7       0       0       0       0
     Au         7       7       0       0       0       0
     B1u       16      16       0       0       0       0
     B2u       16      16       0       0       0       0
     B3u       30      30       0       0       0       0
   -------------------------------------------------------
    Total     138     138       7       7       7       0
   -------------------------------------------------------

  ==> Integral Setup <==

  Using integral reordering PK algorithm.
  Sizing the integral batches needed.
  Building batch lookup table.
   Calculation information:
      Number of atoms:                   4
      Number of AO shells:              46
      Number of primitives:             82
      Number of atomic orbitals:       160
      Number of basis functions:       138

      Integral cutoff                 1.00e-12
      Number of threads:                 1

	Batch   1 pq = [       0,    9591] index = [             0,45998436] size =     45998436
  Task number: 5
  Buffer size: 11059200
  Buffer per thread: 2
  We computed 698868 shell quartets total.
  Whereas there are 584821 unique shell quartets.
    19.50 percent of shell quartets recomputed by reordering.

  ==> DiskJK: Disk-Based J/K Matrices <==

    J tasked:                  Yes
    K tasked:                  Yes
    wK tasked:                  No
    Memory [MiB]:              375
    Schwarz Cutoff:          1E-12

    OpenMP threads:              1

  Minimum eigenvalue in the overlap matrix is 9.1550632594E-06.
  Using Symmetric Orthogonalization.

  SCF Guess: Superposition of Atomic Densities via on-the-fly atomic UHF.

  ==> Iterations <==

                        Total Energy        Delta E     RMS |[F,P]|

   @RHF iter SAD:   -75.85138269794760   -7.58514e+01   0.00000e+00 
   @RHF iter   1:   -76.79964260056444   -9.48260e-01   5.54418e-03 DIIS
   @RHF iter   2:   -76.84020751423645   -4.05649e-02   1.94791e-03 DIIS
   @RHF iter   3:   -76.84565384205304   -5.44633e-03   2.24747e-04 DIIS
   @RHF iter   4:   -76.84580852887402   -1.54687e-04   2.52742e-05 DIIS
   @RHF iter   5:   -76.84581067409064   -2.14522e-06   4.07739e-06 DIIS
   @RHF iter   6:   -76.84581073033169   -5.62410e-08   7.37024e-07 DIIS
   @RHF iter   7:   -76.84581073237220   -2.04051e-09   1.26352e-07 DIIS
   @RHF iter   8:   -76.84581073244706   -7.48628e-11   1.27028e-08 DIIS
   @RHF iter   9:   -76.84581073244783   -7.67386e-13   1.44679e-09 DIIS
  Energy and wave function converged.


  ==> Post-Iterations <==

    Orbital Energies [Eh]
    ---------------------

    Doubly Occupied:                                                      

       1Ag   -11.253534     1B3u  -11.250282     2Ag    -1.022810  
       2B3u   -0.767052     3Ag    -0.676897     1B1u   -0.405333  
       1B2u   -0.405333  

    Virtual:                                                              

       4Ag     0.030954     3B3u    0.032442     1B1g    0.091836  
       1B2g    0.091836     2B1u    0.096396     2B2u    0.096396  
       5Ag     0.107476     4B3u    0.110720     6Ag     0.143085  
       2B1g    0.185711     2B2g    0.185711     5B3u    0.225356  
       6B3u    0.256540     3B1u    0.275639     3B2u    0.275639  
       7Ag     0.280938     1B3g    0.300217     8Ag     0.300217  
       9Ag     0.377074     3B1g    0.384507     3B2g    0.384507  
       1Au     0.399531     7B3u    0.399531    10Ag     0.412638  
       8B3u    0.412957     4B2g    0.423815     4B1g    0.423815  
       4B1u    0.492963     4B2u    0.492963     9B3u    0.509798  
      10B3u    0.586121     5B1u    0.598072     5B2u    0.598072  
      11Ag     0.658607     5B2g    0.842484     5B1g    0.842484  
      12Ag     0.886597     2B3g    0.893139    13Ag     0.893139  
      11B3u    0.899838     6B1u    0.933671     6B2u    0.933671  
      14Ag     0.981449     3B3g    1.006187    15Ag     1.006187  
      12B3u    1.024644     2Au     1.024644     6B2g    1.026935  
       6B1g    1.026935    13B3u    1.028799     7B2u    1.051667  
       7B1u    1.051667    16Ag     1.137342     8B1u    1.175747  
       8B2u    1.175747     3Au     1.193873    14B3u    1.193873  
      15B3u    1.199049     7B2g    1.293777     7B1g    1.293777  
      16B3u    1.347749     8B2g    1.387516     8B1g    1.387516  
       9B1u    1.574325     9B2u    1.574325     4B3g    1.626551  
      17Ag     1.626551     9B2g    1.763325     9B1g    1.763325  
      18Ag     1.776253    10B1u    1.899605    10B2u    1.899605  
      17B3u    1.931317     4Au     2.018911    18B3u    2.018911  
      19Ag     2.022118    19B3u    2.147013    20Ag     2.206153  
      10B2g    2.343991    10B1g    2.343991    20B3u    2.789144  
      11B1u    2.803788    11B2u    2.803788    21Ag     3.005476  
      21B3u    3.087826     5B3g    3.176078    22Ag     3.176078  
      11B2g    3.193668    11B1g    3.193668    12B1u    3.312040  
      12B2u    3.312040    13B2u    3.366559    13B1u    3.366559  
      22B3u    3.444880     5Au     3.444880     6B3g    3.563723  
      23Ag     3.563723    24Ag     3.593427    12B1g    3.685269  
      12B2g    3.685269    25Ag     3.718401    14B1u    3.780452  
      14B2u    3.780452    13B2g    3.855149    13B1g    3.855149  
      23B3u    3.870362    24B3u    4.084201     6Au     4.084201  
       7B3g    4.145048    26Ag     4.145048    25B3u    4.315062  
      26B3u    4.630587     7Au     4.630587    27Ag     4.636859  
      15B1u    4.746465    15B2u    4.746465    14B2g    4.757308  
      14B1g    4.757308    15B2g    4.978972    15B1g    4.978972  
      27B3u    5.255230    28Ag     5.371249    16B1u    5.766486  
      16B2u    5.766486    28B3u    6.162120    29B3u    6.686031  
      16B2g    6.726699    16B1g    6.726699    29Ag     6.893875  
      30Ag    13.445726    30B3u   18.918803  

    Final Occupation by Irrep:
             Ag   B1g   B2g   B3g    Au   B1u   B2u   B3u 
    DOCC [     3,    0,    0,    0,    0,    1,    1,    2 ]

  @RHF Final Energy:   -76.84581073244783

   => Energetics <=

    Nuclear Repulsion Energy =             24.3232181713792350
    One-Electron Energy =                -150.7755751133857416
    Two-Electron Energy =                  49.6065462095586724
    Total Energy =                        -76.8458107324478306

Computation Completed


Properties will be evaluated at   0.000000,   0.000000,   0.000000 [a0]

Properties computed using the SCF density matrix

  Nuclear Dipole Moment: [e a0]
     X:     0.0000      Y:     0.0000      Z:     0.0000

  Electronic Dipole Moment: [e a0]
     X:     0.0000      Y:     0.0000      Z:     0.0000

  Dipole Moment: [e a0]
     X:     0.0000      Y:     0.0000      Z:     0.0000     Total:     0.0000

  Dipole Moment: [D]
     X:     0.0000      Y:     0.0000      Z:     0.0000     Total:     0.0000


*** tstop() called on atlantis at Tue Apr 19 01:48:09 2022
Module time:
	user time   =       3.84 seconds =       0.06 minutes
	system time =       2.84 seconds =       0.05 minutes
	total time  =          6 seconds =       0.10 minutes
Total time:
	user time   =       3.84 seconds =       0.06 minutes
	system time =       2.84 seconds =       0.05 minutes
	total time  =          6 seconds =       0.10 minutes
 MINTS: Wrapper to libmints.
   by Justin Turney

   Calculation information:
      Number of threads:                 1
      Number of atoms:                   4
      Number of AO shells:              46
      Number of SO shells:              23
      Number of primitives:             82
      Number of atomic orbitals:       160
      Number of basis functions:       138

      Number of irreps:                  8
      Integral cutoff                 0.00e+00
      Number of functions per irrep: [  30   16   16    7    7   16   16   30 ]

 OEINTS: Overlap, kinetic, potential, dipole, and quadrupole integrals
         stored in file 35.

      Computing two-electron integrals...done
      Computed 5914842 non-zero two-electron integrals.
        Stored in file 33.


*** tstart() called on atlantis
*** at Tue Apr 19 01:48:11 2022


	Wfn Parameters:
	--------------------
	Wavefunction         = CCSD
	Number of irreps     = 8
	Number of MOs        = 138
	Number of active MOs = 138
	AO-Basis             = NONE
	Semicanonical        = false
	Reference            = RHF
	Print Level          = 1

	IRREP	# MOs	# FZDC	# DOCC	# SOCC	# VIRT	# FZVR
	-----	-----	------	------	------	------	------
	 Ag	   30	    0	    3	    0	    27	    0
	 B1g	   16	    0	    0	    0	    16	    0
	 B2g	   16	    0	    0	    0	    16	    0
	 B3g	   7	    0	    0	    0	    7	    0
	 Au	   7	    0	    0	    0	    7	    0
	 B1u	   16	    0	    1	    0	    15	    0
	 B2u	   16	    0	    1	    0	    15	    0
	 B3u	   30	    0	    2	    0	    28	    0
	Transforming integrals...
	IWL integrals will be deleted.
	(OO|OO)...
	Presorting SO-basis two-electron integrals.
	Sorting File: SO Ints (nn|nn) nbuckets = 1
	Transforming the one-electron integrals and constructing Fock matrices
	Starting first half-transformation.
	Sorting half-transformed integrals.
	First half integral transformation complete.
	Starting second half-transformation.
	Two-electron integral transformation complete.
	(OO|OV)...
	Starting second half-transformation.
	Two-electron integral transformation complete.
	(OO|VV)...
	Starting second half-transformation.
	Two-electron integral transformation complete.
	(OV|OO)...
	Starting first half-transformation.
	Sorting half-transformed integrals.
	First half integral transformation complete.
	Starting second half-transformation.
	Two-electron integral transformation complete.
	(OV|OV)...
	Starting second half-transformation.
	Two-electron integral transformation complete.
	(OV|VV)...
	Starting second half-transformation.
	Two-electron integral transformation complete.
	(VV|OO)...
	Starting first half-transformation.
	Sorting half-transformed integrals.
	First half integral transformation complete.
	Starting second half-transformation.
	Two-electron integral transformation complete.
	(VV|OV)...
	Starting second half-transformation.
	Two-electron integral transformation complete.
	(VV|VV)...
	Starting second half-transformation.
	Two-electron integral transformation complete.
	Frozen core energy     =      0.00000000000000

	Size of irrep 0 of <ab|cd> integrals:      6.620 (MW) /     52.963 (MB)
	Size of irrep 1 of <ab|cd> integrals:      4.571 (MW) /     36.568 (MB)
	Size of irrep 2 of <ab|cd> integrals:      4.571 (MW) /     36.568 (MB)
	Size of irrep 3 of <ab|cd> integrals:      3.000 (MW) /     23.999 (MB)
	Size of irrep 4 of <ab|cd> integrals:      2.993 (MW) /     23.943 (MB)
	Size of irrep 5 of <ab|cd> integrals:      4.580 (MW) /     36.637 (MB)
	Size of irrep 6 of <ab|cd> integrals:      4.580 (MW) /     36.637 (MB)
	Size of irrep 7 of <ab|cd> integrals:      6.605 (MW) /     52.839 (MB)
	Total:                                    37.519 (MW) /    300.154 (MB)

	Size of irrep 0 of <ia|bc> integrals:      0.430 (MW) /      3.438 (MB)
	Size of irrep 1 of <ia|bc> integrals:      0.242 (MW) /      1.933 (MB)
	Size of irrep 2 of <ia|bc> integrals:      0.242 (MW) /      1.933 (MB)
	Size of irrep 3 of <ia|bc> integrals:      0.113 (MW) /      0.901 (MB)
	Size of irrep 4 of <ia|bc> integrals:      0.116 (MW) /      0.927 (MB)
	Size of irrep 5 of <ia|bc> integrals:      0.238 (MW) /      1.900 (MB)
	Size of irrep 6 of <ia|bc> integrals:      0.238 (MW) /      1.900 (MB)
	Size of irrep 7 of <ia|bc> integrals:      0.437 (MW) /      3.495 (MB)
	Total:                                     2.053 (MW) /     16.427 (MB)

	Size of irrep 0 of tijab amplitudes:       0.039 (MW) /      0.309 (MB)
	Size of irrep 1 of tijab amplitudes:       0.009 (MW) /      0.068 (MB)
	Size of irrep 2 of tijab amplitudes:       0.009 (MW) /      0.068 (MB)
	Size of irrep 3 of tijab amplitudes:       0.003 (MW) /      0.028 (MB)
	Size of irrep 4 of tijab amplitudes:       0.000 (MW) /      0.000 (MB)
	Size of irrep 5 of tijab amplitudes:       0.013 (MW) /      0.103 (MB)
	Size of irrep 6 of tijab amplitudes:       0.013 (MW) /      0.103 (MB)
	Size of irrep 7 of tijab amplitudes:       0.031 (MW) /      0.247 (MB)
	Total:                                     0.116 (MW) /      0.925 (MB)

	Nuclear Rep. energy          =     24.32321817137924
	SCF energy                   =    -76.84581073244783
	One-electron energy          =   -150.77557529494032
	Two-electron energy          =     49.60654639111315
	Reference energy             =    -76.84581073244794

*** tstop() called on atlantis at Tue Apr 19 01:48:15 2022
Module time:
	user time   =       2.68 seconds =       0.04 minutes
	system time =       1.13 seconds =       0.02 minutes
	total time  =          4 seconds =       0.07 minutes
Total time:
	user time   =       8.07 seconds =       0.13 minutes
	system time =       4.02 seconds =       0.07 minutes
	total time  =         12 seconds =       0.20 minutes
            **************************
            *                        *
            *        CCENERGY        *
            *                        *
            **************************

    Nuclear Rep. energy (wfn)     =   24.323218171379235
    SCF energy          (wfn)     =  -76.845810732447831
    Reference energy    (file100) =  -76.845810732447944

    Input parameters:
    -----------------
    Wave function   =     CCSD
    Reference wfn   =     RHF
    Brueckner       =     No
    Memory (Mbytes) =     524.3
    Maxiter         =     50
    R_Convergence   =     1.0e-07
    E_Convergence   =     1.0e-06
    Restart         =     Yes
    DIIS            =     Yes
    AO Basis        =     NONE
    ABCD            =     NEW
    Cache Level     =     2
    Cache Type      =     LOW
    Print Level     =     1
    Num. of threads =     1
    # Amps to Print =     10
    Print MP2 Amps? =     No
    Analyze T2 Amps =     No
    Print Pair Ener =     No
    Local CC        =     No
    SCS-MP2         =     False
    SCSN-MP2        =     False
    SCS-CCSD        =     False

MP2 correlation energy -0.3510500357915088
                Solving CC Amplitude Equations
                ------------------------------
  Iter             Energy              RMS        T1Diag      D1Diag    New D1Diag    D2Diag
  ----     ---------------------    ---------   ----------  ----------  ----------   --------
     0        -0.351050035791509    0.000e+00    0.000000    0.000000    0.000000    0.169119
     1        -0.349412250517034    5.729e-02    0.010080    0.025439    0.025439    0.166787
     2        -0.359709516183582    2.368e-02    0.010056    0.025437    0.025437    0.177366
     3        -0.362331748936961    1.020e-02    0.011732    0.029816    0.029816    0.183571
     4        -0.362512663353883    3.034e-03    0.011839    0.030123    0.030123    0.185513
     5        -0.362599219380197    8.121e-04    0.011863    0.030200    0.030200    0.186039
     6        -0.362607440698624    2.078e-04    0.011844    0.030153    0.030153    0.186092
     7        -0.362609106104355    4.687e-05    0.011839    0.030143    0.030143    0.186102
     8        -0.362609868014043    1.436e-05    0.011838    0.030141    0.030141    0.186106
     9        -0.362609838768722    3.573e-06    0.011838    0.030140    0.030140    0.186106
    10        -0.362609795898496    9.128e-07    0.011838    0.030140    0.030140    0.186106
    11        -0.362609834948266    2.828e-07    0.011838    0.030140    0.030140    0.186106
    12        -0.362609833111963    7.030e-08    0.011838    0.030140    0.030140    0.186106

    Iterations converged.


    Largest TIA Amplitudes:
              3  75         0.0197428667
              4  90         0.0197428667
              3  73         0.0121383885
              4  88         0.0121383885
              3  79         0.0114124339
              4  94         0.0114124339
              3  77         0.0096156860
              4  92         0.0096156860
              3  81         0.0078949277
              4  96         0.0078949277

    Largest TIjAb Amplitudes:
      3   3  44  44        -0.0668744127
      4   4  28  28        -0.0668744127
      3   4  44  28        -0.0415149323
      4   3  28  44        -0.0415149323
      3   3  44  46        -0.0349229018
      3   3  46  44        -0.0349229018
      4   4  28  30        -0.0349229018
      4   4  30  28        -0.0349229018
      3   3  43  44        -0.0312276771
      3   3  44  43        -0.0312276771

    SCF energy       (wfn)                    =  -76.845810732447831
    Reference energy (file100)                =  -76.845810732447944

    Opposite-spin MP2 correlation energy      =   -0.273019919111787
    Same-spin MP2 correlation energy          =   -0.078030116679722
    MP2 correlation energy                    =   -0.351050035791509
      * MP2 total energy                      =  -77.196860768239446

    Opposite-spin CCSD correlation energy     =   -0.295346061014685
    Same-spin CCSD correlation energy         =   -0.067263772097280
    CCSD correlation energy                   =   -0.362609833111963
      * CCSD total energy                     =  -77.208420565559905

gradient() will perform analytic gradient computation.

*** tstart() called on atlantis
*** at Tue Apr 19 01:48:16 2022

   => Loading Basis Set <=

    Name: AUG-CC-PVTZ
    Role: ORBITAL
    Keyword: BASIS
    atoms 1-2 entry C          line   235 file /home/akrom/software/anaconda3/envs/ffpenv/share/psi4/basis/aug-cc-pvtz.gbs 
    atoms 3-4 entry H          line    36 file /home/akrom/software/anaconda3/envs/ffpenv/share/psi4/basis/aug-cc-pvtz.gbs 


         ---------------------------------------------------------
                                   SCF
               by Justin Turney, Rob Parrish, Andy Simmonett
                          and Daniel G. A. Smith
                              RHF Reference
                        1 Threads,    500 MiB Core
         ---------------------------------------------------------

  ==> Geometry <==

    Molecular point group: d2h
    Full point group: D_inf_h

    Geometry (in Angstrom), charge = 0, multiplicity = 1:

       Center              X                  Y                   Z               Mass       
    ------------   -----------------  -----------------  -----------------  -----------------
         C           -0.614460000000    -0.000000000000     0.000000000000    12.000000000000
         C            0.614460000000     0.000000000000     0.000000000000    12.000000000000
         H           -1.689230000000    -0.000000000000     0.000000000000     1.007825032230
         H            1.689230000000     0.000000000000     0.000000000000     1.007825032230

  Running in d2h symmetry.

  Rotational constants: A = ************  B =      1.13802  C =      1.13802 [cm^-1]
  Rotational constants: A = ************  B =  34116.98697  C =  34116.98697 [MHz]
  Nuclear repulsion =   24.323218171379235

  Charge       = 0
  Multiplicity = 1
  Electrons    = 14
  Nalpha       = 7
  Nbeta        = 7

  ==> Algorithm <==

  SCF Algorithm Type is PK.
  DIIS enabled.
  MOM disabled.
  Fractional occupation disabled.
  Guess Type is SAD.
  Energy threshold   = 1.00e-10
  Density threshold  = 1.00e-10
  Integral threshold = 0.00e+00

  ==> Primary Basis <==

  Basis Set: AUG-CC-PVTZ
    Blend: AUG-CC-PVTZ
    Number of shells: 46
    Number of basis function: 138
    Number of Cartesian functions: 160
    Spherical Harmonics?: true
    Max angular momentum: 3

  ==> Pre-Iterations <==

   -------------------------------------------------------
    Irrep   Nso     Nmo     Nalpha   Nbeta   Ndocc  Nsocc
   -------------------------------------------------------
     Ag        30      30       0       0       0       0
     B1g       16      16       0       0       0       0
     B2g       16      16       0       0       0       0
     B3g        7       7       0       0       0       0
     Au         7       7       0       0       0       0
     B1u       16      16       0       0       0       0
     B2u       16      16       0       0       0       0
     B3u       30      30       0       0       0       0
   -------------------------------------------------------
    Total     138     138       7       7       7       0
   -------------------------------------------------------

  ==> Integral Setup <==

  Using integral reordering PK algorithm.
  Sizing the integral batches needed.
  Building batch lookup table.
   Calculation information:
      Number of atoms:                   4
      Number of AO shells:              46
      Number of primitives:             82
      Number of atomic orbitals:       160
      Number of basis functions:       138

      Integral cutoff                 1.00e-12
      Number of threads:                 1

	Batch   1 pq = [       0,    9591] index = [             0,45998436] size =     45998436
  Task number: 5
  Buffer size: 11059200
  Buffer per thread: 2
  We computed 698868 shell quartets total.
  Whereas there are 584821 unique shell quartets.
    19.50 percent of shell quartets recomputed by reordering.

  ==> DiskJK: Disk-Based J/K Matrices <==

    J tasked:                  Yes
    K tasked:                  Yes
    wK tasked:                  No
    Memory [MiB]:              375
    Schwarz Cutoff:          1E-12

    OpenMP threads:              1

  Minimum eigenvalue in the overlap matrix is 9.1550632594E-06.
  Using Symmetric Orthogonalization.

  SCF Guess: Superposition of Atomic Densities via on-the-fly atomic UHF.

  ==> Iterations <==

                        Total Energy        Delta E     RMS |[F,P]|

   @RHF iter SAD:   -75.85138269794760   -7.58514e+01   0.00000e+00 
   @RHF iter   1:   -76.79964260056444   -9.48260e-01   5.54418e-03 DIIS
   @RHF iter   2:   -76.84020751423645   -4.05649e-02   1.94791e-03 DIIS
   @RHF iter   3:   -76.84565384205304   -5.44633e-03   2.24747e-04 DIIS
   @RHF iter   4:   -76.84580852887402   -1.54687e-04   2.52742e-05 DIIS
   @RHF iter   5:   -76.84581067409064   -2.14522e-06   4.07739e-06 DIIS
   @RHF iter   6:   -76.84581073033169   -5.62410e-08   7.37024e-07 DIIS
   @RHF iter   7:   -76.84581073237220   -2.04051e-09   1.26352e-07 DIIS
   @RHF iter   8:   -76.84581073244706   -7.48628e-11   1.27028e-08 DIIS
   @RHF iter   9:   -76.84581073244783   -7.67386e-13   1.44679e-09 DIIS
   @RHF iter  10:   -76.84581073244800   -1.70530e-13   2.09504e-10 DIIS
   @RHF iter  11:   -76.84581073244775    2.55795e-13   1.32252e-11 DIIS
  Energy and wave function converged.


  ==> Post-Iterations <==

    Orbital Energies [Eh]
    ---------------------

    Doubly Occupied:                                                      

       1Ag   -11.253534     1B3u  -11.250282     2Ag    -1.022810  
       2B3u   -0.767052     3Ag    -0.676897     1B2u   -0.405333  
       1B1u   -0.405333  

    Virtual:                                                              

       4Ag     0.030954     3B3u    0.032442     1B2g    0.091836  
       1B1g    0.091836     2B1u    0.096396     2B2u    0.096396  
       5Ag     0.107476     4B3u    0.110720     6Ag     0.143085  
       2B2g    0.185711     2B1g    0.185711     5B3u    0.225356  
       6B3u    0.256540     3B2u    0.275639     3B1u    0.275639  
       7Ag     0.280938     1B3g    0.300217     8Ag     0.300217  
       9Ag     0.377074     3B1g    0.384507     3B2g    0.384507  
       7B3u    0.399531     1Au     0.399531    10Ag     0.412638  
       8B3u    0.412957     4B1g    0.423815     4B2g    0.423815  
       4B1u    0.492963     4B2u    0.492963     9B3u    0.509798  
      10B3u    0.586121     5B2u    0.598072     5B1u    0.598072  
      11Ag     0.658607     5B1g    0.842484     5B2g    0.842484  
      12Ag     0.886597     2B3g    0.893139    13Ag     0.893139  
      11B3u    0.899838     6B2u    0.933671     6B1u    0.933671  
      14Ag     0.981449    15Ag     1.006187     3B3g    1.006187  
      12B3u    1.024644     2Au     1.024644     6B1g    1.026935  
       6B2g    1.026935    13B3u    1.028799     7B1u    1.051667  
       7B2u    1.051667    16Ag     1.137342     8B2u    1.175747  
       8B1u    1.175747     3Au     1.193873    14B3u    1.193873  
      15B3u    1.199049     7B2g    1.293777     7B1g    1.293777  
      16B3u    1.347749     8B1g    1.387516     8B2g    1.387516  
       9B2u    1.574325     9B1u    1.574325     4B3g    1.626551  
      17Ag     1.626551     9B1g    1.763325     9B2g    1.763325  
      18Ag     1.776253    10B1u    1.899605    10B2u    1.899605  
      17B3u    1.931317     4Au     2.018911    18B3u    2.018911  
      19Ag     2.022118    19B3u    2.147013    20Ag     2.206153  
      10B2g    2.343991    10B1g    2.343991    20B3u    2.789144  
      11B2u    2.803788    11B1u    2.803788    21Ag     3.005476  
      21B3u    3.087826     5B3g    3.176078    22Ag     3.176078  
      11B2g    3.193668    11B1g    3.193668    12B1u    3.312040  
      12B2u    3.312040    13B2u    3.366559    13B1u    3.366559  
      22B3u    3.444880     5Au     3.444880     6B3g    3.563723  
      23Ag     3.563723    24Ag     3.593427    12B2g    3.685269  
      12B1g    3.685269    25Ag     3.718401    14B1u    3.780452  
      14B2u    3.780452    13B1g    3.855149    13B2g    3.855149  
      23B3u    3.870362    24B3u    4.084201     6Au     4.084201  
       7B3g    4.145048    26Ag     4.145048    25B3u    4.315062  
      26B3u    4.630587     7Au     4.630587    27Ag     4.636859  
      15B2u    4.746465    15B1u    4.746465    14B1g    4.757308  
      14B2g    4.757308    15B1g    4.978972    15B2g    4.978972  
      27B3u    5.255230    28Ag     5.371249    16B1u    5.766486  
      16B2u    5.766486    28B3u    6.162120    29B3u    6.686031  
      16B1g    6.726699    16B2g    6.726699    29Ag     6.893875  
      30Ag    13.445726    30B3u   18.918803  

    Final Occupation by Irrep:
             Ag   B1g   B2g   B3g    Au   B1u   B2u   B3u 
    DOCC [     3,    0,    0,    0,    0,    1,    1,    2 ]

  @RHF Final Energy:   -76.84581073244775

   => Energetics <=

    Nuclear Repulsion Energy =             24.3232181713792350
    One-Electron Energy =                -150.7755752754650587
    Two-Electron Energy =                  49.6065463716380748
    Total Energy =                        -76.8458107324477453

Computation Completed


Properties will be evaluated at   0.000000,   0.000000,   0.000000 [a0]

Properties computed using the SCF density matrix

  Nuclear Dipole Moment: [e a0]
     X:     0.0000      Y:     0.0000      Z:     0.0000

  Electronic Dipole Moment: [e a0]
     X:     0.0000      Y:     0.0000      Z:     0.0000

  Dipole Moment: [e a0]
     X:     0.0000      Y:     0.0000      Z:     0.0000     Total:     0.0000

  Dipole Moment: [D]
     X:     0.0000      Y:     0.0000      Z:     0.0000     Total:     0.0000


*** tstop() called on atlantis at Tue Apr 19 01:48:23 2022
Module time:
	user time   =       3.95 seconds =       0.07 minutes
	system time =       3.18 seconds =       0.05 minutes
	total time  =          7 seconds =       0.12 minutes
Total time:
	user time   =      12.64 seconds =       0.21 minutes
	system time =       7.81 seconds =       0.13 minutes
	total time  =         20 seconds =       0.33 minutes
 MINTS: Wrapper to libmints.
   by Justin Turney

   Calculation information:
      Number of threads:                 1
      Number of atoms:                   4
      Number of AO shells:              46
      Number of SO shells:              23
      Number of primitives:             82
      Number of atomic orbitals:       160
      Number of basis functions:       138

      Number of irreps:                  8
      Integral cutoff                 0.00e+00
      Number of functions per irrep: [  30   16   16    7    7   16   16   30 ]

 OEINTS: Overlap, kinetic, potential, dipole, and quadrupole integrals
         stored in file 35.

      Computing two-electron integrals...done
      Computed 5914842 non-zero two-electron integrals.
        Stored in file 33.


*** tstart() called on atlantis
*** at Tue Apr 19 01:48:24 2022


	Wfn Parameters:
	--------------------
	Wavefunction         = CCSD
	Number of irreps     = 8
	Number of MOs        = 138
	Number of active MOs = 138
	AO-Basis             = NONE
	Semicanonical        = false
	Reference            = RHF
	Print Level          = 1

	IRREP	# MOs	# FZDC	# DOCC	# SOCC	# VIRT	# FZVR
	-----	-----	------	------	------	------	------
	 Ag	   30	    0	    3	    0	    27	    0
	 B1g	   16	    0	    0	    0	    16	    0
	 B2g	   16	    0	    0	    0	    16	    0
	 B3g	   7	    0	    0	    0	    7	    0
	 Au	   7	    0	    0	    0	    7	    0
	 B1u	   16	    0	    1	    0	    15	    0
	 B2u	   16	    0	    1	    0	    15	    0
	 B3u	   30	    0	    2	    0	    28	    0
	Transforming integrals...
	IWL integrals will be deleted.
	(OO|OO)...
	Presorting SO-basis two-electron integrals.
	Sorting File: SO Ints (nn|nn) nbuckets = 1
	Transforming the one-electron integrals and constructing Fock matrices
	Starting first half-transformation.
	Sorting half-transformed integrals.
	First half integral transformation complete.
	Starting second half-transformation.
	Two-electron integral transformation complete.
	(OO|OV)...
	Starting second half-transformation.
	Two-electron integral transformation complete.
	(OO|VV)...
	Starting second half-transformation.
	Two-electron integral transformation complete.
	(OV|OO)...
	Starting first half-transformation.
	Sorting half-transformed integrals.
	First half integral transformation complete.
	Starting second half-transformation.
	Two-electron integral transformation complete.
	(OV|OV)...
	Starting second half-transformation.
	Two-electron integral transformation complete.
	(OV|VV)...
	Starting second half-transformation.
	Two-electron integral transformation complete.
	(VV|OO)...
	Starting first half-transformation.
	Sorting half-transformed integrals.
	First half integral transformation complete.
	Starting second half-transformation.
	Two-electron integral transformation complete.
	(VV|OV)...
	Starting second half-transformation.
	Two-electron integral transformation complete.
	(VV|VV)...
	Starting second half-transformation.
	Two-electron integral transformation complete.
	Frozen core energy     =      0.00000000000000

	Size of irrep 0 of <ab|cd> integrals:      6.620 (MW) /     52.963 (MB)
	Size of irrep 1 of <ab|cd> integrals:      4.571 (MW) /     36.568 (MB)
	Size of irrep 2 of <ab|cd> integrals:      4.571 (MW) /     36.568 (MB)
	Size of irrep 3 of <ab|cd> integrals:      3.000 (MW) /     23.999 (MB)
	Size of irrep 4 of <ab|cd> integrals:      2.993 (MW) /     23.943 (MB)
	Size of irrep 5 of <ab|cd> integrals:      4.580 (MW) /     36.637 (MB)
	Size of irrep 6 of <ab|cd> integrals:      4.580 (MW) /     36.637 (MB)
	Size of irrep 7 of <ab|cd> integrals:      6.605 (MW) /     52.839 (MB)
	Total:                                    37.519 (MW) /    300.154 (MB)

	Size of irrep 0 of <ia|bc> integrals:      0.430 (MW) /      3.438 (MB)
	Size of irrep 1 of <ia|bc> integrals:      0.242 (MW) /      1.933 (MB)
	Size of irrep 2 of <ia|bc> integrals:      0.242 (MW) /      1.933 (MB)
	Size of irrep 3 of <ia|bc> integrals:      0.113 (MW) /      0.901 (MB)
	Size of irrep 4 of <ia|bc> integrals:      0.116 (MW) /      0.927 (MB)
	Size of irrep 5 of <ia|bc> integrals:      0.238 (MW) /      1.900 (MB)
	Size of irrep 6 of <ia|bc> integrals:      0.238 (MW) /      1.900 (MB)
	Size of irrep 7 of <ia|bc> integrals:      0.437 (MW) /      3.495 (MB)
	Total:                                     2.053 (MW) /     16.427 (MB)

	Size of irrep 0 of tijab amplitudes:       0.039 (MW) /      0.309 (MB)
	Size of irrep 1 of tijab amplitudes:       0.009 (MW) /      0.068 (MB)
	Size of irrep 2 of tijab amplitudes:       0.009 (MW) /      0.068 (MB)
	Size of irrep 3 of tijab amplitudes:       0.003 (MW) /      0.028 (MB)
	Size of irrep 4 of tijab amplitudes:       0.000 (MW) /      0.000 (MB)
	Size of irrep 5 of tijab amplitudes:       0.013 (MW) /      0.103 (MB)
	Size of irrep 6 of tijab amplitudes:       0.013 (MW) /      0.103 (MB)
	Size of irrep 7 of tijab amplitudes:       0.031 (MW) /      0.247 (MB)
	Total:                                     0.116 (MW) /      0.925 (MB)

	Nuclear Rep. energy          =     24.32321817137924
	SCF energy                   =    -76.84581073244775
	One-electron energy          =   -150.77557527488784
	Two-electron energy          =     49.60654637106080
	Reference energy             =    -76.84581073244780

*** tstop() called on atlantis at Tue Apr 19 01:48:28 2022
Module time:
	user time   =       2.56 seconds =       0.04 minutes
	system time =       1.14 seconds =       0.02 minutes
	total time  =          4 seconds =       0.07 minutes
Total time:
	user time   =      16.82 seconds =       0.28 minutes
	system time =       8.97 seconds =       0.15 minutes
	total time  =         25 seconds =       0.42 minutes
            **************************
            *                        *
            *        CCENERGY        *
            *                        *
            **************************

    Nuclear Rep. energy (wfn)     =   24.323218171379235
    SCF energy          (wfn)     =  -76.845810732447745
    Reference energy    (file100) =  -76.845810732447802

    Input parameters:
    -----------------
    Wave function   =     CCSD
    Reference wfn   =     RHF
    Brueckner       =     No
    Memory (Mbytes) =     524.3
    Maxiter         =     50
    R_Convergence   =     1.0e-07
    E_Convergence   =     1.0e-08
    Restart         =     Yes
    DIIS            =     Yes
    AO Basis        =     NONE
    ABCD            =     NEW
    Cache Level     =     2
    Cache Type      =     LOW
    Print Level     =     1
    Num. of threads =     1
    # Amps to Print =     10
    Print MP2 Amps? =     No
    Analyze T2 Amps =     No
    Print Pair Ener =     No
    Local CC        =     No
    SCS-MP2         =     False
    SCSN-MP2        =     False
    SCS-CCSD        =     False

    Using old T1 amplitudes.
    Using old T2 amplitudes.

MP2 correlation energy -0.3510500355847064
                Solving CC Amplitude Equations
                ------------------------------
  Iter             Energy              RMS        T1Diag      D1Diag    New D1Diag    D2Diag
  ----     ---------------------    ---------   ----------  ----------  ----------   --------
     0        -0.362609832730737    0.000e+00    0.011838    0.030140    0.030140    0.186106
     1        -0.362609835645962    3.057e-08    0.011838    0.030140    0.030140    0.186106
     2        -0.362609835033043    1.412e-08    0.011838    0.030140    0.030140    0.186106

    Iterations converged.


    Largest TIA Amplitudes:
              3  75         0.0197428656
              4  90         0.0197428656
              3  73         0.0121383834
              4  88         0.0121383834
              3  79         0.0114124341
              4  94         0.0114124341
              3  77         0.0096156870
              4  92         0.0096156870
              3  81         0.0078949271
              4  96         0.0078949271

    Largest TIjAb Amplitudes:
      3   3  44  44        -0.0668744145
      4   4  28  28        -0.0668744145
      3   4  44  28        -0.0415149322
      4   3  28  44        -0.0415149322
      3   3  44  46        -0.0349229030
      3   3  46  44        -0.0349229030
      4   4  28  30        -0.0349229030
      4   4  30  28        -0.0349229030
      3   3  43  44        -0.0312276777
      3   3  44  43        -0.0312276777

    SCF energy       (wfn)                    =  -76.845810732447745
    Reference energy (file100)                =  -76.845810732447802

    Opposite-spin MP2 correlation energy      =   -0.273019919015624
    Same-spin MP2 correlation energy          =   -0.078030116569083
    MP2 correlation energy                    =   -0.351050035584706
      * MP2 total energy                      =  -77.196860768032508

    Opposite-spin CCSD correlation energy     =   -0.295346061419130
    Same-spin CCSD correlation energy         =   -0.067263773613911
    CCSD correlation energy                   =   -0.362609835033043
      * CCSD total energy                     =  -77.208420567480843


			**************************
			*                        *
			*         CCHBAR         *
			*                        *
			**************************


			**************************
			*        CCLAMBDA        *
			**************************


	Nuclear Rep. energy (wfn)     =   24.323218171379235
	Reference           (wfn)     =                    0
	SCF energy          (wfn)     =  -76.845810732447745
	Reference energy    (CC_INFO) =  -76.845810732447802
	CCSD energy         (CC_INFO) =   -0.362609835033043
	Total CCSD energy   (CC_INFO) =  -77.208420567480843

	Input parameters:
	-----------------
	Maxiter           =     50
	Convergence       = 1.0e-07
	Restart           =     No
	Cache Level       =     2
	Model III         =     No
	DIIS              =     Yes
	AO Basis          =     No
	ABCD              =     NEW
	Local CC          =     No
	Parameters for left-handed eigenvectors:
	    Irr   Root  Ground-State?    EOM energy        R0
	  1   0     0        Yes       0.0000000000   1.0000000000
	Labels for eigenvector 1:
	LIA 0 -1, Lia 0 -1, LIJAB 0 -1, Lijab 0 -1, LIjAb 0 -1, 2LIjAb - LIjbA 0 -1
	Symmetry of left-hand state: Ag
	Symmetry of left-hand eigenvector: Ag

	          Solving Lambda Equations
	          ------------------------
	Iter     PseudoEnergy or Norm         RMS  
	----     ---------------------     --------
	   0        -0.362863590492972    0.000e+00
	   1        -0.350183366586607    1.971e-02
	   2        -0.348832969193283    4.286e-03
	   3        -0.348522190762529    1.440e-03
	   4        -0.348507394775883    3.615e-04
	   5        -0.348512013377371    1.188e-04
	   6        -0.348506400596434    3.532e-05
	   7        -0.348506111412773    1.236e-05
	   8        -0.348506015453726    4.115e-06
	   9        -0.348505932327736    1.151e-06
	  10        -0.348505959220217    3.006e-07
	  11        -0.348505949032489    8.190e-08

	Largest LIA Amplitudes:
	          3  75         0.0137328317
	          4  90         0.0137328317
	          3  73         0.0088375725
	          4  88         0.0088375725
	          3  79         0.0080597766
	          4  94         0.0080597766
	          3  77         0.0065836671
	          4  92         0.0065836671
	          3  81         0.0056236871
	          4  96         0.0056236871

	Largest LIjAb Amplitudes:
	  3   3  44  44        -0.0639184507
	  4   4  28  28        -0.0639184507
	  3   4  44  28        -0.0386145526
	  4   3  28  44        -0.0386145526
	  3   3  44  46        -0.0333388432
	  3   3  46  44        -0.0333388432
	  4   4  28  30        -0.0333388432
	  4   4  30  28        -0.0333388432
	  3   3  43  44        -0.0298702191
	  3   3  44  43        -0.0298702191

	Iterations converged.

	Overlap <L|e^T> =        0.86453199272

			**************************
			*                        *
			*        CCDENSITY       *
			*                        *
			**************************


	Input parameters:
	-----------------
	Wave function    =   CCSD
	Reference wfn    =   RHF
	Dertype          = 1
	Tolerance        = 1.0e-14
	Cache Level      = 2
	AO Basis         = No
	OPDM Only        = No
	Relax OPDM       = Yes
	Compute Xi       = No
	Use Zeta         = No
	Xi connected     = Yes
	Compute NO       = No

	Nuclear Rep. energy (wfn)     =   24.323218171379235
	SCF energy          (wfn)     =  -76.845810732447745
	Reference energy    (file100) =  -76.845810732447802
	CCSD energy         (CC_INFO) =   -0.362609835033043
	Total CCSD energy   (CC_INFO) =  -77.208420567480843
	Number of States = 1

	Ground?  State     EOM Energy       R0
	  Yes     0 Ag    0.0000000000   1.00000000

	Virial Theorem Data:
	--------------------
	Kinetic energy (ref)   =   76.515513468917888
	Kinetic energy (corr)  =    0.422915183852038
	Kinetic energy (total) =   76.938428652769929
	-V/T (ref)             =    2.004316735895186
	-V/T (corr)            =    1.857405571798780
	-V/T (total)           =    2.003509194552561
  Cartesian Displacement SALCs
  By SALC:
  Number of SALCs: 2, nirreps: Ag
  Project out translations: False
  Project out rotations: False
	irrep = 0, ncomponent = 2
		0: atom 0, direction x, coef 0.707107
		1: atom 1, direction x, coef -0.707107
	irrep = 0, ncomponent = 2
		0: atom 2, direction x, coef 0.707107
		1: atom 3, direction x, coef -0.707107

  By Atomic Center:
  Number of atomic centers: 4
   Atomic Center 0:
	x component, size = 1
		0: salc 0, irrep 0, coef 0.707107
	y component, size = 0
	z component, size = 0
   Atomic Center 1:
	x component, size = 1
		0: salc 0, irrep 0, coef -0.707107
	y component, size = 0
	z component, size = 0
   Atomic Center 2:
	x component, size = 1
		0: salc 1, irrep 0, coef 0.707107
	y component, size = 0
	z component, size = 0
   Atomic Center 3:
	x component, size = 1
		0: salc 1, irrep 0, coef -0.707107
	y component, size = 0
	z component, size = 0

    Molecular point group: d2h
    Full point group: D_inf_h

    Geometry (in Bohr), charge = 0, multiplicity = 1:

       Center              X                  Y                   Z       
    ------------   -----------------  -----------------  -----------------
         C           -1.161161115049    -0.000000000000     0.000000000000
         C            1.161161115049     0.000000000000     0.000000000000
         H           -3.192182062907    -0.000000000000     0.000000000000
         H            3.192182062907     0.000000000000     0.000000000000

	Presorting MO-basis TPDM.
	Sorting File: MO TPDM (AA|AA) nbuckets = 1
	Starting first half-transformation.
	Sorting half-transformed TPDM.
	First half integral transformation complete.


  -Nuclear Repulsion Energy 1st Derivatives:
     Atom            X                  Y                   Z
    ------   -----------------  -----------------  -----------------
       1        5.537163209075     0.000000000000     0.000000000000
       2       -5.537163209075    -0.000000000000     0.000000000000
       3        1.795659009002     0.000000000000     0.000000000000
       4       -1.795659009002    -0.000000000000     0.000000000000


  -Core Hamiltonian Gradient:
     Atom            X                  Y                   Z
    ------   -----------------  -----------------  -----------------
       1      -10.154104847530    -0.000000000000     0.000000000000
       2       10.154104847530     0.000000000000     0.000000000000
       3       -3.871269201196    -0.000000000000     0.000000000000
       4        3.871269201196     0.000000000000     0.000000000000


  -Lagrangian contribution to gradient:
     Atom            X                  Y                   Z
    ------   -----------------  -----------------  -----------------
       1       -0.751922302345    -0.000000000000     0.000000000000
       2        0.751922302345     0.000000000000     0.000000000000
       3        0.169572270138     0.000000000000     0.000000000000
       4       -0.169572270138    -0.000000000000     0.000000000000


  -Two-electron contribution to gradient:
     Atom            X                  Y                   Z
    ------   -----------------  -----------------  -----------------
       1        5.327219599095     0.000000000000     0.000000000000
       2       -5.327219599095    -0.000000000000     0.000000000000
       3        1.892299611596     0.000000000000     0.000000000000
       4       -1.892299611596    -0.000000000000     0.000000000000


  -Total gradient:
     Atom            X                  Y                   Z
    ------   -----------------  -----------------  -----------------
       1       -0.041644341705    -0.000000000000     0.000000000000
       2        0.041644341705     0.000000000000     0.000000000000
       3       -0.013738310460    -0.000000000000     0.000000000000
       4        0.013738310460     0.000000000000     0.000000000000


  Based on options and gradient (rms=1.79E-02), recommend projecting translations and not projecting rotations.
hessian() will perform frequency computation by finite difference of analytic gradients.

         ----------------------------------------------------------
                                   FINDIF
                     R. A. King and Jonathon Misiewicz
         ---------------------------------------------------------

  Using finite-differences of gradients to determine vibrational frequencies and 
  normal modes.  Resulting frequencies are only valid at stationary points.
    Generating geometries for use with 3-point formula.
    Displacement size will be 5.00e-03.
    Number of atoms is 4.
    Number of irreps is 8.
    Number of SALCs is 9.
    Translations projected? 1. Rotations projected? 0.
    Index of SALCs per irrep:
     1 :  0  1 
     2 :  2  3 
     3 :  4  5 
     4 : 
     5 : 
     6 :  6 
     7 :  7 
     8 :  8 
    Number of SALCs per irrep:
     Irrep 1: 2
     Irrep 2: 2
     Irrep 3: 2
     Irrep 4: 0
     Irrep 5: 0
     Irrep 6: 1
     Irrep 7: 1
     Irrep 8: 1
    Number of geometries (including reference) is 12.
    Number of displacements per irrep:
      Irrep 1: 4
      Irrep 2: 2
      Irrep 3: 2
      Irrep 4: 0
      Irrep 5: 0
      Irrep 6: 1
      Irrep 7: 1
      Irrep 8: 1

  //>>>>>>>>>>>>>>>>>>>>>>>>>>>>>>>>>>>//
  //    Loading displacement 1 of 12   //
  //<<<<<<<<<<<<<<<<<<<<<<<<<<<<<<<<<<<//
gradient() will perform analytic gradient computation.

*** tstart() called on atlantis
*** at Tue Apr 19 01:48:48 2022

   => Loading Basis Set <=

    Name: AUG-CC-PVTZ
    Role: ORBITAL
    Keyword: BASIS
    atoms 1-2 entry C          line   235 file /home/akrom/software/anaconda3/envs/ffpenv/share/psi4/basis/aug-cc-pvtz.gbs 
    atoms 3-4 entry H          line    36 file /home/akrom/software/anaconda3/envs/ffpenv/share/psi4/basis/aug-cc-pvtz.gbs 


         ---------------------------------------------------------
                                   SCF
               by Justin Turney, Rob Parrish, Andy Simmonett
                          and Daniel G. A. Smith
                              RHF Reference
                        1 Threads,    500 MiB Core
         ---------------------------------------------------------

  ==> Geometry <==

    Molecular point group: d2h
    Full point group: D_inf_h

    Geometry (in Angstrom), charge = 0, multiplicity = 1:

       Center              X                  Y                   Z               Mass       
    ------------   -----------------  -----------------  -----------------  -----------------
         C           -0.614460000000    -0.000000000000     0.000000000000    12.000000000000
         C            0.614460000000     0.000000000000     0.000000000000    12.000000000000
         H           -1.689230000000    -0.000000000000     0.000000000000     1.007825032230
         H            1.689230000000     0.000000000000     0.000000000000     1.007825032230

  Running in d2h symmetry.

  Rotational constants: A = ************  B =      1.13802  C =      1.13802 [cm^-1]
  Rotational constants: A = ************  B =  34116.98697  C =  34116.98697 [MHz]
  Nuclear repulsion =   24.323218171379235

  Charge       = 0
  Multiplicity = 1
  Electrons    = 14
  Nalpha       = 7
  Nbeta        = 7

  ==> Algorithm <==

  SCF Algorithm Type is PK.
  DIIS enabled.
  MOM disabled.
  Fractional occupation disabled.
  Guess Type is SAD.
  Energy threshold   = 1.00e-10
  Density threshold  = 1.00e-10
  Integral threshold = 0.00e+00

  ==> Primary Basis <==

  Basis Set: AUG-CC-PVTZ
    Blend: AUG-CC-PVTZ
    Number of shells: 46
    Number of basis function: 138
    Number of Cartesian functions: 160
    Spherical Harmonics?: true
    Max angular momentum: 3

  ==> Pre-Iterations <==

   -------------------------------------------------------
    Irrep   Nso     Nmo     Nalpha   Nbeta   Ndocc  Nsocc
   -------------------------------------------------------
     Ag        30      30       0       0       0       0
     B1g       16      16       0       0       0       0
     B2g       16      16       0       0       0       0
     B3g        7       7       0       0       0       0
     Au         7       7       0       0       0       0
     B1u       16      16       0       0       0       0
     B2u       16      16       0       0       0       0
     B3u       30      30       0       0       0       0
   -------------------------------------------------------
    Total     138     138       7       7       7       0
   -------------------------------------------------------

  ==> Integral Setup <==

  Using integral reordering PK algorithm.
  Sizing the integral batches needed.
  Building batch lookup table.
   Calculation information:
      Number of atoms:                   4
      Number of AO shells:              46
      Number of primitives:             82
      Number of atomic orbitals:       160
      Number of basis functions:       138

      Integral cutoff                 1.00e-12
      Number of threads:                 1

	Batch   1 pq = [       0,    9591] index = [             0,45998436] size =     45998436
  Task number: 5
  Buffer size: 11059200
  Buffer per thread: 2
  We computed 698868 shell quartets total.
  Whereas there are 584821 unique shell quartets.
    19.50 percent of shell quartets recomputed by reordering.

  ==> DiskJK: Disk-Based J/K Matrices <==

    J tasked:                  Yes
    K tasked:                  Yes
    wK tasked:                  No
    Memory [MiB]:              375
    Schwarz Cutoff:          1E-12

    OpenMP threads:              1

  Minimum eigenvalue in the overlap matrix is 9.1550632594E-06.
  Using Symmetric Orthogonalization.

  SCF Guess: Superposition of Atomic Densities via on-the-fly atomic UHF.

  ==> Iterations <==

                        Total Energy        Delta E     RMS |[F,P]|

   @RHF iter SAD:   -75.85138269794760   -7.58514e+01   0.00000e+00 
   @RHF iter   1:   -76.79964260056444   -9.48260e-01   5.54418e-03 DIIS
   @RHF iter   2:   -76.84020751423645   -4.05649e-02   1.94791e-03 DIIS
   @RHF iter   3:   -76.84565384205304   -5.44633e-03   2.24747e-04 DIIS
   @RHF iter   4:   -76.84580852887402   -1.54687e-04   2.52742e-05 DIIS
   @RHF iter   5:   -76.84581067409064   -2.14522e-06   4.07739e-06 DIIS
   @RHF iter   6:   -76.84581073033169   -5.62410e-08   7.37024e-07 DIIS
   @RHF iter   7:   -76.84581073237220   -2.04051e-09   1.26352e-07 DIIS
   @RHF iter   8:   -76.84581073244706   -7.48628e-11   1.27028e-08 DIIS
   @RHF iter   9:   -76.84581073244783   -7.67386e-13   1.44679e-09 DIIS
   @RHF iter  10:   -76.84581073244800   -1.70530e-13   2.09504e-10 DIIS
   @RHF iter  11:   -76.84581073244775    2.55795e-13   1.32252e-11 DIIS
  Energy and wave function converged.


  ==> Post-Iterations <==

    Orbital Energies [Eh]
    ---------------------

    Doubly Occupied:                                                      

       1Ag   -11.253534     1B3u  -11.250282     2Ag    -1.022810  
       2B3u   -0.767052     3Ag    -0.676897     1B2u   -0.405333  
       1B1u   -0.405333  

    Virtual:                                                              

       4Ag     0.030954     3B3u    0.032442     1B2g    0.091836  
       1B1g    0.091836     2B1u    0.096396     2B2u    0.096396  
       5Ag     0.107476     4B3u    0.110720     6Ag     0.143085  
       2B2g    0.185711     2B1g    0.185711     5B3u    0.225356  
       6B3u    0.256540     3B2u    0.275639     3B1u    0.275639  
       7Ag     0.280938     1B3g    0.300217     8Ag     0.300217  
       9Ag     0.377074     3B1g    0.384507     3B2g    0.384507  
       7B3u    0.399531     1Au     0.399531    10Ag     0.412638  
       8B3u    0.412957     4B1g    0.423815     4B2g    0.423815  
       4B1u    0.492963     4B2u    0.492963     9B3u    0.509798  
      10B3u    0.586121     5B2u    0.598072     5B1u    0.598072  
      11Ag     0.658607     5B1g    0.842484     5B2g    0.842484  
      12Ag     0.886597     2B3g    0.893139    13Ag     0.893139  
      11B3u    0.899838     6B2u    0.933671     6B1u    0.933671  
      14Ag     0.981449    15Ag     1.006187     3B3g    1.006187  
      12B3u    1.024644     2Au     1.024644     6B1g    1.026935  
       6B2g    1.026935    13B3u    1.028799     7B1u    1.051667  
       7B2u    1.051667    16Ag     1.137342     8B2u    1.175747  
       8B1u    1.175747     3Au     1.193873    14B3u    1.193873  
      15B3u    1.199049     7B2g    1.293777     7B1g    1.293777  
      16B3u    1.347749     8B1g    1.387516     8B2g    1.387516  
       9B2u    1.574325     9B1u    1.574325     4B3g    1.626551  
      17Ag     1.626551     9B1g    1.763325     9B2g    1.763325  
      18Ag     1.776253    10B1u    1.899605    10B2u    1.899605  
      17B3u    1.931317     4Au     2.018911    18B3u    2.018911  
      19Ag     2.022118    19B3u    2.147013    20Ag     2.206153  
      10B2g    2.343991    10B1g    2.343991    20B3u    2.789144  
      11B2u    2.803788    11B1u    2.803788    21Ag     3.005476  
      21B3u    3.087826     5B3g    3.176078    22Ag     3.176078  
      11B2g    3.193668    11B1g    3.193668    12B1u    3.312040  
      12B2u    3.312040    13B2u    3.366559    13B1u    3.366559  
      22B3u    3.444880     5Au     3.444880     6B3g    3.563723  
      23Ag     3.563723    24Ag     3.593427    12B2g    3.685269  
      12B1g    3.685269    25Ag     3.718401    14B1u    3.780452  
      14B2u    3.780452    13B1g    3.855149    13B2g    3.855149  
      23B3u    3.870362    24B3u    4.084201     6Au     4.084201  
       7B3g    4.145048    26Ag     4.145048    25B3u    4.315062  
      26B3u    4.630587     7Au     4.630587    27Ag     4.636859  
      15B2u    4.746465    15B1u    4.746465    14B1g    4.757308  
      14B2g    4.757308    15B1g    4.978972    15B2g    4.978972  
      27B3u    5.255230    28Ag     5.371249    16B1u    5.766486  
      16B2u    5.766486    28B3u    6.162120    29B3u    6.686031  
      16B1g    6.726699    16B2g    6.726699    29Ag     6.893875  
      30Ag    13.445726    30B3u   18.918803  

    Final Occupation by Irrep:
             Ag   B1g   B2g   B3g    Au   B1u   B2u   B3u 
    DOCC [     3,    0,    0,    0,    0,    1,    1,    2 ]

  @RHF Final Energy:   -76.84581073244775

   => Energetics <=

    Nuclear Repulsion Energy =             24.3232181713792350
    One-Electron Energy =                -150.7755752754650587
    Two-Electron Energy =                  49.6065463716380748
    Total Energy =                        -76.8458107324477453

Computation Completed


Properties will be evaluated at   0.000000,   0.000000,   0.000000 [a0]

Properties computed using the SCF density matrix

  Nuclear Dipole Moment: [e a0]
     X:     0.0000      Y:     0.0000      Z:     0.0000

  Electronic Dipole Moment: [e a0]
     X:     0.0000      Y:     0.0000      Z:     0.0000

  Dipole Moment: [e a0]
     X:     0.0000      Y:     0.0000      Z:     0.0000     Total:     0.0000

  Dipole Moment: [D]
     X:     0.0000      Y:     0.0000      Z:     0.0000     Total:     0.0000


*** tstop() called on atlantis at Tue Apr 19 01:48:55 2022
Module time:
	user time   =       3.93 seconds =       0.07 minutes
	system time =       3.27 seconds =       0.05 minutes
	total time  =          7 seconds =       0.12 minutes
Total time:
	user time   =      36.79 seconds =       0.61 minutes
	system time =      16.21 seconds =       0.27 minutes
	total time  =         52 seconds =       0.87 minutes
 MINTS: Wrapper to libmints.
   by Justin Turney

   Calculation information:
      Number of threads:                 1
      Number of atoms:                   4
      Number of AO shells:              46
      Number of SO shells:              23
      Number of primitives:             82
      Number of atomic orbitals:       160
      Number of basis functions:       138

      Number of irreps:                  8
      Integral cutoff                 0.00e+00
      Number of functions per irrep: [  30   16   16    7    7   16   16   30 ]

 OEINTS: Overlap, kinetic, potential, dipole, and quadrupole integrals
         stored in file 35.

      Computing two-electron integrals...done
      Computed 5914842 non-zero two-electron integrals.
        Stored in file 33.


*** tstart() called on atlantis
*** at Tue Apr 19 01:48:56 2022


	Wfn Parameters:
	--------------------
	Wavefunction         = CCSD
	Number of irreps     = 8
	Number of MOs        = 138
	Number of active MOs = 138
	AO-Basis             = NONE
	Semicanonical        = false
	Reference            = RHF
	Print Level          = 1

	IRREP	# MOs	# FZDC	# DOCC	# SOCC	# VIRT	# FZVR
	-----	-----	------	------	------	------	------
	 Ag	   30	    0	    3	    0	    27	    0
	 B1g	   16	    0	    0	    0	    16	    0
	 B2g	   16	    0	    0	    0	    16	    0
	 B3g	   7	    0	    0	    0	    7	    0
	 Au	   7	    0	    0	    0	    7	    0
	 B1u	   16	    0	    1	    0	    15	    0
	 B2u	   16	    0	    1	    0	    15	    0
	 B3u	   30	    0	    2	    0	    28	    0
	Transforming integrals...
	IWL integrals will be deleted.
	(OO|OO)...
	Presorting SO-basis two-electron integrals.
	Sorting File: SO Ints (nn|nn) nbuckets = 1
	Transforming the one-electron integrals and constructing Fock matrices
	Starting first half-transformation.
	Sorting half-transformed integrals.
	First half integral transformation complete.
	Starting second half-transformation.
	Two-electron integral transformation complete.
	(OO|OV)...
	Starting second half-transformation.
	Two-electron integral transformation complete.
	(OO|VV)...
	Starting second half-transformation.
	Two-electron integral transformation complete.
	(OV|OO)...
	Starting first half-transformation.
	Sorting half-transformed integrals.
	First half integral transformation complete.
	Starting second half-transformation.
	Two-electron integral transformation complete.
	(OV|OV)...
	Starting second half-transformation.
	Two-electron integral transformation complete.
	(OV|VV)...
	Starting second half-transformation.
	Two-electron integral transformation complete.
	(VV|OO)...
	Starting first half-transformation.
	Sorting half-transformed integrals.
	First half integral transformation complete.
	Starting second half-transformation.
	Two-electron integral transformation complete.
	(VV|OV)...
	Starting second half-transformation.
	Two-electron integral transformation complete.
	(VV|VV)...
	Starting second half-transformation.
	Two-electron integral transformation complete.
	Frozen core energy     =      0.00000000000000

	Size of irrep 0 of <ab|cd> integrals:      6.620 (MW) /     52.963 (MB)
	Size of irrep 1 of <ab|cd> integrals:      4.571 (MW) /     36.568 (MB)
	Size of irrep 2 of <ab|cd> integrals:      4.571 (MW) /     36.568 (MB)
	Size of irrep 3 of <ab|cd> integrals:      3.000 (MW) /     23.999 (MB)
	Size of irrep 4 of <ab|cd> integrals:      2.993 (MW) /     23.943 (MB)
	Size of irrep 5 of <ab|cd> integrals:      4.580 (MW) /     36.637 (MB)
	Size of irrep 6 of <ab|cd> integrals:      4.580 (MW) /     36.637 (MB)
	Size of irrep 7 of <ab|cd> integrals:      6.605 (MW) /     52.839 (MB)
	Total:                                    37.519 (MW) /    300.154 (MB)

	Size of irrep 0 of <ia|bc> integrals:      0.430 (MW) /      3.438 (MB)
	Size of irrep 1 of <ia|bc> integrals:      0.242 (MW) /      1.933 (MB)
	Size of irrep 2 of <ia|bc> integrals:      0.242 (MW) /      1.933 (MB)
	Size of irrep 3 of <ia|bc> integrals:      0.113 (MW) /      0.901 (MB)
	Size of irrep 4 of <ia|bc> integrals:      0.116 (MW) /      0.927 (MB)
	Size of irrep 5 of <ia|bc> integrals:      0.238 (MW) /      1.900 (MB)
	Size of irrep 6 of <ia|bc> integrals:      0.238 (MW) /      1.900 (MB)
	Size of irrep 7 of <ia|bc> integrals:      0.437 (MW) /      3.495 (MB)
	Total:                                     2.053 (MW) /     16.427 (MB)

	Size of irrep 0 of tijab amplitudes:       0.039 (MW) /      0.309 (MB)
	Size of irrep 1 of tijab amplitudes:       0.009 (MW) /      0.068 (MB)
	Size of irrep 2 of tijab amplitudes:       0.009 (MW) /      0.068 (MB)
	Size of irrep 3 of tijab amplitudes:       0.003 (MW) /      0.028 (MB)
	Size of irrep 4 of tijab amplitudes:       0.000 (MW) /      0.000 (MB)
	Size of irrep 5 of tijab amplitudes:       0.013 (MW) /      0.103 (MB)
	Size of irrep 6 of tijab amplitudes:       0.013 (MW) /      0.103 (MB)
	Size of irrep 7 of tijab amplitudes:       0.031 (MW) /      0.247 (MB)
	Total:                                     0.116 (MW) /      0.925 (MB)

	Nuclear Rep. energy          =     24.32321817137924
	SCF energy                   =    -76.84581073244775
	One-electron energy          =   -150.77557527488784
	Two-electron energy          =     49.60654637106080
	Reference energy             =    -76.84581073244780

*** tstop() called on atlantis at Tue Apr 19 01:49:00 2022
Module time:
	user time   =       2.60 seconds =       0.04 minutes
	system time =       1.21 seconds =       0.02 minutes
	total time  =          4 seconds =       0.07 minutes
Total time:
	user time   =      40.96 seconds =       0.68 minutes
	system time =      17.44 seconds =       0.29 minutes
	total time  =         57 seconds =       0.95 minutes
            **************************
            *                        *
            *        CCENERGY        *
            *                        *
            **************************

    Nuclear Rep. energy (wfn)     =   24.323218171379235
    SCF energy          (wfn)     =  -76.845810732447745
    Reference energy    (file100) =  -76.845810732447802

    Input parameters:
    -----------------
    Wave function   =     CCSD
    Reference wfn   =     RHF
    Brueckner       =     No
    Memory (Mbytes) =     524.3
    Maxiter         =     50
    R_Convergence   =     1.0e-07
    E_Convergence   =     1.0e-08
    Restart         =     Yes
    DIIS            =     Yes
    AO Basis        =     NONE
    ABCD            =     NEW
    Cache Level     =     2
    Cache Type      =     LOW
    Print Level     =     1
    Num. of threads =     1
    # Amps to Print =     10
    Print MP2 Amps? =     No
    Analyze T2 Amps =     No
    Print Pair Ener =     No
    Local CC        =     No
    SCS-MP2         =     False
    SCSN-MP2        =     False
    SCS-CCSD        =     False

MP2 correlation energy -0.3510500355847064
                Solving CC Amplitude Equations
                ------------------------------
  Iter             Energy              RMS        T1Diag      D1Diag    New D1Diag    D2Diag
  ----     ---------------------    ---------   ----------  ----------  ----------   --------
     0        -0.351050035584706    0.000e+00    0.000000    0.000000    0.000000    0.169119
     1        -0.349412250379292    5.729e-02    0.010080    0.025439    0.025439    0.166787
     2        -0.359709516040414    2.368e-02    0.010056    0.025437    0.025437    0.177366
     3        -0.362331748795118    1.020e-02    0.011732    0.029816    0.029816    0.183571
     4        -0.362512663215607    3.034e-03    0.011839    0.030123    0.030123    0.185513
     5        -0.362599219241137    8.121e-04    0.011863    0.030200    0.030200    0.186039
     6        -0.362607440559355    2.078e-04    0.011844    0.030153    0.030153    0.186092
     7        -0.362609105965092    4.687e-05    0.011839    0.030143    0.030143    0.186102
     8        -0.362609867874778    1.436e-05    0.011838    0.030141    0.030141    0.186106
     9        -0.362609838629459    3.573e-06    0.011838    0.030140    0.030140    0.186106
    10        -0.362609795759230    9.128e-07    0.011838    0.030140    0.030140    0.186106
    11        -0.362609834809001    2.828e-07    0.011838    0.030140    0.030140    0.186106
    12        -0.362609831636266    7.030e-08    0.011838    0.030140    0.030140    0.186106
    13        -0.362609834570851    2.132e-08    0.011838    0.030140    0.030140    0.186106

    Iterations converged.


    Largest TIA Amplitudes:
              3  75         0.0197428646
              4  90         0.0197428646
              3  73         0.0121383824
              4  88         0.0121383824
              3  79         0.0114124335
              4  94         0.0114124335
              3  77         0.0096156865
              4  92         0.0096156865
              3  81         0.0078949267
              4  96         0.0078949267

    Largest TIjAb Amplitudes:
      3   3  44  44        -0.0668744107
      4   4  28  28        -0.0668744107
      3   4  44  28        -0.0415149317
      4   3  28  44        -0.0415149317
      3   3  44  46        -0.0349229013
      3   3  46  44        -0.0349229013
      4   4  28  30        -0.0349229013
      4   4  30  28        -0.0349229013
      3   3  43  44        -0.0312276759
      3   3  44  43        -0.0312276759

    SCF energy       (wfn)                    =  -76.845810732447745
    Reference energy (file100)                =  -76.845810732447802

    Opposite-spin MP2 correlation energy      =   -0.273019919015624
    Same-spin MP2 correlation energy          =   -0.078030116569083
    MP2 correlation energy                    =   -0.351050035584706
      * MP2 total energy                      =  -77.196860768032508

    Opposite-spin CCSD correlation energy     =   -0.295346059900200
    Same-spin CCSD correlation energy         =   -0.067263774670650
    CCSD correlation energy                   =   -0.362609834570851
      * CCSD total energy                     =  -77.208420567018649


			**************************
			*                        *
			*         CCHBAR         *
			*                        *
			**************************


			**************************
			*        CCLAMBDA        *
			**************************


	Nuclear Rep. energy (wfn)     =   24.323218171379235
	Reference           (wfn)     =                    0
	SCF energy          (wfn)     =  -76.845810732447745
	Reference energy    (CC_INFO) =  -76.845810732447802
	CCSD energy         (CC_INFO) =   -0.362609834570851
	Total CCSD energy   (CC_INFO) =  -77.208420567018649

	Input parameters:
	-----------------
	Maxiter           =     50
	Convergence       = 1.0e-07
	Restart           =     No
	Cache Level       =     2
	Model III         =     No
	DIIS              =     Yes
	AO Basis          =     No
	ABCD              =     NEW
	Local CC          =     No
	Parameters for left-handed eigenvectors:
	    Irr   Root  Ground-State?    EOM energy        R0
	  1   0     0        Yes       0.0000000000   1.0000000000
	Labels for eigenvector 1:
	LIA 0 -1, Lia 0 -1, LIJAB 0 -1, Lijab 0 -1, LIjAb 0 -1, 2LIjAb - LIjbA 0 -1
	Symmetry of left-hand state: Ag
	Symmetry of left-hand eigenvector: Ag

	          Solving Lambda Equations
	          ------------------------
	Iter     PseudoEnergy or Norm         RMS  
	----     ---------------------     --------
	   0        -0.362863590009731    8.190e-08
	   1        -0.350183366253816    1.971e-02
	   2        -0.348832969261441    4.286e-03
	   3        -0.348522190891559    1.440e-03
	   4        -0.348507394953089    3.615e-04
	   5        -0.348512013549387    1.188e-04
	   6        -0.348506400779576    3.532e-05
	   7        -0.348506111595530    1.236e-05
	   8        -0.348506015635317    4.115e-06
	   9        -0.348505932509439    1.151e-06
	  10        -0.348505959401816    3.006e-07
	  11        -0.348505949214108    8.190e-08

	Largest LIA Amplitudes:
	          3  75         0.0137328318
	          4  90         0.0137328318
	          3  73         0.0088375726
	          4  88         0.0088375726
	          3  79         0.0080597767
	          4  94         0.0080597767
	          3  77         0.0065836671
	          4  92         0.0065836671
	          3  81         0.0056236871
	          4  96         0.0056236871

	Largest LIjAb Amplitudes:
	  3   3  44  44        -0.0639184504
	  4   4  28  28        -0.0639184504
	  3   4  44  28        -0.0386145527
	  4   3  28  44        -0.0386145527
	  3   3  44  46        -0.0333388431
	  3   3  46  44        -0.0333388431
	  4   4  28  30        -0.0333388431
	  4   4  30  28        -0.0333388431
	  3   3  43  44        -0.0298702189
	  3   3  44  43        -0.0298702189

	Iterations converged.

	Overlap <L|e^T> =        0.86453199423

			**************************
			*                        *
			*        CCDENSITY       *
			*                        *
			**************************


	Input parameters:
	-----------------
	Wave function    =   CCSD
	Reference wfn    =   RHF
	Dertype          = 1
	Tolerance        = 1.0e-14
	Cache Level      = 2
	AO Basis         = No
	OPDM Only        = No
	Relax OPDM       = Yes
	Compute Xi       = No
	Use Zeta         = No
	Xi connected     = Yes
	Compute NO       = No

	Nuclear Rep. energy (wfn)     =   24.323218171379235
	SCF energy          (wfn)     =  -76.845810732447745
	Reference energy    (file100) =  -76.845810732447802
	CCSD energy         (CC_INFO) =   -0.362609834570851
	Total CCSD energy   (CC_INFO) =  -77.208420567018649
	Number of States = 1

	Ground?  State     EOM Energy       R0
	  Yes     0 Ag    0.0000000000   1.00000000

	Virial Theorem Data:
	--------------------
	Kinetic energy (ref)   =   76.515513468917888
	Kinetic energy (corr)  =    0.422915178650402
	Kinetic energy (total) =   76.938428647568287
	-V/T (ref)             =    2.004316735895186
	-V/T (corr)            =    1.857405581251552
	-V/T (total)           =    2.003509194614399
  Cartesian Displacement SALCs
  By SALC:
  Number of SALCs: 2, nirreps: Ag
  Project out translations: False
  Project out rotations: False
	irrep = 0, ncomponent = 2
		0: atom 0, direction x, coef 0.707107
		1: atom 1, direction x, coef -0.707107
	irrep = 0, ncomponent = 2
		0: atom 2, direction x, coef 0.707107
		1: atom 3, direction x, coef -0.707107

  By Atomic Center:
  Number of atomic centers: 4
   Atomic Center 0:
	x component, size = 1
		0: salc 0, irrep 0, coef 0.707107
	y component, size = 0
	z component, size = 0
   Atomic Center 1:
	x component, size = 1
		0: salc 0, irrep 0, coef -0.707107
	y component, size = 0
	z component, size = 0
   Atomic Center 2:
	x component, size = 1
		0: salc 1, irrep 0, coef 0.707107
	y component, size = 0
	z component, size = 0
   Atomic Center 3:
	x component, size = 1
		0: salc 1, irrep 0, coef -0.707107
	y component, size = 0
	z component, size = 0

    Molecular point group: d2h
    Full point group: D_inf_h

    Geometry (in Bohr), charge = 0, multiplicity = 1:

       Center              X                  Y                   Z       
    ------------   -----------------  -----------------  -----------------
         C           -1.161161115049    -0.000000000000     0.000000000000
         C            1.161161115049     0.000000000000     0.000000000000
         H           -3.192182062907    -0.000000000000     0.000000000000
         H            3.192182062907     0.000000000000     0.000000000000

	Presorting MO-basis TPDM.
	Sorting File: MO TPDM (AA|AA) nbuckets = 1
	Starting first half-transformation.
	Sorting half-transformed TPDM.
	First half integral transformation complete.


  -Nuclear Repulsion Energy 1st Derivatives:
     Atom            X                  Y                   Z
    ------   -----------------  -----------------  -----------------
       1        5.537163209075     0.000000000000     0.000000000000
       2       -5.537163209075    -0.000000000000     0.000000000000
       3        1.795659009002     0.000000000000     0.000000000000
       4       -1.795659009002    -0.000000000000     0.000000000000


  -Core Hamiltonian Gradient:
     Atom            X                  Y                   Z
    ------   -----------------  -----------------  -----------------
       1      -10.154104860949    -0.000000000000     0.000000000000
       2       10.154104860949     0.000000000000     0.000000000000
       3       -3.871269202634    -0.000000000000     0.000000000000
       4        3.871269202634     0.000000000000     0.000000000000


  -Lagrangian contribution to gradient:
     Atom            X                  Y                   Z
    ------   -----------------  -----------------  -----------------
       1       -0.751922302020    -0.000000000000     0.000000000000
       2        0.751922302020     0.000000000000     0.000000000000
       3        0.169572270163     0.000000000000     0.000000000000
       4       -0.169572270163    -0.000000000000     0.000000000000


  -Two-electron contribution to gradient:
     Atom            X                  Y                   Z
    ------   -----------------  -----------------  -----------------
       1        5.327219611287     0.000000000000     0.000000000000
       2       -5.327219611287    -0.000000000000     0.000000000000
       3        1.892299612971     0.000000000000     0.000000000000
       4       -1.892299612971    -0.000000000000     0.000000000000


  -Total gradient:
     Atom            X                  Y                   Z
    ------   -----------------  -----------------  -----------------
       1       -0.041644342607    -0.000000000000     0.000000000000
       2        0.041644342607     0.000000000000     0.000000000000
       3       -0.013738310499    -0.000000000000     0.000000000000
       4        0.013738310499     0.000000000000     0.000000000000


  //>>>>>>>>>>>>>>>>>>>>>>>>>>>>>>>>>>>//
  //    Loading displacement 2 of 12   //
  //<<<<<<<<<<<<<<<<<<<<<<<<<<<<<<<<<<<//
gradient() will perform analytic gradient computation.

*** tstart() called on atlantis
*** at Tue Apr 19 01:49:21 2022

   => Loading Basis Set <=

    Name: AUG-CC-PVTZ
    Role: ORBITAL
    Keyword: BASIS
    atoms 1-2 entry C          line   235 file /home/akrom/software/anaconda3/envs/ffpenv/share/psi4/basis/aug-cc-pvtz.gbs 
    atoms 3-4 entry H          line    36 file /home/akrom/software/anaconda3/envs/ffpenv/share/psi4/basis/aug-cc-pvtz.gbs 


         ---------------------------------------------------------
                                   SCF
               by Justin Turney, Rob Parrish, Andy Simmonett
                          and Daniel G. A. Smith
                              RHF Reference
                        1 Threads,    500 MiB Core
         ---------------------------------------------------------

  ==> Geometry <==

    Molecular point group: d2h
    Full point group: D_inf_h

    Geometry (in Angstrom), charge = 0, multiplicity = 1:

       Center              X                  Y                   Z               Mass       
    ------------   -----------------  -----------------  -----------------  -----------------
         C           -0.615000089229    -0.000000000000     0.000000000000    12.000000000000
         C            0.615000089229     0.000000000000     0.000000000000    12.000000000000
         H           -1.689230000000    -0.000000000000     0.000000000000     1.007825032230
[...]
    13        -0.362610276395050    2.133e-08    0.011838    0.030140    0.030140    0.186106

    Iterations converged.


    Largest TIA Amplitudes:
              5  75         0.0197424941
              6 106         0.0197424941
              5  70         0.0121381678
              6 101         0.0121381678
              5  81         0.0114124296
              6 112         0.0114124296
              5  78         0.0096157236
              6 109         0.0096157236
              5  86         0.0078948135
              6 117         0.0078948135

    Largest TIjAb Amplitudes:
      5   5  71  71        -0.0668744479
      6   6 102 102        -0.0668744479
      5   6  71 102        -0.0415149518
      6   5 102  71        -0.0415149518
      5   5  71  74        -0.0349231720
      5   5  74  71        -0.0349231720
      6   6 102 105        -0.0349231720
      6   6 105 102        -0.0349231720
      5   5  69  71        -0.0312270609
      5   5  71  69        -0.0312270609

    SCF energy       (wfn)                    =  -76.845805393489911
    Reference energy (file100)                =  -76.845805393489840

    Opposite-spin MP2 correlation energy      =   -0.273020270583122
    Same-spin MP2 correlation energy          =   -0.078030157236496
    MP2 correlation energy                    =   -0.351050427819619
      * MP2 total energy                      =  -77.196855821309455

    Opposite-spin CCSD correlation energy     =   -0.295346484876146
    Same-spin CCSD correlation energy         =   -0.067263791518900
    CCSD correlation energy                   =   -0.362610276395050
      * CCSD total energy                     =  -77.208415669884886


			**************************
			*                        *
			*         CCHBAR         *
			*                        *
			**************************


			**************************
			*        CCLAMBDA        *
			**************************


	Nuclear Rep. energy (wfn)     =   24.323239383855910
	Reference           (wfn)     =                    0
	SCF energy          (wfn)     =  -76.845805393489911
	Reference energy    (CC_INFO) =  -76.845805393489840
	CCSD energy         (CC_INFO) =   -0.362610276395050
	Total CCSD energy   (CC_INFO) =  -77.208415669884886

	Input parameters:
	-----------------
	Maxiter           =     50
	Convergence       = 1.0e-07
	Restart           =     No
	Cache Level       =     2
	Model III         =     No
	DIIS              =     Yes
	AO Basis          =     No
	ABCD              =     NEW
	Local CC          =     No
	Parameters for left-handed eigenvectors:
	    Irr   Root  Ground-State?    EOM energy        R0
	  1   0     0        Yes       0.0000000000   1.0000000000
	Labels for eigenvector 1:
	LIA 0 -1, Lia 0 -1, LIJAB 0 -1, Lijab 0 -1, LIjAb 0 -1, 2LIjAb - LIjbA 0 -1
	Symmetry of left-hand state: A1
	Symmetry of left-hand eigenvector: A1

	          Solving Lambda Equations
	          ------------------------
	Iter     PseudoEnergy or Norm         RMS  
	----     ---------------------     --------
	   0        -0.362864032331619    8.190e-08
	   1        -0.350183499536642    1.971e-02
	   2        -0.348833291633812    4.286e-03
	   3        -0.348522578509004    1.440e-03
	   4        -0.348507811644761    3.614e-04
	   5        -0.348512426099858    1.188e-04
	   6        -0.348506812845621    3.531e-05
	   7        -0.348506523155486    1.236e-05
	   8        -0.348506427069512    4.115e-06
	   9        -0.348506344034778    1.151e-06
	  10        -0.348506370939305    3.007e-07
	  11        -0.348506360754673    8.192e-08

	Largest LIA Amplitudes:
	          5  75         0.0137325886
	          6 106         0.0137325886
	          5  70         0.0088373953
	          6 101         0.0088373953
	          5  81         0.0080597718
	          6 112         0.0080597718
	          5  78         0.0065836858
	          6 109         0.0065836858
	          5  86         0.0056236145
	          6 117         0.0056236145

	Largest LIjAb Amplitudes:
	  5   5  71  71        -0.0639184873
	  6   6 102 102        -0.0639184873
	  5   6  71 102        -0.0386145709
	  6   5 102  71        -0.0386145709
	  5   5  71  74        -0.0333391046
	  5   5  74  71        -0.0333391046
	  6   6 102 105        -0.0333391046
	  6   6 105 102        -0.0333391046
	  5   5  69  71        -0.0298696298
	  5   5  71  69        -0.0298696298

	Iterations converged.

	Overlap <L|e^T> =        0.86453175279

			**************************
			*                        *
			*        CCDENSITY       *
			*                        *
			**************************


	Input parameters:
	-----------------
	Wave function    =   CCSD
	Reference wfn    =   RHF
	Dertype          = 1
	Tolerance        = 1.0e-14
	Cache Level      = 2
	AO Basis         = No
	OPDM Only        = No
	Relax OPDM       = Yes
	Compute Xi       = No
	Use Zeta         = No
	Xi connected     = Yes
	Compute NO       = No

	Nuclear Rep. energy (wfn)     =   24.323239383855910
	SCF energy          (wfn)     =  -76.845805393489911
	Reference energy    (file100) =  -76.845805393489840
	CCSD energy         (CC_INFO) =   -0.362610276395050
	Total CCSD energy   (CC_INFO) =  -77.208415669884886
	Number of States = 1

	Ground?  State     EOM Energy       R0
	  Yes     0 A1    0.0000000000   1.00000000

	Virial Theorem Data:
	--------------------
	Kinetic energy (ref)   =   76.515528678714361
	Kinetic energy (corr)  =    0.422916404306152
	Kinetic energy (total) =   76.938445083020511
	-V/T (ref)             =    2.004316466480449
	-V/T (corr)            =    1.857404141109064
	-V/T (total)           =    2.003508916596548
  Cartesian Displacement SALCs
  By SALC:
  Number of SALCs: 4, nirreps: A1
  Project out translations: False
  Project out rotations: False
	irrep = 0, ncomponent = 1
		0: atom 0, direction x, coef 1.000000
	irrep = 0, ncomponent = 1
		0: atom 1, direction x, coef 1.000000
	irrep = 0, ncomponent = 1
		0: atom 2, direction x, coef 1.000000
	irrep = 0, ncomponent = 1
		0: atom 3, direction x, coef 1.000000

  By Atomic Center:
  Number of atomic centers: 4
   Atomic Center 0:
	x component, size = 1
		0: salc 0, irrep 0, coef 1.000000
	y component, size = 0
	z component, size = 0
   Atomic Center 1:
	x component, size = 1
		0: salc 1, irrep 0, coef 1.000000
	y component, size = 0
	z component, size = 0
   Atomic Center 2:
	x component, size = 1
		0: salc 2, irrep 0, coef 1.000000
	y component, size = 0
	z component, size = 0
   Atomic Center 3:
	x component, size = 1
		0: salc 3, irrep 0, coef 1.000000
	y component, size = 0
	z component, size = 0

    Molecular point group: c2v
    Full point group: C_inf_v

    Geometry (in Bohr), charge = 0, multiplicity = 1:

       Center              X                  Y                   Z       
    ------------   -----------------  -----------------  -----------------
         C           -1.161445204175     0.000000000000     0.000000000000
         C            1.160877025923     0.000000000000     0.000000000000
         H           -3.188799462353     0.000000000000     0.000000000000
         H            3.195564663461     0.000000000000     0.000000000000

	Presorting MO-basis TPDM.
	Sorting File: MO TPDM (AA|AA) nbuckets = 1
	Starting first half-transformation.
	Sorting half-transformed TPDM.
	First half integral transformation complete.


  -Nuclear Repulsion Energy 1st Derivatives:
     Atom            X                  Y                   Z
    ------   -----------------  -----------------  -----------------
       1        5.531364458616     0.000000000000     0.000000000000
       2       -5.542934862809     0.000000000000     0.000000000000
       3        1.801459107056     0.000000000000     0.000000000000
       4       -1.789888702864     0.000000000000     0.000000000000


  -Core Hamiltonian Gradient:
     Atom            X                  Y                   Z
    ------   -----------------  -----------------  -----------------
       1      -10.177933788487     0.000000000000     0.000000000000
       2       10.130443600390     0.000000000000     0.000000000000
       3       -3.847433290072     0.000000000000     0.000000000000
       4        3.894923478170     0.000000000000     0.000000000000


  -Lagrangian contribution to gradient:
     Atom            X                  Y                   Z
    ------   -----------------  -----------------  -----------------
       1       -0.746483342994     0.000000000000     0.000000000000
       2        0.757310815366     0.000000000000     0.000000000000
       3        0.164138936361     0.000000000000     0.000000000000
       4       -0.174966408733     0.000000000000     0.000000000000


  -Two-electron contribution to gradient:
     Atom            X                  Y                   Z
    ------   -----------------  -----------------  -----------------
       1        5.350064384306     0.000000000000     0.000000000000
       2       -5.304502451476     0.000000000000     0.000000000000
       3        1.869440470667     0.000000000000     0.000000000000
       4       -1.915002403501     0.000000000000     0.000000000000


  -Total gradient:
     Atom            X                  Y                   Z
    ------   -----------------  -----------------  -----------------
       1       -0.042988288559     0.000000000000     0.000000000000
       2        0.040317101471     0.000000000000     0.000000000000
       3       -0.012394775987     0.000000000000     0.000000000000
       4        0.015065963072     0.000000000000     0.000000000000


         ----------------------------------------------------------
                                   FINDIF
                     R. A. King and Jonathon Misiewicz
         ---------------------------------------------------------

  Computing second-derivative from gradients using projected, 
  symmetry-adapted, cartesian coordinates.

  12 gradients passed in, including the reference geometry.
  Generating complete list of displacements from unique ones.

    Operation 3 takes plus displacements of irrep B1g to minus ones.
    Operation 2 takes plus displacements of irrep B2g to minus ones.
    Operation 3 takes plus displacements of irrep B1u to minus ones.
    Operation 2 takes plus displacements of irrep B2u to minus ones.
    Operation 2 takes plus displacements of irrep B3u to minus ones.

-------------------------------------------------------------


  ==> Harmonic Vibrational Analysis <==

  non-mass-weighted Hessian:       Symmetric? True   Hermitian? True   Lin Dep Dim?  3 (0)
  projection of translations (True) and rotations (False) removed 3 degrees of freedom (5)
  total projector:                 Symmetric? True   Hermitian? True   Lin Dep Dim?  3 (3)
  mass-weighted Hessian:           Symmetric? True   Hermitian? True   Lin Dep Dim?  3 (0)
  pre-proj  low-frequency mode:    0.0000i [cm^-1]
  pre-proj  low-frequency mode:    0.0000  [cm^-1]
  pre-proj  low-frequency mode:    0.0000  [cm^-1]
  pre-proj  low-frequency mode:  302.5738  [cm^-1]
  pre-proj  low-frequency mode:  302.5738  [cm^-1]
  pre-proj  all modes:['0.0000i' '0.0000' '0.0000' '302.5738' '302.5738' '750.9389' '750.9389'
 '859.5452' '859.5452' '1893.7857' '3217.5367' '3367.1439']
  projected mass-weighted Hessian: Symmetric? True   Hermitian? True   Lin Dep Dim?  3 (3)
  post-proj low-frequency mode:    0.0000i [cm^-1] (TR)
  post-proj low-frequency mode:    0.0000i [cm^-1] (TR)
  post-proj low-frequency mode:    0.0000  [cm^-1] (TR)
  post-proj low-frequency mode:  302.5738  [cm^-1] (V)
  post-proj low-frequency mode:  302.5738  [cm^-1] (V)
  post-proj  all modes:['0.0000i' '0.0000i' '0.0000' '302.5738' '302.5738' '750.9389' '750.9389'
 '859.5452' '859.5452' '1893.7857' '3217.5367' '3367.1439']

  Note that "Vibration"s include 2 un-projected rotation-like modes.
  Vibration                       4                   5                   6           
  Freq [cm^-1]                 302.5738            302.5738            750.9389       
  Irrep                          B2g                 B1g                 B2g          
  Reduced mass [u]              2.4659              2.4659              1.4924        
  Force const [mDyne/A]         0.1330              0.1330              0.4959        
  Turning point v=0 [a0]        0.4017              0.4017              0.3278        
  RMS dev v=0 [a0 u^1/2]        0.4460              0.4460              0.2831        
  Char temp [K]                435.3364            435.3364           1080.4339       
  ----------------------------------------------------------------------------------
      1   C                0.00  0.00  0.26    0.00  0.26 -0.00   -0.00 -0.00 -0.15   
      2   C                0.00 -0.00 -0.26    0.00 -0.26  0.00   -0.00  0.00  0.15   
      3   H                0.00  0.00  0.66    0.00  0.66 -0.00    0.00  0.00  0.69   
      4   H                0.00 -0.00 -0.66    0.00 -0.66  0.00    0.00 -0.00 -0.69   

  Vibration                       7                   8                   9           
  Freq [cm^-1]                 750.9389            859.5452            859.5452       
  Irrep                          B1g                 B2u                 B1u          
  Reduced mass [u]              1.4924              1.0848              1.0848        
  Force const [mDyne/A]         0.4959              0.4722              0.4722        
  Turning point v=0 [a0]        0.3278              0.3593              0.3593        
  RMS dev v=0 [a0 u^1/2]        0.2831              0.2646              0.2646        
  Char temp [K]               1080.4339           1236.6942           1236.6942       
  ----------------------------------------------------------------------------------
      1   C               -0.00 -0.15  0.00   -0.00 -0.06 -0.00   -0.00  0.00 -0.06   
      2   C               -0.00  0.15 -0.00   -0.00 -0.06 -0.00   -0.00  0.00 -0.06   
      3   H               -0.00  0.69 -0.00   -0.00  0.70  0.00    0.00 -0.00  0.70   
      4   H                0.00 -0.69  0.00    0.00  0.70  0.00   -0.00 -0.00  0.70   

  Vibration                       10                  11                  12          
  Freq [cm^-1]                1893.7857           3217.5367           3367.1439       
  Irrep                           Ag                 B3u                  Ag          
  Reduced mass [u]              4.0510              1.0848              1.2067        
  Force const [mDyne/A]         8.5601              6.6169              8.0606        
  Turning point v=0 [a0]        0.1253              0.1857              0.1721        
  RMS dev v=0 [a0 u^1/2]        0.1783              0.1368              0.1337        
  Char temp [K]               2724.7360           4629.3189           4844.5704       
  ----------------------------------------------------------------------------------
      1   C                0.37 -0.00 -0.00   -0.06  0.00  0.00   -0.10 -0.00 -0.00   
      2   C               -0.37  0.00  0.00   -0.06 -0.00 -0.00    0.10  0.00  0.00   
      3   H                0.60  0.00  0.00    0.70 -0.00 -0.00    0.70  0.00  0.00   
      4   H               -0.60 -0.00 -0.00    0.70  0.00  0.00   -0.70 -0.00 -0.00   

  ==> Thermochemistry Components <==

  Entropy, S
    Electronic S            0.000 [cal/(mol K)]        0.000 [J/(mol K)]       0.00000000 [mEh/K] (multiplicity = 1)
    Translational S        35.704 [cal/(mol K)]      149.387 [J/(mol K)]       0.05689862 [mEh/K] (mol. weight = 26.0157 [u], P = 101325.00 [Pa])
    Rotational S           10.952 [cal/(mol K)]       45.824 [J/(mol K)]       0.01745345 [mEh/K] (symmetry no. = 2)
    Vibrational S           3.638 [cal/(mol K)]       15.220 [J/(mol K)]       0.00579690 [mEh/K]
  Total S                  50.294 [cal/(mol K)]      210.431 [J/(mol K)]       0.08014897 [mEh/K]
  Correction S              0.000 [cal/(mol K)]        0.000 [J/(mol K)]       0.00000000 [mEh/K]

  Constant volume heat capacity, Cv
    Electronic Cv           0.000 [cal/(mol K)]        0.000 [J/(mol K)]       0.00000000 [mEh/K]
    Translational Cv        2.981 [cal/(mol K)]       12.472 [J/(mol K)]       0.00475022 [mEh/K]
    Rotational Cv           1.987 [cal/(mol K)]        8.314 [J/(mol K)]       0.00316681 [mEh/K]
    Vibrational Cv          5.941 [cal/(mol K)]       24.856 [J/(mol K)]       0.00946716 [mEh/K]
  Total Cv                 10.909 [cal/(mol K)]       45.642 [J/(mol K)]       0.01738419 [mEh/K]
  Correction Cv             0.000 [cal/(mol K)]        0.000 [J/(mol K)]       0.00000000 [mEh/K]

  Constant pressure heat capacity, Cp
    Electronic Cp           0.000 [cal/(mol K)]        0.000 [J/(mol K)]       0.00000000 [mEh/K]
    Translational Cp        4.968 [cal/(mol K)]       20.786 [J/(mol K)]       0.00791703 [mEh/K]
    Rotational Cp           1.987 [cal/(mol K)]        8.314 [J/(mol K)]       0.00316681 [mEh/K]
    Vibrational Cp          5.941 [cal/(mol K)]       24.856 [J/(mol K)]       0.00946716 [mEh/K]
  Total Cp                 12.896 [cal/(mol K)]       53.957 [J/(mol K)]       0.02055100 [mEh/K]
  Correction Cp             0.000 [cal/(mol K)]        0.000 [J/(mol K)]       0.00000000 [mEh/K]

  ==> Thermochemistry Energy Analysis <==

  Raw electronic energy, E0
  Total E0, Electronic energy at well bottom at 0 [K]                  -77.20842057 [Eh]

  Zero-point energy, ZPE_vib = Sum_i nu_i / 2
    Electronic ZPE          0.000 [kcal/mol]        0.000 [kJ/mol]       0.00000000 [Eh]
    Translational ZPE       0.000 [kcal/mol]        0.000 [kJ/mol]       0.00000000 [Eh]
    Rotational ZPE          0.000 [kcal/mol]        0.000 [kJ/mol]       0.00000000 [Eh]
    Vibrational ZPE        17.590 [kcal/mol]       73.598 [kJ/mol]       0.02803190 [Eh]        6152.291 [cm^-1]
  Correction ZPE           17.590 [kcal/mol]       73.598 [kJ/mol]       0.02803190 [Eh]        6152.291 [cm^-1]
  Total ZPE, Electronic energy at 0 [K]                                -77.18038867 [Eh]

  Thermal Energy, E (includes ZPE)
    Electronic E            0.000 [kcal/mol]        0.000 [kJ/mol]       0.00000000 [Eh]
    Translational E         0.889 [kcal/mol]        3.718 [kJ/mol]       0.00141628 [Eh]
    Rotational E            0.592 [kcal/mol]        2.479 [kJ/mol]       0.00094418 [Eh]
    Vibrational E          18.311 [kcal/mol]       76.612 [kJ/mol]       0.02918003 [Eh]
  Correction E             19.792 [kcal/mol]       82.810 [kJ/mol]       0.03154049 [Eh]
  Total E, Electronic energy at  298.15 [K]                            -77.17688007 [Eh]

  Enthalpy, H_trans = E_trans + k_B * T
    Electronic H            0.000 [kcal/mol]        0.000 [kJ/mol]       0.00000000 [Eh]
    Translational H         1.481 [kcal/mol]        6.197 [kJ/mol]       0.00236046 [Eh]
    Rotational H            0.592 [kcal/mol]        2.479 [kJ/mol]       0.00094418 [Eh]
    Vibrational H          18.311 [kcal/mol]       76.612 [kJ/mol]       0.02918003 [Eh]
  Correction H             20.384 [kcal/mol]       85.289 [kJ/mol]       0.03248468 [Eh]
  Total H, Enthalpy at  298.15 [K]                                     -77.17593589 [Eh]

  Gibbs free energy, G = H - T * S
    Electronic G            0.000 [kcal/mol]        0.000 [kJ/mol]       0.00000000 [Eh]
    Translational G        -9.164 [kcal/mol]      -38.342 [kJ/mol]      -0.01460386 [Eh]
    Rotational G           -2.673 [kcal/mol]      -11.183 [kJ/mol]      -0.00425956 [Eh]
    Vibrational G          17.226 [kcal/mol]       72.074 [kJ/mol]       0.02745169 [Eh]
  Correction G              5.389 [kcal/mol]       22.548 [kJ/mol]       0.00858826 [Eh]
  Total G, Free enthalpy at  298.15 [K]                                -77.19983230 [Eh]

    Psi4 stopped on: Tuesday, 19 April 2022 01:58AM
    Psi4 wall time for execution: 0:10:01.70

*** Psi4 exiting successfully. Buy a developer a beer!
