
    -----------------------------------------------------------------------
          Psi4: An Open-Source Ab Initio Electronic Structure Package
                               Psi4 1.3.2 release

                         Git: Rev {HEAD} ecbda83 


    R. M. Parrish, L. A. Burns, D. G. A. Smith, A. C. Simmonett,
    A. E. DePrince III, E. G. Hohenstein, U. Bozkaya, A. Yu. Sokolov,
    R. Di Remigio, R. M. Richard, J. F. Gonthier, A. M. James,
    H. R. McAlexander, A. Kumar, M. Saitow, X. Wang, B. P. Pritchard,
    P. Verma, H. F. Schaefer III, K. Patkowski, R. A. King, E. F. Valeev,
    F. A. Evangelista, J. M. Turney, T. D. Crawford, and C. D. Sherrill,
    J. Chem. Theory Comput. 13(7) pp 3185--3197 (2017).
    (doi: 10.1021/acs.jctc.7b00174)


                         Additional Contributions by
    P. Kraus, H. Kruse, M. H. Lechner, M. C. Schieber, R. A. Shaw,
    A. Alenaizan, R. Galvelis, Z. L. Glick, S. Lehtola, and J. P. Misiewicz

    -----------------------------------------------------------------------


    Psi4 started on: Tuesday, 19 April 2022 02:57PM

    Process ID: 2980
    Host:       atlantis
    PSIDATADIR: /home/akrom/software/anaconda3/envs/ffpenv/share/psi4
    Memory:     500.0 MiB
    Threads:    1
    
  ==> Input File <==

--------------------------------------------------------------------------
set basis  cc-pVDZ
molecule {
0 1
   C        0.32153        0.81326        0.00000
   C       -0.86505       -0.12817        0.00000
   C        0.54353       -0.68508        0.00000
   H        0.53795        1.36069       -0.92039
   H        0.53795        1.36069        0.92039
   H       -1.44742       -0.21449        0.92034
   H       -1.44742       -0.21449       -0.92034
   H        0.90937       -1.14629       -0.92037
   H        0.90937       -1.14629        0.92037
}
energy('B3LYP')
frequencies('B3LYP')
--------------------------------------------------------------------------

*** tstart() called on atlantis
*** at Tue Apr 19 14:57:30 2022

   => Loading Basis Set <=

    Name: CC-PVDZ
    Role: ORBITAL
    Keyword: BASIS
    atoms 1-3 entry C          line   138 file /home/akrom/software/anaconda3/envs/ffpenv/share/psi4/basis/cc-pvdz.gbs 
    atoms 4-9 entry H          line    22 file /home/akrom/software/anaconda3/envs/ffpenv/share/psi4/basis/cc-pvdz.gbs 


         ---------------------------------------------------------
                                   SCF
               by Justin Turney, Rob Parrish, Andy Simmonett
                          and Daniel G. A. Smith
                              RKS Reference
                        1 Threads,    500 MiB Core
         ---------------------------------------------------------

  ==> Geometry <==

    Molecular point group: cs
    Full point group: Cs

    Geometry (in Angstrom), charge = 0, multiplicity = 1:

       Center              X                  Y                   Z               Mass       
    ------------   -----------------  -----------------  -----------------  -----------------
         C            0.321531939855     0.813261460475     0.000000000000    12.000000000000
         C           -0.865048060145    -0.128168539525     0.000000000000    12.000000000000
         C            0.543531939855    -0.685078539525     0.000000000000    12.000000000000
         H            0.537951939855     1.360691460475    -0.920390000000     1.007825032230
         H            0.537951939855     1.360691460475     0.920390000000     1.007825032230
         H           -1.447418060145    -0.214488539525     0.920340000000     1.007825032230
         H           -1.447418060145    -0.214488539525    -0.920340000000     1.007825032230
         H            0.909371939855    -1.146288539525    -0.920370000000     1.007825032230
         H            0.909371939855    -1.146288539525     0.920370000000     1.007825032230

  Running in cs symmetry.

  Rotational constants: A =      0.66472  B =      0.66470  C =      0.41647 [cm^-1]
  Rotational constants: A =  19927.70596  B =  19927.20236  C =  12485.44714 [MHz]
  Nuclear repulsion =   75.281464809014025

  Charge       = 0
  Multiplicity = 1
  Electrons    = 24
  Nalpha       = 12
  Nbeta        = 12

  ==> Algorithm <==

  SCF Algorithm Type is DF.
  DIIS enabled.
  MOM disabled.
  Fractional occupation disabled.
  Guess Type is SAD.
  Energy threshold   = 1.00e-06
  Density threshold  = 1.00e-06
  Integral threshold = 0.00e+00

  ==> Primary Basis <==

  Basis Set: CC-PVDZ
    Blend: CC-PVDZ
    Number of shells: 36
    Number of basis function: 72
    Number of Cartesian functions: 75
    Spherical Harmonics?: true
    Max angular momentum: 2

  ==> DFT Potential <==

   => Composite Functional: B3LYP <= 

    B3LYP Hyb-GGA Exchange-Correlation Functional

    P. J. Stephens, F. J. Devlin, C. F. Chabalowski, and M. J. Frisch, J. Phys. Chem. 98, 11623 (1994)

    Deriv               =              1
    GGA                 =           TRUE
    Meta                =          FALSE

    Exchange Hybrid     =           TRUE
    MP2 Hybrid          =          FALSE

   => Exchange Functionals <=

    0.0800   Slater exchange
    0.7200         Becke 88

   => Exact (HF) Exchange <=

    0.2000               HF 

   => Correlation Functionals <=

    0.1900   Vosko, Wilk & Nusair (VWN5_RPA)
    0.8100   Lee, Yang & Parr

   => Molecular Quadrature <=

    Radial Scheme          =       TREUTLER
    Pruning Scheme         =           FLAT
    Nuclear Scheme         =       TREUTLER

    BS radius alpha        =              1
    Pruning alpha          =              1
    Radial Points          =             75
    Spherical Points       =            302
    Total Points           =         200365
    Total Blocks           =           1566
    Max Points             =            256
    Max Functions          =             72

   => Loading Basis Set <=

    Name: (CC-PVDZ AUX)
    Role: JKFIT
    Keyword: DF_BASIS_SCF
    atoms 1-3 entry C          line   121 file /home/akrom/software/anaconda3/envs/ffpenv/share/psi4/basis/cc-pvdz-jkfit.gbs 
    atoms 4-9 entry H          line    51 file /home/akrom/software/anaconda3/envs/ffpenv/share/psi4/basis/cc-pvdz-jkfit.gbs 

  ==> Pre-Iterations <==

   -------------------------------------------------------
    Irrep   Nso     Nmo     Nalpha   Nbeta   Ndocc  Nsocc
   -------------------------------------------------------
     A'        45      45       0       0       0       0
     A"        27      27       0       0       0       0
   -------------------------------------------------------
    Total      72      72      12      12      12       0
   -------------------------------------------------------

  ==> Integral Setup <==

  DFHelper Memory: AOs need 0.015 GiB; user supplied 0.015 GiB. Using in-core AOs.

  ==> MemDFJK: Density-Fitted J/K Matrices <==

    J tasked:                   Yes
    K tasked:                   Yes
    wK tasked:                   No
    OpenMP threads:               1
    Memory [MiB]:                15
    Algorithm:                 Core
    Schwarz Cutoff:           1E-12
    Mask sparsity (%):       0.0000
    Fitting Condition:        1E-10

   => Auxiliary Basis Set <=

  Basis Set: (CC-PVDZ AUX)
    Blend: CC-PVDZ-JKFIT
    Number of shells: 126
    Number of basis function: 348
    Number of Cartesian functions: 393
    Spherical Harmonics?: true
    Max angular momentum: 3

  Cached 100.0% of DFT collocation blocks in 0.397 [GiB].

  Minimum eigenvalue in the overlap matrix is 5.9278925342E-03.
  Using Symmetric Orthogonalization.

  SCF Guess: Superposition of Atomic Densities via on-the-fly atomic UHF.

  ==> Iterations <==

                           Total Energy        Delta E     RMS |[F,P]|

   @DF-RKS iter SAD:  -117.51498280025652   -1.17515e+02   0.00000e+00 
   @DF-RKS iter   1:  -117.58890667146557   -7.39239e-02   1.40089e-02 DIIS
   @DF-RKS iter   2:  -117.40362546376568    1.85281e-01   1.79453e-02 DIIS
   @DF-RKS iter   3:  -117.89757458359534   -4.93949e-01   5.30551e-04 DIIS
   @DF-RKS iter   4:  -117.89792649168064   -3.51908e-04   1.24554e-04 DIIS
   @DF-RKS iter   5:  -117.89794790292004   -2.14112e-05   1.03636e-05 DIIS
   @DF-RKS iter   6:  -117.89794807846778   -1.75548e-07   2.72678e-07 DIIS
  Energy and wave function converged.


  ==> Post-Iterations <==

    Orbital Energies [Eh]
    ---------------------

    Doubly Occupied:                                                      

       1Ap   -10.187733     2Ap   -10.187446     3Ap   -10.187442  
       4Ap    -0.845090     5Ap    -0.593172     6Ap    -0.593167  
       1App   -0.489030     7Ap    -0.460332     2App   -0.361122  
       3App   -0.361109     8Ap    -0.292647     9Ap    -0.292641  

    Virtual:                                                              

      10Ap     0.066951     4App    0.078149    11Ap     0.110864  
      12Ap     0.110869    13Ap     0.142089     5App    0.180453  
       6App    0.180459    14Ap     0.242958    15Ap     0.242967  
      16Ap     0.380223     7App    0.393570    17Ap     0.478153  
      18Ap     0.478178    19Ap     0.530138    20Ap     0.557324  
      21Ap     0.557328    22Ap     0.616490     8App    0.637758  
       9App    0.637794    10App    0.659304    11App    0.662936  
      12App    0.662956    23Ap     0.680689    24Ap     0.680695  
      25Ap     0.797691    13App    1.132001    26Ap     1.171848  
      27Ap     1.171853    14App    1.191093    15App    1.191102  
      28Ap     1.192292    16App    1.436779    29Ap     1.458022  
      30Ap     1.458045    31Ap     1.555294    32Ap     1.555310  
      17App    1.575050    18App    1.575092    19App    1.603678  
      33Ap     1.714101    34Ap     1.719521    20App    1.728153  
      21App    1.728170    35Ap     1.778814    36Ap     1.778824  
      37Ap     1.921093    38Ap     1.921102    39Ap     2.073423  
      40Ap     2.089073    22App    2.091302    23App    2.091305  
      41Ap     2.282955    42Ap     2.283003    24App    2.310930  
      43Ap     2.361407    25App    2.419479    44Ap     2.575587  
      45Ap     2.575667    26App    2.754771    27App    2.754790  

    Final Occupation by Irrep:
             Ap   App 
    DOCC [     9,    3 ]

  @DF-RKS Final Energy:  -117.89794807846778

   => Energetics <=

    Nuclear Repulsion Energy =             75.2814648090140253
    One-Electron Energy =                -305.8905008842202164
    Two-Electron Energy =                 127.6861887896553469
    DFT Exchange-Correlation Energy =     -14.9751007929169493
    Empirical Dispersion Energy =           0.0000000000000000
    VV10 Nonlocal Energy =                  0.0000000000000000
    Total Energy =                       -117.8979480784677776

Computation Completed


Properties will be evaluated at   0.000000,   0.000000,   0.000000 [a0]

Properties computed using the SCF density matrix

  Nuclear Dipole Moment: [e a0]
     X:    -0.0002      Y:    -0.0002      Z:     0.0000

  Electronic Dipole Moment: [e a0]
     X:     0.0002      Y:     0.0001      Z:     0.0000

  Dipole Moment: [e a0]
     X:    -0.0000      Y:    -0.0000      Z:     0.0000     Total:     0.0000

  Dipole Moment: [D]
     X:    -0.0001      Y:    -0.0001      Z:     0.0000     Total:     0.0001


*** tstop() called on atlantis at Tue Apr 19 14:57:33 2022
Module time:
	user time   =       3.25 seconds =       0.05 minutes
	system time =       0.12 seconds =       0.00 minutes
	total time  =          3 seconds =       0.05 minutes
Total time:
	user time   =       3.25 seconds =       0.05 minutes
	system time =       0.12 seconds =       0.00 minutes
	total time  =          3 seconds =       0.05 minutes
gradient() will perform analytic gradient computation.

*** tstart() called on atlantis
*** at Tue Apr 19 14:57:33 2022

   => Loading Basis Set <=

    Name: CC-PVDZ
    Role: ORBITAL
    Keyword: BASIS
    atoms 1-3 entry C          line   138 file /home/akrom/software/anaconda3/envs/ffpenv/share/psi4/basis/cc-pvdz.gbs 
    atoms 4-9 entry H          line    22 file /home/akrom/software/anaconda3/envs/ffpenv/share/psi4/basis/cc-pvdz.gbs 


         ---------------------------------------------------------
                                   SCF
               by Justin Turney, Rob Parrish, Andy Simmonett
                          and Daniel G. A. Smith
                              RKS Reference
                        1 Threads,    500 MiB Core
         ---------------------------------------------------------

  ==> Geometry <==

    Molecular point group: cs
    Full point group: Cs

    Geometry (in Angstrom), charge = 0, multiplicity = 1:

       Center              X                  Y                   Z               Mass       
    ------------   -----------------  -----------------  -----------------  -----------------
         C            0.321531939855     0.813261460475     0.000000000000    12.000000000000
         C           -0.865048060145    -0.128168539525     0.000000000000    12.000000000000
         C            0.543531939855    -0.685078539525     0.000000000000    12.000000000000
         H            0.537951939855     1.360691460475    -0.920390000000     1.007825032230
         H            0.537951939855     1.360691460475     0.920390000000     1.007825032230
         H           -1.447418060145    -0.214488539525     0.920340000000     1.007825032230
         H           -1.447418060145    -0.214488539525    -0.920340000000     1.007825032230
         H            0.909371939855    -1.146288539525    -0.920370000000     1.007825032230
         H            0.909371939855    -1.146288539525     0.920370000000     1.007825032230

  Running in cs symmetry.

  Rotational constants: A =      0.66472  B =      0.66470  C =      0.41647 [cm^-1]
  Rotational constants: A =  19927.70596  B =  19927.20236  C =  12485.44714 [MHz]
  Nuclear repulsion =   75.281464809014025

  Charge       = 0
  Multiplicity = 1
  Electrons    = 24
  Nalpha       = 12
  Nbeta        = 12

  ==> Algorithm <==

  SCF Algorithm Type is DF.
  DIIS enabled.
  MOM disabled.
  Fractional occupation disabled.
  Guess Type is SAD.
  Energy threshold   = 1.00e-08
  Density threshold  = 1.00e-08
  Integral threshold = 0.00e+00

  ==> Primary Basis <==

  Basis Set: CC-PVDZ
    Blend: CC-PVDZ
    Number of shells: 36
    Number of basis function: 72
    Number of Cartesian functions: 75
    Spherical Harmonics?: true
    Max angular momentum: 2

  ==> DFT Potential <==

   => Composite Functional: B3LYP <= 

    B3LYP Hyb-GGA Exchange-Correlation Functional

    P. J. Stephens, F. J. Devlin, C. F. Chabalowski, and M. J. Frisch, J. Phys. Chem. 98, 11623 (1994)

    Deriv               =              1
    GGA                 =           TRUE
    Meta                =          FALSE

    Exchange Hybrid     =           TRUE
    MP2 Hybrid          =          FALSE

   => Exchange Functionals <=

    0.0800   Slater exchange
    0.7200         Becke 88

   => Exact (HF) Exchange <=

    0.2000               HF 

   => Correlation Functionals <=

    0.1900   Vosko, Wilk & Nusair (VWN5_RPA)
    0.8100   Lee, Yang & Parr

   => Molecular Quadrature <=

    Radial Scheme          =       TREUTLER
    Pruning Scheme         =           FLAT
    Nuclear Scheme         =       TREUTLER

    BS radius alpha        =              1
    Pruning alpha          =              1
    Radial Points          =             75
    Spherical Points       =            302
    Total Points           =         200365
    Total Blocks           =           1566
    Max Points             =            256
    Max Functions          =             72

   => Loading Basis Set <=

    Name: (CC-PVDZ AUX)
    Role: JKFIT
    Keyword: DF_BASIS_SCF
    atoms 1-3 entry C          line   121 file /home/akrom/software/anaconda3/envs/ffpenv/share/psi4/basis/cc-pvdz-jkfit.gbs 
    atoms 4-9 entry H          line    51 file /home/akrom/software/anaconda3/envs/ffpenv/share/psi4/basis/cc-pvdz-jkfit.gbs 

  ==> Pre-Iterations <==

   -------------------------------------------------------
    Irrep   Nso     Nmo     Nalpha   Nbeta   Ndocc  Nsocc
   -------------------------------------------------------
     A'        45      45       0       0       0       0
     A"        27      27       0       0       0       0
   -------------------------------------------------------
    Total      72      72      12      12      12       0
   -------------------------------------------------------

  ==> Integral Setup <==

  DFHelper Memory: AOs need 0.015 GiB; user supplied 0.015 GiB. Using in-core AOs.

  ==> MemDFJK: Density-Fitted J/K Matrices <==

    J tasked:                   Yes
    K tasked:                   Yes
    wK tasked:                   No
    OpenMP threads:               1
    Memory [MiB]:                15
    Algorithm:                 Core
    Schwarz Cutoff:           1E-12
    Mask sparsity (%):       0.0000
    Fitting Condition:        1E-10

   => Auxiliary Basis Set <=

  Basis Set: (CC-PVDZ AUX)
    Blend: CC-PVDZ-JKFIT
    Number of shells: 126
    Number of basis function: 348
    Number of Cartesian functions: 393
    Spherical Harmonics?: true
    Max angular momentum: 3

  Cached 100.0% of DFT collocation blocks in 0.397 [GiB].

  Minimum eigenvalue in the overlap matrix is 5.9278925342E-03.
  Using Symmetric Orthogonalization.

  SCF Guess: Superposition of Atomic Densities via on-the-fly atomic UHF.

  ==> Iterations <==

                           Total Energy        Delta E     RMS |[F,P]|

   @DF-RKS iter SAD:  -117.51498280035149   -1.17515e+02   0.00000e+00 
   @DF-RKS iter   1:  -117.58890667156102   -7.39239e-02   1.40089e-02 DIIS
   @DF-RKS iter   2:  -117.40362546385958    1.85281e-01   1.79453e-02 DIIS
   @DF-RKS iter   3:  -117.89757458369567   -4.93949e-01   5.30551e-04 DIIS
   @DF-RKS iter   4:  -117.89792649178085   -3.51908e-04   1.24554e-04 DIIS
   @DF-RKS iter   5:  -117.89794790302012   -2.14112e-05   1.03636e-05 DIIS
   @DF-RKS iter   6:  -117.89794807856782   -1.75548e-07   2.72678e-07 DIIS
   @DF-RKS iter   7:  -117.89794807875421   -1.86390e-10   3.42875e-08 DIIS
   @DF-RKS iter   8:  -117.89794807875570   -1.49214e-12   2.12507e-08 DIIS
   @DF-RKS iter   9:  -117.89794807875630   -5.96856e-13   2.77033e-09 DIIS
  Energy and wave function converged.


  ==> Post-Iterations <==

    Orbital Energies [Eh]
    ---------------------

    Doubly Occupied:                                                      

       1Ap   -10.187733     2Ap   -10.187447     3Ap   -10.187443  
       4Ap    -0.845091     5Ap    -0.593172     6Ap    -0.593168  
       1App   -0.489031     7Ap    -0.460333     2App   -0.361123  
       3App   -0.361110     8Ap    -0.292648     9Ap    -0.292642  

    Virtual:                                                              

      10Ap     0.066951     4App    0.078149    11Ap     0.110863  
      12Ap     0.110868    13Ap     0.142089     5App    0.180453  
       6App    0.180459    14Ap     0.242958    15Ap     0.242966  
      16Ap     0.380222     7App    0.393569    17Ap     0.478152  
      18Ap     0.478178    19Ap     0.530137    20Ap     0.557324  
      21Ap     0.557327    22Ap     0.616489     8App    0.637757  
       9App    0.637793    10App    0.659304    11App    0.662936  
      12App    0.662956    23Ap     0.680689    24Ap     0.680694  
      25Ap     0.797690    13App    1.132000    26Ap     1.171848  
      27Ap     1.171852    14App    1.191092    15App    1.191101  
      28Ap     1.192291    16App    1.436779    29Ap     1.458021  
      30Ap     1.458045    31Ap     1.555293    32Ap     1.555309  
      17App    1.575050    18App    1.575091    19App    1.603677  
      33Ap     1.714100    34Ap     1.719520    20App    1.728153  
      21App    1.728169    35Ap     1.778813    36Ap     1.778824  
      37Ap     1.921093    38Ap     1.921102    39Ap     2.073423  
      40Ap     2.089072    22App    2.091301    23App    2.091304  
      41Ap     2.282955    42Ap     2.283003    24App    2.310929  
      43Ap     2.361407    25App    2.419478    44Ap     2.575586  
      45Ap     2.575666    26App    2.754770    27App    2.754789  

    Final Occupation by Irrep:
             Ap   App 
    DOCC [     9,    3 ]

  @DF-RKS Final Energy:  -117.89794807875630

   => Energetics <=

    Nuclear Repulsion Energy =             75.2814648090140253
    One-Electron Energy =                -305.8905448339570512
    Two-Electron Energy =                 127.6862357820590717
    DFT Exchange-Correlation Energy =     -14.9751038358723658
    Empirical Dispersion Energy =           0.0000000000000000
    VV10 Nonlocal Energy =                  0.0000000000000000
    Total Energy =                       -117.8979480787563006

Computation Completed


Properties will be evaluated at   0.000000,   0.000000,   0.000000 [a0]

Properties computed using the SCF density matrix

  Nuclear Dipole Moment: [e a0]
     X:    -0.0002      Y:    -0.0002      Z:     0.0000

  Electronic Dipole Moment: [e a0]
     X:     0.0002      Y:     0.0001      Z:     0.0000

  Dipole Moment: [e a0]
     X:    -0.0000      Y:    -0.0000      Z:     0.0000     Total:     0.0000

  Dipole Moment: [D]
     X:    -0.0001      Y:    -0.0000      Z:     0.0000     Total:     0.0001


*** tstop() called on atlantis at Tue Apr 19 14:57:37 2022
Module time:
	user time   =       4.25 seconds =       0.07 minutes
	system time =       0.04 seconds =       0.00 minutes
	total time  =          4 seconds =       0.07 minutes
Total time:
	user time   =       7.51 seconds =       0.13 minutes
	system time =       0.16 seconds =       0.00 minutes
	total time  =          7 seconds =       0.12 minutes

*** tstart() called on atlantis
*** at Tue Apr 19 14:57:37 2022


         ------------------------------------------------------------
                                   SCF GRAD                          
                          Rob Parrish, Justin Turney,                
                       Andy Simmonett, and Alex Sokolov              
         ------------------------------------------------------------

  ==> Geometry <==

    Molecular point group: cs
    Full point group: Cs

    Geometry (in Angstrom), charge = 0, multiplicity = 1:

       Center              X                  Y                   Z               Mass       
    ------------   -----------------  -----------------  -----------------  -----------------
         C            0.321531939855     0.813261460475     0.000000000000    12.000000000000
         C           -0.865048060145    -0.128168539525     0.000000000000    12.000000000000
         C            0.543531939855    -0.685078539525     0.000000000000    12.000000000000
         H            0.537951939855     1.360691460475    -0.920390000000     1.007825032230
         H            0.537951939855     1.360691460475     0.920390000000     1.007825032230
         H           -1.447418060145    -0.214488539525     0.920340000000     1.007825032230
         H           -1.447418060145    -0.214488539525    -0.920340000000     1.007825032230
         H            0.909371939855    -1.146288539525    -0.920370000000     1.007825032230
         H            0.909371939855    -1.146288539525     0.920370000000     1.007825032230

  Nuclear repulsion =   75.281464809014025

  ==> Basis Set <==

  Basis Set: CC-PVDZ
    Blend: CC-PVDZ
    Number of shells: 36
    Number of basis function: 72
    Number of Cartesian functions: 75
    Spherical Harmonics?: true
    Max angular momentum: 2

  ==> DFJKGrad: Density-Fitted SCF Gradients <==

    Gradient:                    1
    J tasked:                  Yes
    K tasked:                  Yes
    wK tasked:                  No
    OpenMP threads:              1
    Integrals threads:           1
    Memory [MiB]:              375
    Schwarz Cutoff:          0E+00
    Fitting Condition:       1E-10

   => Auxiliary Basis Set <=

  Basis Set: (CC-PVDZ AUX)
    Blend: CC-PVDZ-JKFIT
    Number of shells: 126
    Number of basis function: 348
    Number of Cartesian functions: 393
    Spherical Harmonics?: true
    Max angular momentum: 3

  ==> DFT Potential <==

   => Composite Functional: B3LYP <= 

    B3LYP Hyb-GGA Exchange-Correlation Functional

    P. J. Stephens, F. J. Devlin, C. F. Chabalowski, and M. J. Frisch, J. Phys. Chem. 98, 11623 (1994)

    Deriv               =              1
    GGA                 =           TRUE
    Meta                =          FALSE

    Exchange Hybrid     =           TRUE
    MP2 Hybrid          =          FALSE

   => Exchange Functionals <=

    0.0800   Slater exchange
    0.7200         Becke 88

   => Exact (HF) Exchange <=

    0.2000               HF 

   => Correlation Functionals <=

    0.1900   Vosko, Wilk & Nusair (VWN5_RPA)
    0.8100   Lee, Yang & Parr

   => Molecular Quadrature <=

    Radial Scheme          =       TREUTLER
    Pruning Scheme         =           FLAT
    Nuclear Scheme         =       TREUTLER

    BS radius alpha        =              1
    Pruning alpha          =              1
    Radial Points          =             75
    Spherical Points       =            302
    Total Points           =         200365
    Total Blocks           =           1566
    Max Points             =            256
    Max Functions          =             72


  -Total Gradient:
     Atom            X                  Y                   Z
    ------   -----------------  -----------------  -----------------
       1        0.001414527426     0.003591449409     0.000000000000
       2       -0.003792249915    -0.000560543734     0.000000000000
       3        0.002394958110    -0.003012631902     0.000000000000
       4       -0.000217003844    -0.000545169032    -0.000294664764
       5       -0.000217003844    -0.000545169032     0.000294664764
       6        0.000573069460     0.000081174705     0.000285846532
       7        0.000573069460     0.000081174705    -0.000285846532
       8       -0.000365740545     0.000453948419    -0.000291439408
       9       -0.000365740545     0.000453948419     0.000291439408


*** tstop() called on atlantis at Tue Apr 19 14:57:39 2022
Module time:
	user time   =       1.20 seconds =       0.02 minutes
	system time =       0.00 seconds =       0.00 minutes
	total time  =          2 seconds =       0.03 minutes
Total time:
	user time   =       8.71 seconds =       0.15 minutes
	system time =       0.16 seconds =       0.00 minutes
	total time  =          9 seconds =       0.15 minutes

  Based on options and gradient (rms=1.32E-03), recommend projecting translations and projecting rotations.
hessian() will perform frequency computation by finite difference of analytic gradients.

         ----------------------------------------------------------
                                   FINDIF
                     R. A. King and Jonathon Misiewicz
         ---------------------------------------------------------

  Using finite-differences of gradients to determine vibrational frequencies and 
  normal modes.  Resulting frequencies are only valid at stationary points.
    Generating geometries for use with 3-point formula.
    Displacement size will be 5.00e-03.
    Number of atoms is 9.
    Number of irreps is 2.
    Number of SALCs is 21.
    Translations projected? 1. Rotations projected? 1.
    Index of SALCs per irrep:
     1 :  0  1  2  3  4  5  6  7  8  9  10  11 
     2 :  12  13  14  15  16  17  18  19  20 
    Number of SALCs per irrep:
     Irrep 1: 12
     Irrep 2: 9
    Number of geometries (including reference) is 34.
    Number of displacements per irrep:
      Irrep 1: 24
      Irrep 2: 9

  //>>>>>>>>>>>>>>>>>>>>>>>>>>>>>>>>>>>//
  //    Loading displacement 1 of 34   //
  //<<<<<<<<<<<<<<<<<<<<<<<<<<<<<<<<<<<//
gradient() will perform analytic gradient computation.

*** tstart() called on atlantis
*** at Tue Apr 19 14:57:39 2022

   => Loading Basis Set <=

    Name: CC-PVDZ
    Role: ORBITAL
    Keyword: BASIS
    atoms 1-3 entry C          line   138 file /home/akrom/software/anaconda3/envs/ffpenv/share/psi4/basis/cc-pvdz.gbs 
    atoms 4-9 entry H          line    22 file /home/akrom/software/anaconda3/envs/ffpenv/share/psi4/basis/cc-pvdz.gbs 


         ---------------------------------------------------------
                                   SCF
               by Justin Turney, Rob Parrish, Andy Simmonett
                          and Daniel G. A. Smith
                              RKS Reference
                        1 Threads,    500 MiB Core
         ---------------------------------------------------------

  ==> Geometry <==

    Molecular point group: cs
    Full point group: Cs

    Geometry (in Angstrom), charge = 0, multiplicity = 1:

       Center              X                  Y                   Z               Mass       
    ------------   -----------------  -----------------  -----------------  -----------------
         C            0.321531939855     0.813261460475     0.000000000000    12.000000000000
         C           -0.865048060145    -0.128168539525     0.000000000000    12.000000000000
         C            0.543531939855    -0.685078539525     0.000000000000    12.000000000000
         H            0.537951939855     1.360691460475    -0.920390000000     1.007825032230
         H            0.537951939855     1.360691460475     0.920390000000     1.007825032230
         H           -1.447418060145    -0.214488539525     0.920340000000     1.007825032230
         H           -1.447418060145    -0.214488539525    -0.920340000000     1.007825032230
         H            0.909371939855    -1.146288539525    -0.920370000000     1.007825032230
         H            0.909371939855    -1.146288539525     0.920370000000     1.007825032230

  Running in cs symmetry.

  Rotational constants: A =      0.66472  B =      0.66470  C =      0.41647 [cm^-1]
  Rotational constants: A =  19927.70596  B =  19927.20236  C =  12485.44714 [MHz]
  Nuclear repulsion =   75.281464809014025

  Charge       = 0
  Multiplicity = 1
  Electrons    = 24
  Nalpha       = 12
  Nbeta        = 12

  ==> Algorithm <==

  SCF Algorithm Type is DF.
  DIIS enabled.
  MOM disabled.
  Fractional occupation disabled.
  Guess Type is SAD.
  Energy threshold   = 1.00e-08
  Density threshold  = 1.00e-08
  Integral threshold = 0.00e+00

  ==> Primary Basis <==

  Basis Set: CC-PVDZ
    Blend: CC-PVDZ
    Number of shells: 36
    Number of basis function: 72
    Number of Cartesian functions: 75
    Spherical Harmonics?: true
    Max angular momentum: 2

  ==> DFT Potential <==

   => Composite Functional: B3LYP <= 

    B3LYP Hyb-GGA Exchange-Correlation Functional

    P. J. Stephens, F. J. Devlin, C. F. Chabalowski, and M. J. Frisch, J. Phys. Chem. 98, 11623 (1994)

    Deriv               =              1
    GGA                 =           TRUE
    Meta                =          FALSE

    Exchange Hybrid     =           TRUE
    MP2 Hybrid          =          FALSE

   => Exchange Functionals <=

    0.0800   Slater exchange
    0.7200         Becke 88

   => Exact (HF) Exchange <=

    0.2000               HF 

   => Correlation Functionals <=

    0.1900   Vosko, Wilk & Nusair (VWN5_RPA)
    0.8100   Lee, Yang & Parr

   => Molecular Quadrature <=

    Radial Scheme          =       TREUTLER
    Pruning Scheme         =           FLAT
    Nuclear Scheme         =       TREUTLER

    BS radius alpha        =              1
    Pruning alpha          =              1
    Radial Points          =             75
    Spherical Points       =            302
    Total Points           =         200365
    Total Blocks           =           1566
    Max Points             =            256
    Max Functions          =             72

   => Loading Basis Set <=

    Name: (CC-PVDZ AUX)
    Role: JKFIT
    Keyword: DF_BASIS_SCF
    atoms 1-3 entry C          line   121 file /home/akrom/software/anaconda3/envs/ffpenv/share/psi4/basis/cc-pvdz-jkfit.gbs 
    atoms 4-9 entry H          line    51 file /home/akrom/software/anaconda3/envs/ffpenv/share/psi4/basis/cc-pvdz-jkfit.gbs 

  ==> Pre-Iterations <==

   -------------------------------------------------------
    Irrep   Nso     Nmo     Nalpha   Nbeta   Ndocc  Nsocc
   -------------------------------------------------------
     A'        45      45       0       0       0       0
     A"        27      27       0       0       0       0
   -------------------------------------------------------
    Total      72      72      12      12      12       0
   -------------------------------------------------------

  ==> Integral Setup <==

  DFHelper Memory: AOs need 0.015 GiB; user supplied 0.015 GiB. Using in-core AOs.

  ==> MemDFJK: Density-Fitted J/K Matrices <==

    J tasked:                   Yes
    K tasked:                   Yes
    wK tasked:                   No
    OpenMP threads:               1
    Memory [MiB]:                15
    Algorithm:                 Core
    Schwarz Cutoff:           1E-12
    Mask sparsity (%):       0.0000
    Fitting Condition:        1E-10

   => Auxiliary Basis Set <=

  Basis Set: (CC-PVDZ AUX)
    Blend: CC-PVDZ-JKFIT
    Number of shells: 126
    Number of basis function: 348
    Number of Cartesian functions: 393
    Spherical Harmonics?: true
    Max angular momentum: 3

  Cached 100.0% of DFT collocation blocks in 0.397 [GiB].

  Minimum eigenvalue in the overlap matrix is 5.9278925342E-03.
  Using Symmetric Orthogonalization.

  SCF Guess: Superposition of Atomic Densities via on-the-fly atomic UHF.

  ==> Iterations <==

                           Total Energy        Delta E     RMS |[F,P]|

   @DF-RKS iter SAD:  -117.51498280035148   -1.17515e+02   0.00000e+00 
   @DF-RKS iter   1:  -117.58890667156086   -7.39239e-02   1.40089e-02 DIIS
   @DF-RKS iter   2:  -117.40362546385954    1.85281e-01   1.79453e-02 DIIS
   @DF-RKS iter   3:  -117.89757458369552   -4.93949e-01   5.30551e-04 DIIS
   @DF-RKS iter   4:  -117.89792649178059   -3.51908e-04   1.24554e-04 DIIS
   @DF-RKS iter   5:  -117.89794790301981   -2.14112e-05   1.03636e-05 DIIS
   @DF-RKS iter   6:  -117.89794807856768   -1.75548e-07   2.72678e-07 DIIS
   @DF-RKS iter   7:  -117.89794807875407   -1.86390e-10   3.42875e-08 DIIS
   @DF-RKS iter   8:  -117.89794807875560   -1.53477e-12   2.12507e-08 DIIS
   @DF-RKS iter   9:  -117.89794807875624   -6.39488e-13   2.77033e-09 DIIS
  Energy and wave function converged.


  ==> Post-Iterations <==

    Orbital Energies [Eh]
    ---------------------

    Doubly Occupied:                                                      

       1Ap   -10.187733     2Ap   -10.187447     3Ap   -10.187443  
       4Ap    -0.845091     5Ap    -0.593172     6Ap    -0.593168  
       1App   -0.489031     7Ap    -0.460333     2App   -0.361123  
       3App   -0.361110     8Ap    -0.292648     9Ap    -0.292642  

    Virtual:                                                              

      10Ap     0.066951     4App    0.078149    11Ap     0.110863  
      12Ap     0.110868    13Ap     0.142089     5App    0.180453  
       6App    0.180459    14Ap     0.242958    15Ap     0.242966  
      16Ap     0.380222     7App    0.393569    17Ap     0.478152  
      18Ap     0.478178    19Ap     0.530137    20Ap     0.557324  
      21Ap     0.557327    22Ap     0.616489     8App    0.637757  
       9App    0.637793    10App    0.659304    11App    0.662936  
      12App    0.662956    23Ap     0.680689    24Ap     0.680694  
      25Ap     0.797690    13App    1.132000    26Ap     1.171848  
      27Ap     1.171852    14App    1.191092    15App    1.191101  
      28Ap     1.192291    16App    1.436779    29Ap     1.458021  
      30Ap     1.458045    31Ap     1.555293    32Ap     1.555309  
      17App    1.575050    18App    1.575091    19App    1.603677  
      33Ap     1.714100    34Ap     1.719520    20App    1.728153  
      21App    1.728169    35Ap     1.778813    36Ap     1.778824  
      37Ap     1.921093    38Ap     1.921102    39Ap     2.073423  
      40Ap     2.089072    22App    2.091301    23App    2.091304  
      41Ap     2.282955    42Ap     2.283003    24App    2.310929  
      43Ap     2.361407    25App    2.419478    44Ap     2.575586  
      45Ap     2.575666    26App    2.754770    27App    2.754789  

    Final Occupation by Irrep:
             Ap   App 
    DOCC [     9,    3 ]

  @DF-RKS Final Energy:  -117.89794807875624

   => Energetics <=

    Nuclear Repulsion Energy =             75.2814648090140253
    One-Electron Energy =                -305.8905448339570512
    Two-Electron Energy =                 127.6862357820591285
    DFT Exchange-Correlation Energy =     -14.9751038358723623
    Empirical Dispersion Energy =           0.0000000000000000
    VV10 Nonlocal Energy =                  0.0000000000000000
    Total Energy =                       -117.8979480787562437

Computation Completed


Properties will be evaluated at   0.000000,   0.000000,   0.000000 [a0]

Properties computed using the SCF density matrix

  Nuclear Dipole Moment: [e a0]
     X:    -0.0002      Y:    -0.0002      Z:     0.0000

  Electronic Dipole Moment: [e a0]
     X:     0.0002      Y:     0.0001      Z:     0.0000

  Dipole Moment: [e a0]
     X:    -0.0000      Y:    -0.0000      Z:     0.0000     Total:     0.0000

  Dipole Moment: [D]
     X:    -0.0001      Y:    -0.0000      Z:     0.0000     Total:     0.0001


*** tstop() called on atlantis at Tue Apr 19 14:57:43 2022
Module time:
	user time   =       4.26 seconds =       0.07 minutes
	system time =       0.04 seconds =       0.00 minutes
	total time  =          4 seconds =       0.07 minutes
Total time:
	user time   =      13.26 seconds =       0.22 minutes
	system time =       0.20 seconds =       0.00 minutes
	total time  =         13 seconds =       0.22 minutes

*** tstart() called on atlantis
*** at Tue Apr 19 14:57:43 2022


         ------------------------------------------------------------
                                   SCF GRAD                          
                          Rob Parrish, Justin Turney,                
                       Andy Simmonett, and Alex Sokolov              
         ------------------------------------------------------------

  ==> Geometry <==

    Molecular point group: cs
    Full point group: Cs

    Geometry (in Angstrom), charge = 0, multiplicity = 1:

       Center              X                  Y                   Z               Mass       
    ------------   -----------------  -----------------  -----------------  -----------------
         C            0.321531939855     0.813261460475     0.000000000000    12.000000000000
         C           -0.865048060145    -0.128168539525     0.000000000000    12.000000000000
         C            0.543531939855    -0.685078539525     0.000000000000    12.000000000000
         H            0.537951939855     1.360691460475    -0.920390000000     1.007825032230
         H            0.537951939855     1.360691460475     0.920390000000     1.007825032230
         H           -1.447418060145    -0.214488539525     0.920340000000     1.007825032230
         H           -1.447418060145    -0.214488539525    -0.920340000000     1.007825032230
         H            0.909371939855    -1.146288539525    -0.920370000000     1.007825032230
         H            0.909371939855    -1.146288539525     0.920370000000     1.007825032230

  Nuclear repulsion =   75.281464809014025

  ==> Basis Set <==

  Basis Set: CC-PVDZ
    Blend: CC-PVDZ
    Number of shells: 36
    Number of basis function: 72
    Number of Cartesian functions: 75
    Spherical Harmonics?: true
    Max angular momentum: 2

  ==> DFJKGrad: Density-Fitted SCF Gradients <==

    Gradient:                    1
    J tasked:                  Yes
    K tasked:                  Yes
    wK tasked:                  No
    OpenMP threads:              1
    Integrals threads:           1
    Memory [MiB]:              375
    Schwarz Cutoff:          0E+00
    Fitting Condition:       1E-10

   => Auxiliary Basis Set <=

  Basis Set: (CC-PVDZ AUX)
    Blend: CC-PVDZ-JKFIT
    Number of shells: 126
    Number of basis function: 348
    Number of Cartesian functions: 393
    Spherical Harmonics?: true
    Max angular momentum: 3

  ==> DFT Potential <==

   => Composite Functional: B3LYP <= 

    B3LYP Hyb-GGA Exchange-Correlation Functional

    P. J. Stephens, F. J. Devlin, C. F. Chabalowski, and M. J. Frisch, J. Phys. Chem. 98, 11623 (1994)

    Deriv               =              1
    GGA                 =           TRUE
    Meta                =          FALSE

    Exchange Hybrid     =           TRUE
    MP2 Hybrid          =          FALSE

   => Exchange Functionals <=

    0.0800   Slater exchange
    0.7200         Becke 88

   => Exact (HF) Exchange <=

    0.2000               HF 

   => Correlation Functionals <=

    0.1900   Vosko, Wilk & Nusair (VWN5_RPA)
    0.8100   Lee, Yang & Parr

   => Molecular Quadrature <=

    Radial Scheme          =       TREUTLER
    Pruning Scheme         =           FLAT
    Nuclear Scheme         =       TREUTLER

    BS radius alpha        =              1
    Pruning alpha          =              1
    Radial Points          =             75
    Spherical Points       =            302
    Total Points           =         200365
    Total Blocks           =           1566
    Max Points             =            256
    Max Functions          =             72


  -Total Gradient:
     Atom            X                  Y                   Z
    ------   -----------------  -----------------  -----------------
       1        0.001414527424     0.003591449378     0.000000000000
       2       -0.003792249854    -0.000560543705     0.000000000000
       3        0.002394958102    -0.003012631848     0.000000000000
       4       -0.000217003866    -0.000545169086    -0.000294664674
       5       -0.000217003866    -0.000545169086     0.000294664674
       6        0.000573069477     0.000081174707     0.000285846505
       7        0.000573069477     0.000081174707    -0.000285846505
       8       -0.000365740565     0.000453948444    -0.000291439359
       9       -0.000365740565     0.000453948444     0.000291439359


*** tstop() called on atlantis at Tue Apr 19 14:57:45 2022
Module time:
	user time   =       1.20 seconds =       0.02 minutes
	system time =       0.00 seconds =       0.00 minutes
	total time  =          2 seconds =       0.03 minutes
Total time:
	user time   =      14.46 seconds =       0.24 minutes
	system time =       0.20 seconds =       0.00 minutes
	total time  =         15 seconds =       0.25 minutes

  //>>>>>>>>>>>>>>>>>>>>>>>>>>>>>>>>>>>//
  //    Loading displacement 2 of 34   //
  //<<<<<<<<<<<<<<<<<<<<<<<<<<<<<<<<<<<//
gradient() will perform analytic gradient computation.

*** tstart() called on atlantis
*** at Tue Apr 19 14:57:45 2022

   => Loading Basis Set <=

    Name: CC-PVDZ
    Role: ORBITAL
    Keyword: BASIS
    atoms 1-3 entry C          line   138 file /home/akrom/software/anaconda3/envs/ffpenv/share/psi4/basis/cc-pvdz.gbs 
    atoms 4-9 entry H          line    22 file /home/akrom/software/anaconda3/envs/ffpenv/share/psi4/basis/cc-pvdz.gbs 


         ---------------------------------------------------------
                                   SCF
               by Justin Turney, Rob Parrish, Andy Simmonett
                          and Daniel G. A. Smith
                              RKS Reference
                        1 Threads,    500 MiB Core
         ---------------------------------------------------------

  ==> Geometry <==

    Molecular point group: cs
    Full point group: Cs

    Geometry (in Angstrom), charge = 0, multiplicity = 1:

       Center              X                  Y                   Z               Mass       
    ------------   -----------------  -----------------  -----------------  -----------------
         C            0.320981935461     0.813179232929     0.000000000000    12.000000000000
         C           -0.864778117207    -0.127947314912     0.000000000000    12.000000000000
         C            0.543659460418    -0.685217540638     0.000000000000    12.000000000000
         H            0.538602639069     1.360553886373    -0.920390000000     1.007825032230
         H            0.538602639069     1.360553886373     0.920390000000     1.007825032230
         H           -1.447170192407    -0.214118381478     0.920340000000     1.007825032230
         H           -1.447170192407    -0.214118381478    -0.920340000000     1.007825032230
         H            0.909381512053    -1.146521099385    -0.920370000000     1.007825032230
         H            0.909381512053    -1.146521099385     0.920370000000     1.007825032230

  Running in cs symmetry.

  Rotational constants: A =      0.66511  B =      0.66452  C =      0.41655 [cm^-1]
  Rotational constants: A =  19939.46144  B =  19921.88173  C =  12487.97026 [MHz]
  Nuclear repulsion =   75.286659304380962

  Charge       = 0
  Multiplicity = 1
  Electrons    = 24
  Nalpha       = 12
  Nbeta        = 12

  ==> Algorithm <==

  SCF Algorithm Type is DF.
  DIIS enabled.
  MOM disabled.
  Fractional occupation disabled.
  Guess Type is SAD.
  Energy threshold   = 1.00e-08
  Density threshold  = 1.00e-08
  Integral threshold = 0.00e+00

  ==> Primary Basis <==

  Basis Set: CC-PVDZ
    Blend: CC-PVDZ
    Number of shells: 36
    Number of basis function: 72
    Number of Cartesian functions: 75
    Spherical Harmonics?: true
    Max angular momentum: 2

  ==> DFT Potential <==

   => Composite Functional: B3LYP <= 

    B3LYP Hyb-GGA Exchange-Correlation Functional

    P. J. Stephens, F. J. Devlin, C. F. Chabalowski, and M. J. Frisch, J. Phys. Chem. 98, 11623 (1994)

    Deriv               =              1
    GGA                 =           TRUE
    Meta                =          FALSE

    Exchange Hybrid     =           TRUE
    MP2 Hybrid          =          FALSE

   => Exchange Functionals <=

    0.0800   Slater exchange
    0.7200         Becke 88

   => Exact (HF) Exchange <=

    0.2000               HF 

   => Correlation Functionals <=

    0.1900   Vosko, Wilk & Nusair (VWN5_RPA)
    0.8100   Lee, Yang & Parr

   => Molecular Quadrature <=

    Radial Scheme          =       TREUTLER
    Pruning Scheme         =           FLAT
    Nuclear Scheme         =       TREUTLER

    BS radius alpha        =              1
    Pruning alpha          =              1
    Radial Points          =             75
    Spherical Points       =            302
    Total Points           =         200383
    Total Blocks           =           1541
    Max Points             =            256
    Max Functions          =             72

   => Loading Basis Set <=

    Name: (CC-PVDZ AUX)
    Role: JKFIT
    Keyword: DF_BASIS_SCF
    atoms 1-3 entry C          line   121 file /home/akrom/software/anaconda3/envs/ffpenv/share/psi4/basis/cc-pvdz-jkfit.gbs 
    atoms 4-9 entry H          line    51 file /home/akrom/software/anaconda3/envs/ffpenv/share/psi4/basis/cc-pvdz-jkfit.gbs 

  ==> Pre-Iterations <==

   -------------------------------------------------------
    Irrep   Nso     Nmo     Nalpha   Nbeta   Ndocc  Nsocc
   -------------------------------------------------------
     A'        45      45       0       0       0       0
     A"        27      27       0       0       0       0
   -------------------------------------------------------
    Total      72      72      12      12      12       0
   -------------------------------------------------------

  ==> Integral Setup <==

  DFHelper Memory: AOs need 0.015 GiB; user supplied 0.015 GiB. Using in-core AOs.

  ==> MemDFJK: Density-Fitted J/K Matrices <==

    J tasked:                   Yes
    K tasked:                   Yes
    wK tasked:                   No
    OpenMP threads:               1
    Memory [MiB]:                15
    Algorithm:                 Core
    Schwarz Cutoff:           1E-12
    Mask sparsity (%):       0.0000
    Fitting Condition:        1E-10

   => Auxiliary Basis Set <=

  Basis Set: (CC-PVDZ AUX)
    Blend: CC-PVDZ-JKFIT
    Number of shells: 126
    Number of basis function: 348
    Number of Cartesian functions: 393
    Spherical Harmonics?: true
    Max angular momentum: 3

  Cached 100.0% of DFT collocation blocks in 0.397 [GiB].

  Minimum eigenvalue in the overlap matrix is 5.9169040177E-03.
  Using Symmetric Orthogonalization.

  SCF Guess: Superposition of Atomic Densities via on-the-fly atomic UHF.

  ==> Iterations <==

                           Total Energy        Delta E     RMS |[F,P]|

   @DF-RKS iter SAD:  -117.51547312920512   -1.17515e+02   0.00000e+00 
   @DF-RKS iter   1:  -117.58876038660500   -7.32873e-02   1.40126e-02 DIIS
   @DF-RKS iter   2:  -117.40319956279450    1.85561e-01   1.79531e-02 DIIS
   @DF-RKS iter   3:  -117.89757836162732   -4.94379e-01   5.30397e-04 DIIS
   @DF-RKS iter   4:  -117.89793003984381   -3.51678e-04   1.24597e-04 DIIS
   @DF-RKS iter   5:  -117.89795146162399   -2.14218e-05   1.04549e-05 DIIS
   @DF-RKS iter   6:  -117.89795163591447   -1.74290e-07   1.70475e-06 DIIS
   @DF-RKS iter   7:  -117.89795163832088   -2.40641e-09   1.11101e-06 DIIS
   @DF-RKS iter   8:  -117.89795164005102   -1.73014e-09   1.97622e-08 DIIS
   @DF-RKS iter   9:  -117.89795164005167   -6.53699e-13   1.54755e-09 DIIS
  Energy and wave function converged.


  ==> Post-Iterations <==

    Orbital Energies [Eh]
    ---------------------

    Doubly Occupied:                                                      

       1Ap   -10.187725     2Ap   -10.187445     3Ap   -10.187426  
       4Ap    -0.845190     5Ap    -0.593191     6Ap    -0.593115  
       1App   -0.489039     7Ap    -0.460380     2App   -0.361121  
       3App   -0.361018     8Ap    -0.292867     9Ap    -0.292487  

    Virtual:                                                              

      10Ap     0.066949     4App    0.078107    11Ap     0.110854  
      12Ap     0.110876    13Ap     0.142168     5App    0.180445  
       6App    0.180468    14Ap     0.242857    15Ap     0.243183  
      16Ap     0.380203     7App    0.393562    17Ap     0.478103  
      18Ap     0.478210    19Ap     0.530074    20Ap     0.557273  
      21Ap     0.557601    22Ap     0.616512     8App    0.637491  
       9App    0.637958    10App    0.659258    11App    0.662824  
      12App    0.663046    23Ap     0.680639    24Ap     0.680708  
      25Ap     0.797686    13App    1.132040    26Ap     1.171899  
      27Ap     1.171936    14App    1.191080    15App    1.191160  
      28Ap     1.192264    16App    1.436741    29Ap     1.458066  
      30Ap     1.458169    31Ap     1.555286    32Ap     1.555302  
      17App    1.575073    18App    1.575164    19App    1.603709  
      33Ap     1.714108    34Ap     1.719640    20App    1.727843  
      21App    1.728337    35Ap     1.778632    36Ap     1.779243  
      37Ap     1.921045    38Ap     1.921311    39Ap     2.073481  
      40Ap     2.089028    22App    2.091121    23App    2.091303  
      41Ap     2.282802    42Ap     2.283224    24App    2.310946  
      43Ap     2.361171    25App    2.419407    44Ap     2.575042  
      45Ap     2.575814    26App    2.754327    27App    2.755370  

    Final Occupation by Irrep:
             Ap   App 
    DOCC [     9,    3 ]

  @DF-RKS Final Energy:  -117.89795164005167

   => Energetics <=

    Nuclear Repulsion Energy =             75.2866593043809615
    One-Electron Energy =                -305.9007638238726940
    Two-Electron Energy =                 127.6913271935313929
    DFT Exchange-Correlation Energy =     -14.9751743140913511
    Empirical Dispersion Energy =           0.0000000000000000
    VV10 Nonlocal Energy =                  0.0000000000000000
    Total Energy =                       -117.8979516400516729

Computation Completed


Properties will be evaluated at   0.000000,   0.000000,   0.000000 [a0]

Properties computed using the SCF density matrix

  Nuclear Dipole Moment: [e a0]
     X:     0.0015      Y:    -0.0002      Z:     0.0000

  Electronic Dipole Moment: [e a0]
     X:    -0.0017      Y:     0.0003      Z:     0.0000

  Dipole Moment: [e a0]
     X:    -0.0002      Y:     0.0001      Z:     0.0000     Total:     0.0002

  Dipole Moment: [D]
     X:    -0.0004      Y:     0.0004      Z:     0.0000     Total:     0.0005


*** tstop() called on atlantis at Tue Apr 19 14:57:49 2022
Module time:
	user time   =       4.21 seconds =       0.07 minutes
	system time =       0.04 seconds =       0.00 minutes
	total time  =          4 seconds =       0.07 minutes
Total time:
	user time   =      18.67 seconds =       0.31 minutes
	system time =       0.24 seconds =       0.00 minutes
	total time  =         19 seconds =       0.32 minutes

*** tstart() called on atlantis
*** at Tue Apr 19 14:57:49 2022


         ------------------------------------------------------------
                                   SCF GRAD                          
                          Rob Parrish, Justin Turney,                
                       Andy Simmonett, and Alex Sokolov              
         ------------------------------------------------------------

  ==> Geometry <==

    Molecular point group: cs
    Full point group: Cs

    Geometry (in Angstrom), charge = 0, multiplicity = 1:

       Center              X                  Y                   Z               Mass       
    ------------   -----------------  -----------------  -----------------  -----------------
         C            0.320981935461     0.813179232929     0.000000000000    12.000000000000
         C           -0.864778117207    -0.127947314912     0.000000000000    12.000000000000
         C            0.543659460418    -0.685217540638     0.000000000000    12.000000000000
         H            0.538602639069     1.360553886373    -0.920390000000     1.007825032230
         H            0.538602639069     1.360553886373     0.920390000000     1.007825032230
         H           -1.447170192407    -0.214118381478     0.920340000000     1.007825032230
         H           -1.447170192407    -0.214118381478    -0.920340000000     1.007825032230
         H            0.909381512053    -1.146521099385    -0.920370000000     1.007825032230
         H            0.909381512053    -1.146521099385     0.920370000000     1.007825032230

  Nuclear repulsion =   75.286659304380962

  ==> Basis Set <==

  Basis Set: CC-PVDZ
    Blend: CC-PVDZ
    Number of shells: 36
    Number of basis function: 72
    Number of Cartesian functions: 75
    Spherical Harmonics?: true
    Max angular momentum: 2

  ==> DFJKGrad: Density-Fitted SCF Gradients <==

    Gradient:                    1
    J tasked:                  Yes
    K tasked:                  Yes
    wK tasked:                  No
    OpenMP threads:              1
    Integrals threads:           1
    Memory [MiB]:              375
    Schwarz Cutoff:          0E+00
    Fitting Condition:       1E-10

   => Auxiliary Basis Set <=

  Basis Set: (CC-PVDZ AUX)
    Blend: CC-PVDZ-JKFIT
    Number of shells: 126
    Number of basis function: 348
    Number of Cartesian functions: 393
    Spherical Harmonics?: true
    Max angular momentum: 3

  ==> DFT Potential <==

   => Composite Functional: B3LYP <= 

    B3LYP Hyb-GGA Exchange-Correlation Functional

    P. J. Stephens, F. J. Devlin, C. F. Chabalowski, and M. J. Frisch, J. Phys. Chem. 98, 11623 (1994)

    Deriv               =              1
    GGA                 =           TRUE
    Meta                =          FALSE

    Exchange Hybrid     =           TRUE
    MP2 Hybrid          =          FALSE

   => Exchange Functionals <=

    0.0800   Slater exchange
    0.7200         Becke 88

   => Exact (HF) Exchange <=

    0.2000               HF 

   => Correlation Functionals <=

    0.1900   Vosko, Wilk & Nusair (VWN5_RPA)
    0.8100   Lee, Yang & Parr

   => Molecular Quadrature <=

    Radial Scheme          =       TREUTLER
    Pruning Scheme         =           FLAT
    Nuclear Scheme         =       TREUTLER

    BS radius alpha        =              1
    Pruning alpha          =              1
    Radial Points          =             75
    Spherical Points       =            302
    Total Points           =         200383
    Total Blocks           =           1541
    Max Points             =            256
    Max Functions          =             72


  -Total Gradient:
     Atom            X                  Y                   Z
    ------   -----------------  -----------------  -----------------
       1        0.000885272118     0.003310144658     0.000000000000
       2       -0.003525076343    -0.000408425689     0.000000000000
       3        0.002436941194    -0.003022998545     0.000000000000
       4       -0.000126022552    -0.000482678039    -0.000391244747
       5       -0.000126022552    -0.000482678039     0.000391244747
       6        0.000590533340     0.000105089479     0.000291748944
       7        0.000590533340     0.000105089479    -0.000291748944
       8       -0.000366533221     0.000433457383    -0.000287938148
       9       -0.000366533221     0.000433457383     0.000287938148


*** tstop() called on atlantis at Tue Apr 19 14:57:50 2022
Module time:
	user time   =       1.19 seconds =       0.02 minutes
	system time =       0.01 seconds =       0.00 minutes
	total time  =          1 seconds =       0.02 minutes
Total time:
	user time   =      19.86 seconds =       0.33 minutes
	system time =       0.25 seconds =       0.00 minutes
	total time  =         20 seconds =       0.33 minutes

  //>>>>>>>>>>>>>>>>>>>>>>>>>>>>>>>>>>>//
  //    Loading displacement 3 of 34   //
  //<<<<<<<<<<<<<<<<<<<<<<<<<<<<<<<<<<<//
gradient() will perform analytic gradient computation.

*** tstart() called on atlantis
*** at Tue Apr 19 14:57:50 2022

   => Loading Basis Set <=

    Name: CC-PVDZ
    Role: ORBITAL
    Keyword: BASIS
    atoms 1-3 entry C          line   138 file /home/akrom/software/anaconda3/envs/ffpenv/share/psi4/basis/cc-pvdz.gbs 
    atoms 4-9 entry H          line    22 file /home/akrom/software/anaconda3/envs/ffpenv/share/psi4/basis/cc-pvdz.gbs 


         ---------------------------------------------------------
                                   SCF
               by Justin Turney, Rob Parrish, Andy Simmonett
                          and Daniel G. A. Smith
                              RKS Reference
                        1 Threads,    500 MiB Core
         ---------------------------------------------------------

  ==> Geometry <==

    Molecular point group: cs
    Full point group: Cs

    Geometry (in Angstrom), charge = 0, multiplicity = 1:

       Center              X                  Y                   Z               Mass       
    ------------   -----------------  -----------------  -----------------  -----------------
         C            0.322081944250     0.813343688021     0.000000000000    12.000000000000
         C           -0.865318003082    -0.128389764139     0.000000000000    12.000000000000
         C            0.543404419293    -0.684939538412     0.000000000000    12.000000000000
         H            0.537301240642     1.360829034576    -0.920390000000     1.007825032230
         H            0.537301240642     1.360829034576     0.920390000000     1.007825032230
         H           -1.447665927882    -0.214858697572     0.920340000000     1.007825032230
         H           -1.447665927882    -0.214858697572    -0.920340000000     1.007825032230
         H            0.909362367658    -1.146055979665    -0.920370000000     1.007825032230
         H            0.909362367658    -1.146055979665     0.920370000000     1.007825032230

  Running in cs symmetry.

  Rotational constants: A =      0.66489  B =      0.66431  C =      0.41639 [cm^-1]
  Rotational constants: A =  19932.94970  B =  19915.53021  C =  12482.92073 [MHz]
  Nuclear repulsion =   75.276267816162189

  Charge       = 0
  Multiplicity = 1
  Electrons    = 24
  Nalpha       = 12
  Nbeta        = 12

  ==> Algorithm <==

  SCF Algorithm Type is DF.
  DIIS enabled.
  MOM disabled.
  Fractional occupation disabled.
  Guess Type is SAD.
  Energy threshold   = 1.00e-08
  Density threshold  = 1.00e-08
  Integral threshold = 0.00e+00

  ==> Primary Basis <==

  Basis Set: CC-PVDZ
    Blend: CC-PVDZ
    Number of shells: 36
    Number of basis function: 72
    Number of Cartesian functions: 75
    Spherical Harmonics?: true
    Max angular momentum: 2

  ==> DFT Potential <==

   => Composite Functional: B3LYP <= 

    B3LYP Hyb-GGA Exchange-Correlation Functional

    P. J. Stephens, F. J. Devlin, C. F. Chabalowski, and M. J. Frisch, J. Phys. Chem. 98, 11623 (1994)

    Deriv               =              1
    GGA                 =           TRUE
    Meta                =          FALSE

    Exchange Hybrid     =           TRUE
    MP2 Hybrid          =          FALSE

   => Exchange Functionals <=

    0.0800   Slater exchange
    0.7200         Becke 88

   => Exact (HF) Exchange <=

    0.2000               HF 

   => Correlation Functionals <=

    0.1900   Vosko, Wilk & Nusair (VWN5_RPA)
    0.8100   Lee, Yang & Parr

   => Molecular Quadrature <=

    Radial Scheme          =       TREUTLER
    Pruning Scheme         =           FLAT
    Nuclear Scheme         =       TREUTLER

    BS radius alpha        =              1
    Pruning alpha          =              1
    Radial Points          =             75
    Spherical Points       =            302
    Total Points           =         200383
    Total Blocks           =           1546
    Max Points             =            256
    Max Functions          =             72

   => Loading Basis Set <=

    Name: (CC-PVDZ AUX)
    Role: JKFIT
    Keyword: DF_BASIS_SCF
    atoms 1-3 entry C          line   121 file /home/akrom/software/anaconda3/envs/ffpenv/share/psi4/basis/cc-pvdz-jkfit.gbs 
    atoms 4-9 entry H          line    51 file /home/akrom/software/anaconda3/envs/ffpenv/share/psi4/basis/cc-pvdz-jkfit.gbs 

  ==> Pre-Iterations <==

   -------------------------------------------------------
    Irrep   Nso     Nmo     Nalpha   Nbeta   Ndocc  Nsocc
   -------------------------------------------------------
     A'        45      45       0       0       0       0
     A"        27      27       0       0       0       0
   -------------------------------------------------------
    Total      72      72      12      12      12       0
   -------------------------------------------------------

  ==> Integral Setup <==

  DFHelper Memory: AOs need 0.015 GiB; user supplied 0.015 GiB. Using in-core AOs.

  ==> MemDFJK: Density-Fitted J/K Matrices <==

    J tasked:                   Yes
    K tasked:                   Yes
    wK tasked:                   No
    OpenMP threads:               1
    Memory [MiB]:                15
    Algorithm:                 Core
    Schwarz Cutoff:           1E-12
    Mask sparsity (%):       0.0000
    Fitting Condition:        1E-10

   => Auxiliary Basis Set <=

  Basis Set: (CC-PVDZ AUX)
    Blend: CC-PVDZ-JKFIT
    Number of shells: 126
    Number of basis function: 348
    Number of Cartesian functions: 393
    Spherical Harmonics?: true
    Max angular momentum: 3

  Cached 100.0% of DFT collocation blocks in 0.396 [GiB].

  Minimum eigenvalue in the overlap matrix is 5.9243290898E-03.
  Using Symmetric Orthogonalization.

  SCF Guess: Superposition of Atomic Densities via on-the-fly atomic UHF.

  ==> Iterations <==

                           Total Energy        Delta E     RMS |[F,P]|

   @DF-RKS iter SAD:  -117.51452276281634   -1.17515e+02   0.00000e+00 
   @DF-RKS iter   1:  -117.58905991476971   -7.45372e-02   1.40051e-02 DIIS
   @DF-RKS iter   2:  -117.40406211955687    1.84998e-01   1.79374e-02 DIIS
   @DF-RKS iter   3:  -117.89757447474612   -4.93512e-01   5.30703e-04 DIIS
   @DF-RKS iter   4:  -117.89792660227762   -3.52128e-04   1.24526e-04 DIIS
   @DF-RKS iter   5:  -117.89794800329973   -2.14010e-05   1.04352e-05 DIIS
   @DF-RKS iter   6:  -117.89794817713742   -1.73838e-07   1.66016e-06 DIIS
   @DF-RKS iter   7:  -117.89794817934089   -2.20346e-09   1.10910e-06 DIIS
   @DF-RKS iter   8:  -117.89794818106429   -1.72341e-09   1.97930e-08 DIIS
   @DF-RKS iter   9:  -117.89794818106475   -4.54747e-13   1.53407e-09 DIIS
  Energy and wave function converged.


  ==> Post-Iterations <==

    Orbital Energies [Eh]
    ---------------------

    Doubly Occupied:                                                      

       1Ap   -10.187744     2Ap   -10.187464     3Ap   -10.187446  
       4Ap    -0.844992     5Ap    -0.593228     6Ap    -0.593146  
       1App   -0.489024     7Ap    -0.460286     2App   -0.361221  
       3App   -0.361106     8Ap    -0.292801     9Ap    -0.292423  

    Virtual:                                                              

      10Ap     0.066955     4App    0.078191    11Ap     0.110857  
      12Ap     0.110875    13Ap     0.142008     5App    0.180444  
       6App    0.180465    14Ap     0.242748    15Ap     0.243063  
      16Ap     0.380237     7App    0.393572    17Ap     0.478099  
      18Ap     0.478239    19Ap     0.530194    20Ap     0.557054  
      21Ap     0.557376    22Ap     0.616467     8App    0.637569  
       9App    0.638075    10App    0.659326    11App    0.662827  
      12App    0.663070    23Ap     0.680676    24Ap     0.680736  
      25Ap     0.797695    13App    1.131958    26Ap     1.171744  
      27Ap     1.171815    14App    1.191034    15App    1.191110  
      28Ap     1.192310    16App    1.436823    29Ap     1.457876  
      30Ap     1.458022    31Ap     1.555284    32Ap     1.555330  
      17App    1.574947    18App    1.575069    19App    1.603634  
      33Ap     1.714085    34Ap     1.719392    20App    1.727994  
      21App    1.728481    35Ap     1.778394    36Ap     1.779007  
      37Ap     1.920883    38Ap     1.921140    39Ap     2.073347  
      40Ap     2.089128    22App    2.091301    23App    2.091478  
      41Ap     2.282756    42Ap     2.283122    24App    2.310886  
      43Ap     2.361643    25App    2.419552    44Ap     2.575366  
      45Ap     2.576269    26App    2.754197    27App    2.755208  

    Final Occupation by Irrep:
             Ap   App 
    DOCC [     9,    3 ]

  @DF-RKS Final Energy:  -117.89794818106475

   => Energetics <=

    Nuclear Repulsion Energy =             75.2762678161621892
    One-Electron Energy =                -305.8803145602414020
    Two-Electron Energy =                 127.6811315807887155
    DFT Exchange-Correlation Energy =     -14.9750330177742690
    Empirical Dispersion Energy =           0.0000000000000000
    VV10 Nonlocal Energy =                  0.0000000000000000
    Total Energy =                       -117.8979481810647485

Computation Completed


Properties will be evaluated at   0.000000,   0.000000,   0.000000 [a0]

Properties computed using the SCF density matrix

  Nuclear Dipole Moment: [e a0]
     X:    -0.0019      Y:    -0.0002      Z:     0.0000

  Electronic Dipole Moment: [e a0]
     X:     0.0020      Y:    -0.0000      Z:     0.0000

  Dipole Moment: [e a0]
     X:     0.0001      Y:    -0.0002      Z:     0.0000     Total:     0.0002

  Dipole Moment: [D]
     X:     0.0003      Y:    -0.0005      Z:     0.0000     Total:     0.0006


*** tstop() called on atlantis at Tue Apr 19 14:57:54 2022
Module time:
	user time   =       4.27 seconds =       0.07 minutes
	system time =       0.04 seconds =       0.00 minutes
	total time  =          4 seconds =       0.07 minutes
Total time:
	user time   =      24.14 seconds =       0.40 minutes
	system time =       0.29 seconds =       0.00 minutes
	total time  =         24 seconds =       0.40 minutes

*** tstart() called on atlantis
*** at Tue Apr 19 14:57:54 2022


         ------------------------------------------------------------
                                   SCF GRAD                          
                          Rob Parrish, Justin Turney,                
                       Andy Simmonett, and Alex Sokolov              
         ------------------------------------------------------------

  ==> Geometry <==

    Molecular point group: cs
    Full point group: Cs

    Geometry (in Angstrom), charge = 0, multiplicity = 1:

       Center              X                  Y                   Z               Mass       
    ------------   -----------------  -----------------  -----------------  -----------------
         C            0.322081944250     0.813343688021     0.000000000000    12.000000000000
         C           -0.865318003082    -0.128389764139     0.000000000000    12.000000000000
         C            0.543404419293    -0.684939538412     0.000000000000    12.000000000000
         H            0.537301240642     1.360829034576    -0.920390000000     1.007825032230
         H            0.537301240642     1.360829034576     0.920390000000     1.007825032230
         H           -1.447665927882    -0.214858697572     0.920340000000     1.007825032230
         H           -1.447665927882    -0.214858697572    -0.920340000000     1.007825032230
         H            0.909362367658    -1.146055979665    -0.920370000000     1.007825032230
         H            0.909362367658    -1.146055979665     0.920370000000     1.007825032230

  Nuclear repulsion =   75.276267816162189

  ==> Basis Set <==

  Basis Set: CC-PVDZ
    Blend: CC-PVDZ
    Number of shells: 36
    Number of basis function: 72
    Number of Cartesian functions: 75
    Spherical Harmonics?: true
    Max angular momentum: 2

  ==> DFJKGrad: Density-Fitted SCF Gradients <==

    Gradient:                    1
    J tasked:                  Yes
    K tasked:                  Yes
    wK tasked:                  No
    OpenMP threads:              1
    Integrals threads:           1
    Memory [MiB]:              375
    Schwarz Cutoff:          0E+00
    Fitting Condition:       1E-10

   => Auxiliary Basis Set <=

  Basis Set: (CC-PVDZ AUX)
    Blend: CC-PVDZ-JKFIT
    Number of shells: 126
    Number of basis function: 348
    Number of Cartesian functions: 393
    Spherical Harmonics?: true
    Max angular momentum: 3

  ==> DFT Potential <==

   => Composite Functional: B3LYP <= 

    B3LYP Hyb-GGA Exchange-Correlation Functional

    P. J. Stephens, F. J. Devlin, C. F. Chabalowski, and M. J. Frisch, J. Phys. Chem. 98, 11623 (1994)

    Deriv               =              1
    GGA                 =           TRUE
    Meta                =          FALSE

    Exchange Hybrid     =           TRUE
    MP2 Hybrid          =          FALSE

   => Exchange Functionals <=

    0.0800   Slater exchange
    0.7200         Becke 88

   => Exact (HF) Exchange <=

    0.2000               HF 

   => Correlation Functionals <=

    0.1900   Vosko, Wilk & Nusair (VWN5_RPA)
    0.8100   Lee, Yang & Parr

   => Molecular Quadrature <=

    Radial Scheme          =       TREUTLER
    Pruning Scheme         =           FLAT
    Nuclear Scheme         =       TREUTLER

    BS radius alpha        =              1
    Pruning alpha          =              1
    Radial Points          =             75
    Spherical Points       =            302
    Total Points           =         200383
    Total Blocks           =           1546
    Max Points             =            256
    Max Functions          =             72


  -Total Gradient:
     Atom            X                  Y                   Z
    ------   -----------------  -----------------  -----------------
       1        0.001953469672     0.003858964598     0.000000000000
       2       -0.004084839364    -0.000705991309     0.000000000000
       3        0.002365262348    -0.003009290807     0.000000000000
       4       -0.000306570458    -0.000607762222    -0.000200009681
       5       -0.000306570458    -0.000607762222     0.000200009681
       6        0.000555649432     0.000059334208     0.000279587301
       7        0.000555649432     0.000059334208    -0.000279587301
       8       -0.000367993257     0.000471674945    -0.000294422212
       9       -0.000367993257     0.000471674945     0.000294422212


*** tstop() called on atlantis at Tue Apr 19 14:57:56 2022
Module time:
	user time   =       1.25 seconds =       0.02 minutes
	system time =       0.00 seconds =       0.00 minutes
	total time  =          2 seconds =       0.03 minutes
Total time:
	user time   =      25.39 seconds =       0.42 minutes
	system time =       0.29 seconds =       0.00 minutes
	total time  =         26 seconds =       0.43 minutes

  //>>>>>>>>>>>>>>>>>>>>>>>>>>>>>>>>>>>//
  //    Loading displacement 4 of 34   //
  //<<<<<<<<<<<<<<<<<<<<<<<<<<<<<<<<<<<//
gradient() will perform analytic gradient computation.

*** tstart() called on atlantis
*** at Tue Apr 19 14:57:56 2022

   => Loading Basis Set <=

    Name: CC-PVDZ
    Role: ORBITAL
    Keyword: BASIS
    atoms 1-3 entry C          line   138 file /home/akrom/software/anaconda3/envs/ffpenv/share/psi4/basis/cc-pvdz.gbs 
    atoms 4-9 entry H          line    22 file /home/akrom/software/anaconda3/envs/ffpenv/share/psi4/basis/cc-pvdz.gbs 


         ---------------------------------------------------------
                                   SCF
               by Justin Turney, Rob Parrish, Andy Simmonett
                          and Daniel G. A. Smith
                              RKS Reference
                        1 Threads,    500 MiB Core
         ---------------------------------------------------------

  ==> Geometry <==

    Molecular point group: cs
    Full point group: Cs

    Geometry (in Angstrom), charge = 0, multiplicity = 1:

       Center              X                  Y                   Z               Mass       
    ------------   -----------------  -----------------  -----------------  -----------------
         C            0.321531939855     0.812635159068     0.000000000000    12.000000000000
         C           -0.865072120902    -0.128008550426     0.000000000000    12.000000000000
         C            0.543576026536    -0.684746186637     0.000000000000    12.000000000000
         H            0.537745691682     1.361023130555    -0.920390000000     1.007825032230
         H            0.537745691682     1.361023130555     0.920390000000     1.007825032230
         H           -1.447431558178    -0.214399813329     0.920340000000     1.007825032230
         H           -1.447431558178    -0.214399813329    -0.920340000000     1.007825032230
         H            0.909472463446    -1.145911419873    -0.920370000000     1.007825032230
         H            0.909472463446    -1.145911419873     0.920370000000     1.007825032230

  Running in cs symmetry.

  Rotational constants: A =      0.66518  B =      0.66468  C =      0.41665 [cm^-1]
  Rotational constants: A =  19941.69418  B =  19926.66026  C =  12490.72376 [MHz]
  Nuclear repulsion =   75.292327113354389

  Charge       = 0
  Multiplicity = 1
  Electrons    = 24
  Nalpha       = 12
  Nbeta        = 12

  ==> Algorithm <==

  SCF Algorithm Type is DF.
  DIIS enabled.
  MOM disabled.
  Fractional occupation disabled.
  Guess Type is SAD.
  Energy threshold   = 1.00e-08
  Density threshold  = 1.00e-08
  Integral threshold = 0.00e+00

  ==> Primary Basis <==

  Basis Set: CC-PVDZ
    Blend: CC-PVDZ
    Number of shells: 36
    Number of basis function: 72
    Number of Cartesian functions: 75
    Spherical Harmonics?: true
    Max angular momentum: 2

  ==> DFT Potential <==

   => Composite Functional: B3LYP <= 

    B3LYP Hyb-GGA Exchange-Correlation Functional

    P. J. Stephens, F. J. Devlin, C. F. Chabalowski, and M. J. Frisch, J. Phys. Chem. 98, 11623 (1994)

    Deriv               =              1
    GGA                 =           TRUE
    Meta                =          FALSE

    Exchange Hybrid     =           TRUE
    MP2 Hybrid          =          FALSE

   => Exchange Functionals <=

    0.0800   Slater exchange
    0.7200         Becke 88

   => Exact (HF) Exchange <=

    0.2000               HF 

   => Correlation Functionals <=

    0.1900   Vosko, Wilk & Nusair (VWN5_RPA)
    0.8100   Lee, Yang & Parr

   => Molecular Quadrature <=

    Radial Scheme          =       TREUTLER
    Pruning Scheme         =           FLAT
    Nuclear Scheme         =       TREUTLER

    BS radius alpha        =              1
    Pruning alpha          =              1
    Radial Points          =             75
    Spherical Points       =            302
    Total Points           =         200372
    Total Blocks           =           1562
    Max Points             =            256
    Max Functions          =             72

   => Loading Basis Set <=

    Name: (CC-PVDZ AUX)
    Role: JKFIT
    Keyword: DF_BASIS_SCF
    atoms 1-3 entry C          line   121 file /home/akrom/software/anaconda3/envs/ffpenv/share/psi4/basis/cc-pvdz-jkfit.gbs 
    atoms 4-9 entry H          line    51 file /home/akrom/software/anaconda3/envs/ffpenv/share/psi4/basis/cc-pvdz-jkfit.gbs 

  ==> Pre-Iterations <==

   -------------------------------------------------------
    Irrep   Nso     Nmo     Nalpha   Nbeta   Ndocc  Nsocc
   -------------------------------------------------------
     A'        45      45       0       0       0       0
     A"        27      27       0       0       0       0
   -------------------------------------------------------
    Total      72      72      12      12      12       0
   -------------------------------------------------------

  ==> Integral Setup <==

  DFHelper Memory: AOs need 0.015 GiB; user supplied 0.015 GiB. Using in-core AOs.

  ==> MemDFJK: Density-Fitted J/K Matrices <==

    J tasked:                   Yes
    K tasked:                   Yes
    wK tasked:                   No
    OpenMP threads:               1
    Memory [MiB]:                15
    Algorithm:                 Core
    Schwarz Cutoff:           1E-12
    Mask sparsity (%):       0.0000
    Fitting Condition:        1E-10

   => Auxiliary Basis Set <=

  Basis Set: (CC-PVDZ AUX)
    Blend: CC-PVDZ-JKFIT
    Number of shells: 126
    Number of basis function: 348
    Number of Cartesian functions: 393
    Spherical Harmonics?: true
    Max angular momentum: 3

  Cached 100.0% of DFT collocation blocks in 0.397 [GiB].

  Minimum eigenvalue in the overlap matrix is 5.9146738249E-03.
  Using Symmetric Orthogonalization.

  SCF Guess: Superposition of Atomic Densities via on-the-fly atomic UHF.

  ==> Iterations <==

                           Total Energy        Delta E     RMS |[F,P]|

   @DF-RKS iter SAD:  -117.51598943655922   -1.17516e+02   0.00000e+00 
   @DF-RKS iter   1:  -117.58859811627281   -7.26087e-02   1.40167e-02 DIIS
   @DF-RKS iter   2:  -117.40272708568259    1.85871e-01   1.79618e-02 DIIS
   @DF-RKS iter   3:  -117.89758174614435   -4.94855e-01   5.30235e-04 DIIS
   @DF-RKS iter   4:  -117.89793318588744   -3.51440e-04   1.24644e-04 DIIS
   @DF-RKS iter   5:  -117.89795461982801   -2.14339e-05   1.05386e-05 DIIS
   @DF-RKS iter   6:  -117.89795479310135   -1.73273e-07   2.32945e-06 DIIS
   @DF-RKS iter   7:  -117.89795479923099   -6.12964e-09   1.03971e-06 DIIS
   @DF-RKS iter   8:  -117.89795480075155   -1.52056e-09   1.88482e-08 DIIS
   @DF-RKS iter   9:  -117.89795480075213   -5.82645e-13   1.79871e-09 DIIS
  Energy and wave function converged.


  ==> Post-Iterations <==

    Orbital Energies [Eh]
    ---------------------

    Doubly Occupied:                                                      

[...]
    MP2 Hybrid          =          FALSE

   => Exchange Functionals <=

    0.0800   Slater exchange
    0.7200         Becke 88

   => Exact (HF) Exchange <=

    0.2000               HF 

   => Correlation Functionals <=

    0.1900   Vosko, Wilk & Nusair (VWN5_RPA)
    0.8100   Lee, Yang & Parr

   => Molecular Quadrature <=

    Radial Scheme          =       TREUTLER
    Pruning Scheme         =           FLAT
    Nuclear Scheme         =       TREUTLER

    BS radius alpha        =              1
    Pruning alpha          =              1
    Radial Points          =             75
    Spherical Points       =            302
    Total Points           =         200370
    Total Blocks           =           1554
    Max Points             =            256
    Max Functions          =             72


  -Total Gradient:
     Atom            X                  Y                   Z
    ------   -----------------  -----------------  -----------------
       1        0.001414250304     0.003591685960     0.000005329886
       2       -0.003792831640    -0.000560621052     0.000458375809
       3        0.002396047140    -0.003015390364    -0.001280653965
       4       -0.000220137313    -0.000551473321    -0.000295892403
       5       -0.000213626218    -0.000539031531     0.000293417133
       6        0.000753830182     0.000085539019    -0.000000387938
       7        0.000393015524     0.000076823228    -0.000571382757
       8       -0.000727110955     0.000820776621     0.000406780994
       9       -0.000005044471     0.000089590125     0.000984505569


*** tstop() called on atlantis at Tue Apr 19 15:00:51 2022
Module time:
	user time   =       1.19 seconds =       0.02 minutes
	system time =       0.00 seconds =       0.00 minutes
	total time  =          1 seconds =       0.02 minutes
Total time:
	user time   =     194.29 seconds =       3.24 minutes
	system time =       1.45 seconds =       0.02 minutes
	total time  =        201 seconds =       3.35 minutes

         ----------------------------------------------------------
                                   FINDIF
                     R. A. King and Jonathon Misiewicz
         ---------------------------------------------------------

  Computing second-derivative from gradients using projected, 
  symmetry-adapted, cartesian coordinates.

  34 gradients passed in, including the reference geometry.
  Generating complete list of displacements from unique ones.

    Operation 2 takes plus displacements of irrep A" to minus ones.

-------------------------------------------------------------


  ==> Harmonic Vibrational Analysis <==

  non-mass-weighted Hessian:       Symmetric? True   Hermitian? True   Lin Dep Dim?  6 (0)
  projection of translations (True) and rotations (True) removed 6 degrees of freedom (6)
  total projector:                 Symmetric? True   Hermitian? True   Lin Dep Dim?  6 (6)
  mass-weighted Hessian:           Symmetric? True   Hermitian? True   Lin Dep Dim?  6 (0)
  pre-proj  low-frequency mode:    0.0000i [cm^-1]
  pre-proj  low-frequency mode:    0.0000i [cm^-1]
  pre-proj  low-frequency mode:    0.0000i [cm^-1]
  pre-proj  low-frequency mode:    0.0000  [cm^-1]
  pre-proj  low-frequency mode:    0.0000  [cm^-1]
  pre-proj  low-frequency mode:    0.0000  [cm^-1]
  pre-proj  all modes:['0.0000i' '0.0000i' '0.0000i' '0.0000' '0.0000' '0.0000' '730.7104'
 '730.8986' '853.9025' '880.3217' '880.7667' '1035.8313' '1039.4391'
 '1067.9850' '1135.8883' '1196.3562' '1196.5035' '1208.8595' '1437.9941'
 '1438.1457' '1493.3438' '3121.7149' '3121.8354' '3130.6054' '3208.7483'
 '3208.7724' '3229.2733']
  projected mass-weighted Hessian: Symmetric? True   Hermitian? True   Lin Dep Dim?  6 (6)
  post-proj low-frequency mode:    0.0000i [cm^-1] (TR)
  post-proj low-frequency mode:    0.0000i [cm^-1] (TR)
  post-proj low-frequency mode:    0.0000i [cm^-1] (TR)
  post-proj low-frequency mode:    0.0000i [cm^-1] (TR)
  post-proj low-frequency mode:    0.0000  [cm^-1] (TR)
  post-proj low-frequency mode:    0.0000  [cm^-1] (TR)
  post-proj  all modes:['0.0000i' '0.0000i' '0.0000i' '0.0000i' '0.0000' '0.0000' '730.7104'
 '730.8986' '853.9025' '880.3217' '880.7667' '1035.8313' '1039.4391'
 '1067.9850' '1135.8883' '1196.3562' '1196.5035' '1208.8595' '1437.9941'
 '1438.1457' '1493.3438' '3121.7149' '3121.8354' '3130.6054' '3208.7483'
 '3208.7724' '3229.2733']

  Vibration                       7                   8                   9           
  Freq [cm^-1]                 730.7104            730.8986            853.9025       
  Irrep                          App                 App                 App          
  Reduced mass [u]              1.0222              1.0222              1.0439        
  Force const [mDyne/A]         0.3216              0.3218              0.4485        
  Turning point v=0 [a0]        0.4015              0.4014              0.3675        
  RMS dev v=0 [a0 u^1/2]        0.2870              0.2870              0.2655        
  Char temp [K]               1051.3295           1051.6003           1228.5757       
  ----------------------------------------------------------------------------------
      1   C               -0.00  0.00  0.03    0.00  0.00  0.00    0.00 -0.00 -0.03   
      2   C                0.00 -0.00 -0.01   -0.00  0.00 -0.03   -0.00  0.00 -0.03   
      3   C                0.00 -0.00 -0.02   -0.00  0.00  0.02    0.00  0.00 -0.03   
      4   H               -0.15 -0.29 -0.18    0.40 -0.19 -0.01    0.13  0.33  0.20   
      5   H                0.15  0.29 -0.18   -0.40  0.19 -0.01   -0.13 -0.33  0.20   
      6   H                0.20 -0.38  0.08    0.26  0.23  0.16    0.35  0.05  0.20   
      7   H               -0.20  0.38  0.08   -0.26 -0.23  0.16   -0.35 -0.05  0.20   
      8   H                0.40  0.08  0.10    0.03  0.37 -0.15    0.22 -0.28  0.20   
      9   H               -0.40 -0.08  0.10   -0.03 -0.37 -0.15   -0.22  0.28  0.20   

  Vibration                       10                  11                  12          
  Freq [cm^-1]                 880.3217            880.7667           1035.8313       
  Irrep                           Ap                  Ap                  Ap          
  Reduced mass [u]              3.5197              3.5075              1.2938        
  Force const [mDyne/A]         1.6071              1.6031              0.8179        
  Turning point v=0 [a0]        0.1971              0.1974              0.2997        
  RMS dev v=0 [a0 u^1/2]        0.2615              0.2614              0.2411        
  Char temp [K]               1266.5870           1267.2272           1490.3306       
  ----------------------------------------------------------------------------------
      1   C               -0.20  0.17 -0.00   -0.17 -0.23  0.00    0.05  0.01  0.00   
      2   C                0.27  0.10 -0.00   -0.11  0.24  0.00    0.02 -0.12 -0.00   
      3   C               -0.02 -0.28 -0.00    0.27 -0.05  0.00   -0.08 -0.03  0.00   
      4   H               -0.37  0.22 -0.01   -0.20 -0.17  0.03   -0.18  0.08 -0.01   
      5   H               -0.37  0.22  0.01   -0.20 -0.17 -0.03   -0.18  0.08  0.01   
      6   H                0.22  0.14 -0.03   -0.12  0.42  0.01   -0.08  0.55 -0.00   
      7   H                0.22  0.14  0.03   -0.12  0.42 -0.01   -0.08  0.55  0.00   
      8   H               -0.14 -0.33 -0.02    0.35  0.05 -0.02    0.28  0.23  0.01   
      9   H               -0.14 -0.33  0.02    0.35  0.05  0.02    0.28  0.23 -0.01   

  Vibration                       13                  14                  15          
  Freq [cm^-1]                1039.4391           1067.9850           1135.8883       
  Irrep                           Ap                  Ap                 App          
  Reduced mass [u]              1.2922              1.4254              1.0078        
  Force const [mDyne/A]         0.8226              0.9579              0.7661        
  Turning point v=0 [a0]        0.2994              0.2812              0.3243        
  RMS dev v=0 [a0 u^1/2]        0.2407              0.2374              0.2302        
  Char temp [K]               1495.5214           1536.5926           1634.2904       
  ----------------------------------------------------------------------------------
      1   C               -0.11  0.05  0.00   -0.10  0.04  0.00   -0.00 -0.00  0.00   
      2   C                0.03  0.02  0.00    0.02 -0.11 -0.00    0.00  0.00  0.00   
      3   C               -0.06 -0.08  0.00    0.09  0.07  0.00    0.00  0.00 -0.00   
      4   H                0.50 -0.20 -0.01    0.36 -0.14  0.00   -0.38  0.15 -0.00   
      5   H                0.50 -0.20  0.01    0.36 -0.14 -0.00    0.38 -0.15 -0.00   
      6   H                0.02 -0.09 -0.02   -0.06  0.40  0.00   -0.06  0.40 -0.00   
      7   H                0.02 -0.09  0.02   -0.06  0.40 -0.00    0.06 -0.40 -0.00   
      8   H                0.34  0.27 -0.01   -0.32 -0.25 -0.00    0.32  0.25  0.00   
      9   H                0.34  0.27  0.01   -0.32 -0.25  0.00   -0.32 -0.25  0.00   

  Vibration                       16                  17                  18          
  Freq [cm^-1]                1196.3562           1196.5035           1208.8595       
  Irrep                          App                 App                  Ap          
  Reduced mass [u]              1.4492              1.4491              2.4994        
  Force const [mDyne/A]         1.2220              1.2223              2.1520        
  Turning point v=0 [a0]        0.2635              0.2635              0.1996        
  RMS dev v=0 [a0 u^1/2]        0.2243              0.2243              0.2232        
  Char temp [K]               1721.2902           1721.5021           1739.2797       
  ----------------------------------------------------------------------------------
      1   C                0.00  0.00  0.16    0.00  0.00 -0.00   -0.08 -0.20  0.00   
      2   C               -0.00 -0.00 -0.08   -0.00 -0.00  0.14    0.21  0.03  0.00   
      3   C                0.00 -0.00 -0.08    0.00 -0.00 -0.14   -0.13  0.17 -0.00   
      4   H               -0.14 -0.37 -0.08    0.37 -0.14  0.00   -0.14 -0.35 -0.07   
      5   H                0.14  0.37 -0.08   -0.37  0.14  0.00   -0.14 -0.35  0.07   
      6   H                0.15  0.37  0.04   -0.37  0.14 -0.07    0.37  0.06  0.07   
      7   H               -0.15 -0.37  0.04    0.37 -0.14 -0.07    0.37  0.06 -0.07   
      8   H               -0.14 -0.37  0.04    0.37 -0.15  0.07   -0.23  0.29 -0.07   
      9   H                0.14  0.37  0.04   -0.37  0.15  0.07   -0.23  0.29  0.07   

  Vibration                       19                  20                  21          
  Freq [cm^-1]                1437.9941           1438.1457           1493.3438       
  Irrep                           Ap                  Ap                  Ap          
  Reduced mass [u]              1.0884              1.0883              1.3752        
  Force const [mDyne/A]         1.3260              1.3262              1.8069        
  Turning point v=0 [a0]        0.2774              0.2774              0.2421        
  RMS dev v=0 [a0 u^1/2]        0.2046              0.2046              0.2008        
  Char temp [K]               2068.9533           2069.1715           2148.5893       
  ----------------------------------------------------------------------------------
      1   C               -0.01 -0.05  0.00   -0.03 -0.04 -0.00   -0.04 -0.10  0.00   
      2   C                0.01 -0.01 -0.00   -0.07 -0.01 -0.00    0.10  0.02 -0.00   
      3   C                0.04 -0.05 -0.00   -0.02  0.01  0.00   -0.07  0.08 -0.00   
      4   H                0.12  0.33  0.25    0.12  0.29  0.22    0.11  0.29  0.26   
      5   H                0.12  0.33 -0.25    0.12  0.29 -0.22    0.11  0.29 -0.26   
      6   H               -0.09 -0.00 -0.06    0.46  0.07  0.32   -0.31 -0.04 -0.26   
      7   H               -0.09 -0.00  0.06    0.46  0.07 -0.32   -0.31 -0.04  0.26   
      8   H               -0.28  0.35 -0.31    0.10 -0.11  0.11    0.19 -0.24  0.25   
      9   H               -0.28  0.35  0.31    0.10 -0.11 -0.11    0.19 -0.24 -0.25   

  Vibration                       22                  23                  24          
  Freq [cm^-1]                3121.7149           3121.8354           3130.6054       
  Irrep                           Ap                  Ap                  Ap          
  Reduced mass [u]              1.0499              1.0500              1.0632        
  Force const [mDyne/A]         6.0282              6.0291              6.1394        
  Turning point v=0 [a0]        0.1917              0.1917              0.1902        
  RMS dev v=0 [a0 u^1/2]        0.1389              0.1389              0.1387        
  Char temp [K]               4491.4527           4491.6261           4504.2442       
  ----------------------------------------------------------------------------------
      1   C                0.00  0.01 -0.00    0.02  0.05 -0.00    0.02  0.04  0.00   
      2   C                0.05  0.01 -0.00    0.02  0.00  0.00   -0.04 -0.01 -0.00   
      3   C                0.02 -0.03 -0.00   -0.02  0.02  0.00    0.03 -0.03 -0.00   
      4   H               -0.01 -0.04  0.07   -0.11 -0.27  0.49   -0.08 -0.19  0.35   
      5   H               -0.01 -0.04 -0.07   -0.11 -0.27 -0.49   -0.08 -0.19 -0.35   
      6   H               -0.27 -0.04  0.45   -0.11 -0.02  0.19    0.21  0.03 -0.35   
      7   H               -0.27 -0.04 -0.45   -0.11 -0.02 -0.19    0.21  0.03  0.35   
      8   H               -0.15  0.19  0.40    0.11 -0.14 -0.30   -0.13  0.16  0.35   
      9   H               -0.15  0.19 -0.40    0.11 -0.14  0.30   -0.13  0.16 -0.35   

  Vibration                       25                  26                  27          
  Freq [cm^-1]                3208.7483           3208.7724           3229.2733       
  Irrep                          App                 App                 App          
  Reduced mass [u]              1.1201              1.1201              1.1163        
  Force const [mDyne/A]         6.7946              6.7947              6.8587        
  Turning point v=0 [a0]        0.1830              0.1830              0.1828        
  RMS dev v=0 [a0 u^1/2]        0.1370              0.1370              0.1365        
  Char temp [K]               4616.6744           4616.7090           4646.2054       
  ----------------------------------------------------------------------------------
      1   C                0.00  0.00  0.03   -0.00  0.00 -0.08   -0.00  0.00 -0.06   
      2   C                0.00  0.00 -0.08   -0.00  0.00  0.01    0.00 -0.00 -0.06   
      3   C               -0.00  0.00  0.05   -0.00 -0.00  0.07   -0.00  0.00 -0.06   
      4   H                0.04  0.12 -0.20   -0.10 -0.26  0.44   -0.08 -0.20  0.34   
      5   H               -0.04 -0.12 -0.20    0.10  0.26  0.44    0.08  0.20  0.34   
      6   H               -0.30 -0.05  0.48    0.03  0.00 -0.05   -0.22 -0.03  0.34   
      7   H                0.30  0.05  0.48   -0.03 -0.00 -0.05    0.22  0.03  0.34   
      8   H                0.11 -0.14 -0.28    0.16 -0.19 -0.39   -0.14  0.17  0.34   
      9   H               -0.11  0.14 -0.28   -0.16  0.19 -0.39    0.14 -0.17  0.34   

  ==> Thermochemistry Components <==

  Entropy, S
    Electronic S            0.000 [cal/(mol K)]        0.000 [J/(mol K)]       0.00000000 [mEh/K] (multiplicity = 1)
    Translational S        37.135 [cal/(mol K)]      155.375 [J/(mol K)]       0.05917914 [mEh/K] (mol. weight = 42.0470 [u], P = 101325.00 [Pa])
    Rotational S           21.699 [cal/(mol K)]       90.789 [J/(mol K)]       0.03457982 [mEh/K] (symmetry no. = 1)
    Vibrational S           1.465 [cal/(mol K)]        6.128 [J/(mol K)]       0.00233413 [mEh/K]
  Total S                  60.299 [cal/(mol K)]      252.292 [J/(mol K)]       0.09609309 [mEh/K]
  Correction S              0.000 [cal/(mol K)]        0.000 [J/(mol K)]       0.00000000 [mEh/K]

  Constant volume heat capacity, Cv
    Electronic Cv           0.000 [cal/(mol K)]        0.000 [J/(mol K)]       0.00000000 [mEh/K]
    Translational Cv        2.981 [cal/(mol K)]       12.472 [J/(mol K)]       0.00475022 [mEh/K]
    Rotational Cv           2.981 [cal/(mol K)]       12.472 [J/(mol K)]       0.00475022 [mEh/K]
    Vibrational Cv          5.275 [cal/(mol K)]       22.069 [J/(mol K)]       0.00840546 [mEh/K]
  Total Cv                 11.236 [cal/(mol K)]       47.012 [J/(mol K)]       0.01790589 [mEh/K]
  Correction Cv             0.000 [cal/(mol K)]        0.000 [J/(mol K)]       0.00000000 [mEh/K]

  Constant pressure heat capacity, Cp
    Electronic Cp           0.000 [cal/(mol K)]        0.000 [J/(mol K)]       0.00000000 [mEh/K]
    Translational Cp        4.968 [cal/(mol K)]       20.786 [J/(mol K)]       0.00791703 [mEh/K]
    Rotational Cp           2.981 [cal/(mol K)]       12.472 [J/(mol K)]       0.00475022 [mEh/K]
    Vibrational Cp          5.275 [cal/(mol K)]       22.069 [J/(mol K)]       0.00840546 [mEh/K]
  Total Cp                 13.223 [cal/(mol K)]       55.326 [J/(mol K)]       0.02107270 [mEh/K]
  Correction Cp             0.000 [cal/(mol K)]        0.000 [J/(mol K)]       0.00000000 [mEh/K]

  ==> Thermochemistry Energy Analysis <==

  Raw electronic energy, E0
  Total E0, Electronic energy at well bottom at 0 [K]                 -117.89794808 [Eh]

  Zero-point energy, ZPE_vib = Sum_i nu_i / 2
    Electronic ZPE          0.000 [kcal/mol]        0.000 [kJ/mol]       0.00000000 [Eh]
    Translational ZPE       0.000 [kcal/mol]        0.000 [kJ/mol]       0.00000000 [Eh]
    Rotational ZPE          0.000 [kcal/mol]        0.000 [kJ/mol]       0.00000000 [Eh]
    Vibrational ZPE        50.532 [kcal/mol]      211.427 [kJ/mol]       0.08052843 [Eh]       17673.948 [cm^-1]
  Correction ZPE           50.532 [kcal/mol]      211.427 [kJ/mol]       0.08052843 [Eh]       17673.948 [cm^-1]
  Total ZPE, Electronic energy at 0 [K]                               -117.81741965 [Eh]

  Thermal Energy, E (includes ZPE)
    Electronic E            0.000 [kcal/mol]        0.000 [kJ/mol]       0.00000000 [Eh]
    Translational E         0.889 [kcal/mol]        3.718 [kJ/mol]       0.00141628 [Eh]
    Rotational E            0.889 [kcal/mol]        3.718 [kJ/mol]       0.00141628 [Eh]
    Vibrational E          50.886 [kcal/mol]      212.907 [kJ/mol]       0.08109213 [Eh]
  Correction E             52.664 [kcal/mol]      220.344 [kJ/mol]       0.08392468 [Eh]
  Total E, Electronic energy at  298.15 [K]                           -117.81402340 [Eh]

  Enthalpy, H_trans = E_trans + k_B * T
    Electronic H            0.000 [kcal/mol]        0.000 [kJ/mol]       0.00000000 [Eh]
    Translational H         1.481 [kcal/mol]        6.197 [kJ/mol]       0.00236046 [Eh]
    Rotational H            0.889 [kcal/mol]        3.718 [kJ/mol]       0.00141628 [Eh]
    Vibrational H          50.886 [kcal/mol]      212.907 [kJ/mol]       0.08109213 [Eh]
  Correction H             53.256 [kcal/mol]      222.823 [kJ/mol]       0.08486886 [Eh]
  Total H, Enthalpy at  298.15 [K]                                    -117.81307921 [Eh]

  Gibbs free energy, G = H - T * S
    Electronic G            0.000 [kcal/mol]        0.000 [kJ/mol]       0.00000000 [Eh]
    Translational G        -9.591 [kcal/mol]      -40.128 [kJ/mol]      -0.01528380 [Eh]
    Rotational G           -5.581 [kcal/mol]      -23.350 [kJ/mol]      -0.00889370 [Eh]
    Vibrational G          50.449 [kcal/mol]      211.080 [kJ/mol]       0.08039621 [Eh]
  Correction G             35.278 [kcal/mol]      147.602 [kJ/mol]       0.05621871 [Eh]
  Total G, Free enthalpy at  298.15 [K]                               -117.84172937 [Eh]

    Psi4 stopped on: Tuesday, 19 April 2022 03:00PM
    Psi4 wall time for execution: 0:03:21.23

*** Psi4 exiting successfully. Buy a developer a beer!
