
    -----------------------------------------------------------------------
          Psi4: An Open-Source Ab Initio Electronic Structure Package
                               Psi4 1.3.2 release

                         Git: Rev {HEAD} ecbda83 


    R. M. Parrish, L. A. Burns, D. G. A. Smith, A. C. Simmonett,
    A. E. DePrince III, E. G. Hohenstein, U. Bozkaya, A. Yu. Sokolov,
    R. Di Remigio, R. M. Richard, J. F. Gonthier, A. M. James,
    H. R. McAlexander, A. Kumar, M. Saitow, X. Wang, B. P. Pritchard,
    P. Verma, H. F. Schaefer III, K. Patkowski, R. A. King, E. F. Valeev,
    F. A. Evangelista, J. M. Turney, T. D. Crawford, and C. D. Sherrill,
    J. Chem. Theory Comput. 13(7) pp 3185--3197 (2017).
    (doi: 10.1021/acs.jctc.7b00174)


                         Additional Contributions by
    P. Kraus, H. Kruse, M. H. Lechner, M. C. Schieber, R. A. Shaw,
    A. Alenaizan, R. Galvelis, Z. L. Glick, S. Lehtola, and J. P. Misiewicz

    -----------------------------------------------------------------------


    Psi4 started on: Tuesday, 19 April 2022 11:25AM

    Process ID: 32455
    Host:       atlantis
    PSIDATADIR: /home/akrom/software/anaconda3/envs/ffpenv/share/psi4
    Memory:     500.0 MiB
    Threads:    1
    
  ==> Input File <==

--------------------------------------------------------------------------
set basis  cc-pVDZ
molecule {
0 1
   C        0.32153        0.81326        0.00000
   C       -0.86505       -0.12817        0.00000
   C        0.54353       -0.68508        0.00000
   H        0.53795        1.36069       -0.92039
   H        0.53795        1.36069        0.92039
   H       -1.44742       -0.21449        0.92034
   H       -1.44742       -0.21449       -0.92034
   H        0.90937       -1.14629       -0.92037
   H        0.90937       -1.14629        0.92037
}
energy('m06-2x')
frequencies('m06-2x')
--------------------------------------------------------------------------

*** tstart() called on atlantis
*** at Tue Apr 19 11:25:05 2022

   => Loading Basis Set <=

    Name: CC-PVDZ
    Role: ORBITAL
    Keyword: BASIS
    atoms 1-3 entry C          line   138 file /home/akrom/software/anaconda3/envs/ffpenv/share/psi4/basis/cc-pvdz.gbs 
    atoms 4-9 entry H          line    22 file /home/akrom/software/anaconda3/envs/ffpenv/share/psi4/basis/cc-pvdz.gbs 


         ---------------------------------------------------------
                                   SCF
               by Justin Turney, Rob Parrish, Andy Simmonett
                          and Daniel G. A. Smith
                              RKS Reference
                        1 Threads,    500 MiB Core
         ---------------------------------------------------------

  ==> Geometry <==

    Molecular point group: cs
    Full point group: Cs

    Geometry (in Angstrom), charge = 0, multiplicity = 1:

       Center              X                  Y                   Z               Mass       
    ------------   -----------------  -----------------  -----------------  -----------------
         C            0.321531939855     0.813261460475     0.000000000000    12.000000000000
         C           -0.865048060145    -0.128168539525     0.000000000000    12.000000000000
         C            0.543531939855    -0.685078539525     0.000000000000    12.000000000000
         H            0.537951939855     1.360691460475    -0.920390000000     1.007825032230
         H            0.537951939855     1.360691460475     0.920390000000     1.007825032230
         H           -1.447418060145    -0.214488539525     0.920340000000     1.007825032230
         H           -1.447418060145    -0.214488539525    -0.920340000000     1.007825032230
         H            0.909371939855    -1.146288539525    -0.920370000000     1.007825032230
         H            0.909371939855    -1.146288539525     0.920370000000     1.007825032230

  Running in cs symmetry.

  Rotational constants: A =      0.66472  B =      0.66470  C =      0.41647 [cm^-1]
  Rotational constants: A =  19927.70596  B =  19927.20236  C =  12485.44714 [MHz]
  Nuclear repulsion =   75.281464809014025

  Charge       = 0
  Multiplicity = 1
  Electrons    = 24
  Nalpha       = 12
  Nbeta        = 12

  ==> Algorithm <==

  SCF Algorithm Type is DF.
  DIIS enabled.
  MOM disabled.
  Fractional occupation disabled.
  Guess Type is SAD.
  Energy threshold   = 1.00e-06
  Density threshold  = 1.00e-06
  Integral threshold = 0.00e+00

  ==> Primary Basis <==

  Basis Set: CC-PVDZ
    Blend: CC-PVDZ
    Number of shells: 36
    Number of basis function: 72
    Number of Cartesian functions: 75
    Spherical Harmonics?: true
    Max angular momentum: 2

  ==> DFT Potential <==

   => Composite Functional: M06-2X <= 

    Hybrid M06-2X Meta-GGA XC Functional

    Y. Zhao and D. G. Truhlar,  Theor. Chem. Acc., 120, 215, 2008


    Deriv               =              1
    GGA                 =           TRUE
    Meta                =           TRUE

    Exchange Hybrid     =           TRUE
    MP2 Hybrid          =          FALSE

   => Exchange Functionals <=

    1.0000   XC_HYB_MGGA_X_M06_2X

   => Exact (HF) Exchange <=

    0.5400               HF 

   => Correlation Functionals <=

    1.0000   XC_MGGA_C_M06_2X

   => Molecular Quadrature <=

    Radial Scheme          =       TREUTLER
    Pruning Scheme         =           FLAT
    Nuclear Scheme         =       TREUTLER

    BS radius alpha        =              1
    Pruning alpha          =              1
    Radial Points          =             75
    Spherical Points       =            302
    Total Points           =         200365
    Total Blocks           =           1566
    Max Points             =            256
    Max Functions          =             72

   => Loading Basis Set <=

    Name: (CC-PVDZ AUX)
    Role: JKFIT
    Keyword: DF_BASIS_SCF
    atoms 1-3 entry C          line   121 file /home/akrom/software/anaconda3/envs/ffpenv/share/psi4/basis/cc-pvdz-jkfit.gbs 
    atoms 4-9 entry H          line    51 file /home/akrom/software/anaconda3/envs/ffpenv/share/psi4/basis/cc-pvdz-jkfit.gbs 

  ==> Pre-Iterations <==

   -------------------------------------------------------
    Irrep   Nso     Nmo     Nalpha   Nbeta   Ndocc  Nsocc
   -------------------------------------------------------
     A'        45      45       0       0       0       0
     A"        27      27       0       0       0       0
   -------------------------------------------------------
    Total      72      72      12      12      12       0
   -------------------------------------------------------

  ==> Integral Setup <==

  DFHelper Memory: AOs need 0.015 GiB; user supplied 0.015 GiB. Using in-core AOs.

  ==> MemDFJK: Density-Fitted J/K Matrices <==

    J tasked:                   Yes
    K tasked:                   Yes
    wK tasked:                   No
    OpenMP threads:               1
    Memory [MiB]:                15
    Algorithm:                 Core
    Schwarz Cutoff:           1E-12
    Mask sparsity (%):       0.0000
    Fitting Condition:        1E-10

   => Auxiliary Basis Set <=

  Basis Set: (CC-PVDZ AUX)
    Blend: CC-PVDZ-JKFIT
    Number of shells: 126
    Number of basis function: 348
    Number of Cartesian functions: 393
    Spherical Harmonics?: true
    Max angular momentum: 3

  Cached 50.0% of DFT collocation blocks in 0.483 [GiB].

  Minimum eigenvalue in the overlap matrix is 5.9278925342E-03.
  Using Symmetric Orthogonalization.

  SCF Guess: Superposition of Atomic Densities via on-the-fly atomic UHF.

  ==> Iterations <==

                           Total Energy        Delta E     RMS |[F,P]|

   @DF-RKS iter SAD:  -117.50288425215079   -1.17503e+02   0.00000e+00 
   @DF-RKS iter   1:  -117.65730696024811   -1.54423e-01   1.08136e-02 DIIS
   @DF-RKS iter   2:  -117.68712324031301   -2.98163e-02   1.01501e-02 DIIS
   @DF-RKS iter   3:  -117.83760794243025   -1.50485e-01   3.70112e-04 DIIS
   @DF-RKS iter   4:  -117.83779561613858   -1.87674e-04   6.09961e-05 DIIS
   @DF-RKS iter   5:  -117.83780249313001   -6.87699e-06   5.09902e-06 DIIS
   @DF-RKS iter   6:  -117.83780255614327   -6.30133e-08   4.75880e-07 DIIS
  Energy and wave function converged.


  ==> Post-Iterations <==

    Orbital Energies [Eh]
    ---------------------

    Doubly Occupied:                                                      

       1Ap   -10.547610     2Ap   -10.547091     3Ap   -10.547084  
       4Ap    -0.940442     5Ap    -0.674194     6Ap    -0.674185  
       1App   -0.560567     7Ap    -0.523594     2App   -0.419876  
       3App   -0.419855     8Ap    -0.345900     9Ap    -0.345860  

    Virtual:                                                              

      10Ap     0.108911     4App    0.120037    11Ap     0.156401  
      12Ap     0.156409    13Ap     0.187911     5App    0.224137  
       6App    0.224149    14Ap     0.286848    15Ap     0.286859  
      16Ap     0.426229     7App    0.440010    17Ap     0.528050  
      18Ap     0.528096    19Ap     0.583456    20Ap     0.620901  
      21Ap     0.620946    22Ap     0.672722     8App    0.690091  
       9App    0.690204    10App    0.701660    11App    0.718977  
      12App    0.719012    23Ap     0.741602    24Ap     0.741676  
      25Ap     0.844692    13App    1.191930    26Ap     1.205922  
      27Ap     1.205932    28Ap     1.238059    14App    1.244825  
      15App    1.244832    16App    1.492573    29Ap     1.512936  
      30Ap     1.512972    31Ap     1.607673    32Ap     1.607714  
      17App    1.623293    18App    1.623388    19App    1.649481  
      33Ap     1.757707    20App    1.765348    21App    1.765388  
      34Ap     1.768539    35Ap     1.813814    36Ap     1.813891  
      37Ap     1.955159    38Ap     1.955213    39Ap     2.099674  
      40Ap     2.114349    22App    2.124268    23App    2.124274  
      41Ap     2.302411    42Ap     2.302476    24App    2.333538  
      43Ap     2.385449    25App    2.453388    44Ap     2.597132  
      45Ap     2.597276    26App    2.780715    27App    2.780945  

    Final Occupation by Irrep:
             Ap   App 
    DOCC [     9,    3 ]

  @DF-RKS Final Energy:  -117.83780255614327

   => Energetics <=

    Nuclear Repulsion Energy =             75.2814648090140253
    One-Electron Energy =                -305.8274524227421693
    Two-Electron Energy =                 121.6115670677078811
    DFT Exchange-Correlation Energy =      -8.9033820101230212
    Empirical Dispersion Energy =           0.0000000000000000
    VV10 Nonlocal Energy =                  0.0000000000000000
    Total Energy =                       -117.8378025561432736

Computation Completed


Properties will be evaluated at   0.000000,   0.000000,   0.000000 [a0]

Properties computed using the SCF density matrix

  Nuclear Dipole Moment: [e a0]
     X:    -0.0002      Y:    -0.0002      Z:     0.0000

  Electronic Dipole Moment: [e a0]
     X:     0.0003      Y:     0.0001      Z:     0.0000

  Dipole Moment: [e a0]
     X:     0.0001      Y:    -0.0001      Z:     0.0000     Total:     0.0002

  Dipole Moment: [D]
     X:     0.0003      Y:    -0.0003      Z:     0.0000     Total:     0.0004


*** tstop() called on atlantis at Tue Apr 19 11:25:12 2022
Module time:
	user time   =       6.35 seconds =       0.11 minutes
	system time =       0.11 seconds =       0.00 minutes
	total time  =          7 seconds =       0.12 minutes
Total time:
	user time   =       6.35 seconds =       0.11 minutes
	system time =       0.11 seconds =       0.00 minutes
	total time  =          7 seconds =       0.12 minutes
gradient() will perform analytic gradient computation.

*** tstart() called on atlantis
*** at Tue Apr 19 11:25:12 2022

   => Loading Basis Set <=

    Name: CC-PVDZ
    Role: ORBITAL
    Keyword: BASIS
    atoms 1-3 entry C          line   138 file /home/akrom/software/anaconda3/envs/ffpenv/share/psi4/basis/cc-pvdz.gbs 
    atoms 4-9 entry H          line    22 file /home/akrom/software/anaconda3/envs/ffpenv/share/psi4/basis/cc-pvdz.gbs 


         ---------------------------------------------------------
                                   SCF
               by Justin Turney, Rob Parrish, Andy Simmonett
                          and Daniel G. A. Smith
                              RKS Reference
                        1 Threads,    500 MiB Core
         ---------------------------------------------------------

  ==> Geometry <==

    Molecular point group: cs
    Full point group: Cs

    Geometry (in Angstrom), charge = 0, multiplicity = 1:

       Center              X                  Y                   Z               Mass       
    ------------   -----------------  -----------------  -----------------  -----------------
         C            0.321531939855     0.813261460475     0.000000000000    12.000000000000
         C           -0.865048060145    -0.128168539525     0.000000000000    12.000000000000
         C            0.543531939855    -0.685078539525     0.000000000000    12.000000000000
         H            0.537951939855     1.360691460475    -0.920390000000     1.007825032230
         H            0.537951939855     1.360691460475     0.920390000000     1.007825032230
         H           -1.447418060145    -0.214488539525     0.920340000000     1.007825032230
         H           -1.447418060145    -0.214488539525    -0.920340000000     1.007825032230
         H            0.909371939855    -1.146288539525    -0.920370000000     1.007825032230
         H            0.909371939855    -1.146288539525     0.920370000000     1.007825032230

  Running in cs symmetry.

  Rotational constants: A =      0.66472  B =      0.66470  C =      0.41647 [cm^-1]
  Rotational constants: A =  19927.70596  B =  19927.20236  C =  12485.44714 [MHz]
  Nuclear repulsion =   75.281464809014025

  Charge       = 0
  Multiplicity = 1
  Electrons    = 24
  Nalpha       = 12
  Nbeta        = 12

  ==> Algorithm <==

  SCF Algorithm Type is DF.
  DIIS enabled.
  MOM disabled.
  Fractional occupation disabled.
  Guess Type is SAD.
  Energy threshold   = 1.00e-08
  Density threshold  = 1.00e-08
  Integral threshold = 0.00e+00

  ==> Primary Basis <==

  Basis Set: CC-PVDZ
    Blend: CC-PVDZ
    Number of shells: 36
    Number of basis function: 72
    Number of Cartesian functions: 75
    Spherical Harmonics?: true
    Max angular momentum: 2

  ==> DFT Potential <==

   => Composite Functional: M06-2X <= 

    Hybrid M06-2X Meta-GGA XC Functional

    Y. Zhao and D. G. Truhlar,  Theor. Chem. Acc., 120, 215, 2008


    Deriv               =              1
    GGA                 =           TRUE
    Meta                =           TRUE

    Exchange Hybrid     =           TRUE
    MP2 Hybrid          =          FALSE

   => Exchange Functionals <=

    1.0000   XC_HYB_MGGA_X_M06_2X

   => Exact (HF) Exchange <=

    0.5400               HF 

   => Correlation Functionals <=

    1.0000   XC_MGGA_C_M06_2X

   => Molecular Quadrature <=

    Radial Scheme          =       TREUTLER
    Pruning Scheme         =           FLAT
    Nuclear Scheme         =       TREUTLER

    BS radius alpha        =              1
    Pruning alpha          =              1
    Radial Points          =             75
    Spherical Points       =            302
    Total Points           =         200365
    Total Blocks           =           1566
    Max Points             =            256
    Max Functions          =             72

   => Loading Basis Set <=

    Name: (CC-PVDZ AUX)
    Role: JKFIT
    Keyword: DF_BASIS_SCF
    atoms 1-3 entry C          line   121 file /home/akrom/software/anaconda3/envs/ffpenv/share/psi4/basis/cc-pvdz-jkfit.gbs 
    atoms 4-9 entry H          line    51 file /home/akrom/software/anaconda3/envs/ffpenv/share/psi4/basis/cc-pvdz-jkfit.gbs 

  ==> Pre-Iterations <==

   -------------------------------------------------------
    Irrep   Nso     Nmo     Nalpha   Nbeta   Ndocc  Nsocc
   -------------------------------------------------------
     A'        45      45       0       0       0       0
     A"        27      27       0       0       0       0
   -------------------------------------------------------
    Total      72      72      12      12      12       0
   -------------------------------------------------------

  ==> Integral Setup <==

  DFHelper Memory: AOs need 0.015 GiB; user supplied 0.015 GiB. Using in-core AOs.

  ==> MemDFJK: Density-Fitted J/K Matrices <==

    J tasked:                   Yes
    K tasked:                   Yes
    wK tasked:                   No
    OpenMP threads:               1
    Memory [MiB]:                15
    Algorithm:                 Core
    Schwarz Cutoff:           1E-12
    Mask sparsity (%):       0.0000
    Fitting Condition:        1E-10

   => Auxiliary Basis Set <=

  Basis Set: (CC-PVDZ AUX)
    Blend: CC-PVDZ-JKFIT
    Number of shells: 126
    Number of basis function: 348
    Number of Cartesian functions: 393
    Spherical Harmonics?: true
    Max angular momentum: 3

  Cached 50.0% of DFT collocation blocks in 0.483 [GiB].

  Minimum eigenvalue in the overlap matrix is 5.9278925342E-03.
  Using Symmetric Orthogonalization.

  SCF Guess: Superposition of Atomic Densities via on-the-fly atomic UHF.

  ==> Iterations <==

                           Total Energy        Delta E     RMS |[F,P]|

   @DF-RKS iter SAD:  -117.50288425224419   -1.17503e+02   0.00000e+00 
   @DF-RKS iter   1:  -117.65730696034348   -1.54423e-01   1.08136e-02 DIIS
   @DF-RKS iter   2:  -117.68712324040870   -2.98163e-02   1.01501e-02 DIIS
   @DF-RKS iter   3:  -117.83760794252910   -1.50485e-01   3.70112e-04 DIIS
   @DF-RKS iter   4:  -117.83779561623695   -1.87674e-04   6.09961e-05 DIIS
   @DF-RKS iter   5:  -117.83780249322845   -6.87699e-06   5.09902e-06 DIIS
   @DF-RKS iter   6:  -117.83780255624212   -6.30137e-08   4.75880e-07 DIIS
   @DF-RKS iter   7:  -117.83780255712300   -8.80874e-10   9.92468e-08 DIIS
   @DF-RKS iter   8:  -117.83780255713418   -1.11839e-11   6.65625e-08 DIIS
   @DF-RKS iter   9:  -117.83780255714069   -6.50857e-12   3.76407e-09 DIIS
  Energy and wave function converged.


  ==> Post-Iterations <==

    Orbital Energies [Eh]
    ---------------------

    Doubly Occupied:                                                      

       1Ap   -10.547610     2Ap   -10.547092     3Ap   -10.547083  
       4Ap    -0.940443     5Ap    -0.674196     6Ap    -0.674185  
       1App   -0.560567     7Ap    -0.523595     2App   -0.419878  
       3App   -0.419856     8Ap    -0.345901     9Ap    -0.345861  

    Virtual:                                                              

      10Ap     0.108911     4App    0.120037    11Ap     0.156400  
      12Ap     0.156408    13Ap     0.187911     5App    0.224137  
       6App    0.224149    14Ap     0.286847    15Ap     0.286859  
      16Ap     0.426228     7App    0.440010    17Ap     0.528049  
      18Ap     0.528096    19Ap     0.583456    20Ap     0.620900  
      21Ap     0.620946    22Ap     0.672722     8App    0.690090  
       9App    0.690203    10App    0.701659    11App    0.718977  
      12App    0.719011    23Ap     0.741602    24Ap     0.741675  
      25Ap     0.844692    13App    1.191929    26Ap     1.205921  
      27Ap     1.205931    28Ap     1.238058    14App    1.244824  
      15App    1.244831    16App    1.492572    29Ap     1.512935  
      30Ap     1.512971    31Ap     1.607672    32Ap     1.607713  
      17App    1.623293    18App    1.623387    19App    1.649480  
      33Ap     1.757707    20App    1.765347    21App    1.765388  
      34Ap     1.768538    35Ap     1.813814    36Ap     1.813890  
      37Ap     1.955158    38Ap     1.955213    39Ap     2.099674  
      40Ap     2.114349    22App    2.124267    23App    2.124273  
      41Ap     2.302411    42Ap     2.302475    24App    2.333537  
      43Ap     2.385449    25App    2.453387    44Ap     2.597131  
      45Ap     2.597274    26App    2.780714    27App    2.780944  

    Final Occupation by Irrep:
             Ap   App 
    DOCC [     9,    3 ]

  @DF-RKS Final Energy:  -117.83780255714069

   => Energetics <=

    Nuclear Repulsion Energy =             75.2814648090140253
    One-Electron Energy =                -305.8274348898383437
    Two-Electron Energy =                 121.6115499699334634
    DFT Exchange-Correlation Energy =      -8.9033824462498430
    Empirical Dispersion Energy =           0.0000000000000000
    VV10 Nonlocal Energy =                  0.0000000000000000
    Total Energy =                       -117.8378025571406909

Computation Completed


Properties will be evaluated at   0.000000,   0.000000,   0.000000 [a0]

Properties computed using the SCF density matrix

  Nuclear Dipole Moment: [e a0]
     X:    -0.0002      Y:    -0.0002      Z:     0.0000

  Electronic Dipole Moment: [e a0]
     X:     0.0003      Y:     0.0001      Z:     0.0000

  Dipole Moment: [e a0]
     X:     0.0001      Y:    -0.0001      Z:     0.0000     Total:     0.0002

  Dipole Moment: [D]
     X:     0.0003      Y:    -0.0003      Z:     0.0000     Total:     0.0004


*** tstop() called on atlantis at Tue Apr 19 11:25:20 2022
Module time:
	user time   =       8.64 seconds =       0.14 minutes
	system time =       0.04 seconds =       0.00 minutes
	total time  =          8 seconds =       0.13 minutes
Total time:
	user time   =      14.99 seconds =       0.25 minutes
	system time =       0.15 seconds =       0.00 minutes
	total time  =         15 seconds =       0.25 minutes

*** tstart() called on atlantis
*** at Tue Apr 19 11:25:20 2022


         ------------------------------------------------------------
                                   SCF GRAD                          
                          Rob Parrish, Justin Turney,                
                       Andy Simmonett, and Alex Sokolov              
         ------------------------------------------------------------

  ==> Geometry <==

    Molecular point group: cs
    Full point group: Cs

    Geometry (in Angstrom), charge = 0, multiplicity = 1:

       Center              X                  Y                   Z               Mass       
    ------------   -----------------  -----------------  -----------------  -----------------
         C            0.321531939855     0.813261460475     0.000000000000    12.000000000000
         C           -0.865048060145    -0.128168539525     0.000000000000    12.000000000000
         C            0.543531939855    -0.685078539525     0.000000000000    12.000000000000
         H            0.537951939855     1.360691460475    -0.920390000000     1.007825032230
         H            0.537951939855     1.360691460475     0.920390000000     1.007825032230
         H           -1.447418060145    -0.214488539525     0.920340000000     1.007825032230
         H           -1.447418060145    -0.214488539525    -0.920340000000     1.007825032230
         H            0.909371939855    -1.146288539525    -0.920370000000     1.007825032230
         H            0.909371939855    -1.146288539525     0.920370000000     1.007825032230

  Nuclear repulsion =   75.281464809014025

  ==> Basis Set <==

  Basis Set: CC-PVDZ
    Blend: CC-PVDZ
    Number of shells: 36
    Number of basis function: 72
    Number of Cartesian functions: 75
    Spherical Harmonics?: true
    Max angular momentum: 2

  ==> DFJKGrad: Density-Fitted SCF Gradients <==

    Gradient:                    1
    J tasked:                  Yes
    K tasked:                  Yes
    wK tasked:                  No
    OpenMP threads:              1
    Integrals threads:           1
    Memory [MiB]:              375
    Schwarz Cutoff:          0E+00
    Fitting Condition:       1E-10

   => Auxiliary Basis Set <=

  Basis Set: (CC-PVDZ AUX)
    Blend: CC-PVDZ-JKFIT
    Number of shells: 126
    Number of basis function: 348
    Number of Cartesian functions: 393
    Spherical Harmonics?: true
    Max angular momentum: 3

  ==> DFT Potential <==

   => Composite Functional: M06-2X <= 

    Hybrid M06-2X Meta-GGA XC Functional

    Y. Zhao and D. G. Truhlar,  Theor. Chem. Acc., 120, 215, 2008


    Deriv               =              1
    GGA                 =           TRUE
    Meta                =           TRUE

    Exchange Hybrid     =           TRUE
    MP2 Hybrid          =          FALSE

   => Exchange Functionals <=

    1.0000   XC_HYB_MGGA_X_M06_2X

   => Exact (HF) Exchange <=

    0.5400               HF 

   => Correlation Functionals <=

    1.0000   XC_MGGA_C_M06_2X

   => Molecular Quadrature <=

    Radial Scheme          =       TREUTLER
    Pruning Scheme         =           FLAT
    Nuclear Scheme         =       TREUTLER

    BS radius alpha        =              1
    Pruning alpha          =              1
    Radial Points          =             75
    Spherical Points       =            302
    Total Points           =         200365
    Total Blocks           =           1566
    Max Points             =            256
    Max Functions          =             72


  -Total Gradient:
     Atom            X                  Y                   Z
    ------   -----------------  -----------------  -----------------
       1        0.003039684790     0.007643621852     0.000000000000
       2       -0.008084526020    -0.001150795187     0.000000000000
       3        0.005132553975    -0.006444609292     0.000000000000
       4        0.000434286707     0.001038434229    -0.001417241002
       5        0.000434286707     0.001038434229     0.001417241002
       6       -0.001108762411    -0.000133208080     0.001428673482
       7       -0.001108762411    -0.000133208080    -0.001428673482
       8        0.000748619641    -0.000900534100    -0.001416499845
       9        0.000748619641    -0.000900534100     0.001416499845


*** tstop() called on atlantis at Tue Apr 19 11:25:22 2022
Module time:
	user time   =       1.58 seconds =       0.03 minutes
	system time =       0.00 seconds =       0.00 minutes
	total time  =          2 seconds =       0.03 minutes
Total time:
	user time   =      16.57 seconds =       0.28 minutes
	system time =       0.15 seconds =       0.00 minutes
	total time  =         17 seconds =       0.28 minutes

  Based on options and gradient (rms=2.87E-03), recommend projecting translations and projecting rotations.
hessian() will perform frequency computation by finite difference of analytic gradients.

         ----------------------------------------------------------
                                   FINDIF
                     R. A. King and Jonathon Misiewicz
         ---------------------------------------------------------

  Using finite-differences of gradients to determine vibrational frequencies and 
  normal modes.  Resulting frequencies are only valid at stationary points.
    Generating geometries for use with 3-point formula.
    Displacement size will be 5.00e-03.
    Number of atoms is 9.
    Number of irreps is 2.
    Number of SALCs is 21.
    Translations projected? 1. Rotations projected? 1.
    Index of SALCs per irrep:
     1 :  0  1  2  3  4  5  6  7  8  9  10  11 
     2 :  12  13  14  15  16  17  18  19  20 
    Number of SALCs per irrep:
     Irrep 1: 12
     Irrep 2: 9
    Number of geometries (including reference) is 34.
    Number of displacements per irrep:
      Irrep 1: 24
      Irrep 2: 9

  //>>>>>>>>>>>>>>>>>>>>>>>>>>>>>>>>>>>//
  //    Loading displacement 1 of 34   //
  //<<<<<<<<<<<<<<<<<<<<<<<<<<<<<<<<<<<//
gradient() will perform analytic gradient computation.

*** tstart() called on atlantis
*** at Tue Apr 19 11:25:22 2022

   => Loading Basis Set <=

    Name: CC-PVDZ
    Role: ORBITAL
    Keyword: BASIS
    atoms 1-3 entry C          line   138 file /home/akrom/software/anaconda3/envs/ffpenv/share/psi4/basis/cc-pvdz.gbs 
    atoms 4-9 entry H          line    22 file /home/akrom/software/anaconda3/envs/ffpenv/share/psi4/basis/cc-pvdz.gbs 


         ---------------------------------------------------------
                                   SCF
               by Justin Turney, Rob Parrish, Andy Simmonett
                          and Daniel G. A. Smith
                              RKS Reference
                        1 Threads,    500 MiB Core
         ---------------------------------------------------------

  ==> Geometry <==

    Molecular point group: cs
    Full point group: Cs

    Geometry (in Angstrom), charge = 0, multiplicity = 1:

       Center              X                  Y                   Z               Mass       
    ------------   -----------------  -----------------  -----------------  -----------------
         C            0.321531939855     0.813261460475     0.000000000000    12.000000000000
         C           -0.865048060145    -0.128168539525     0.000000000000    12.000000000000
         C            0.543531939855    -0.685078539525     0.000000000000    12.000000000000
         H            0.537951939855     1.360691460475    -0.920390000000     1.007825032230
         H            0.537951939855     1.360691460475     0.920390000000     1.007825032230
         H           -1.447418060145    -0.214488539525     0.920340000000     1.007825032230
         H           -1.447418060145    -0.214488539525    -0.920340000000     1.007825032230
         H            0.909371939855    -1.146288539525    -0.920370000000     1.007825032230
         H            0.909371939855    -1.146288539525     0.920370000000     1.007825032230

  Running in cs symmetry.

  Rotational constants: A =      0.66472  B =      0.66470  C =      0.41647 [cm^-1]
  Rotational constants: A =  19927.70596  B =  19927.20236  C =  12485.44714 [MHz]
  Nuclear repulsion =   75.281464809014025

  Charge       = 0
  Multiplicity = 1
  Electrons    = 24
  Nalpha       = 12
  Nbeta        = 12

  ==> Algorithm <==

  SCF Algorithm Type is DF.
  DIIS enabled.
  MOM disabled.
  Fractional occupation disabled.
  Guess Type is SAD.
  Energy threshold   = 1.00e-08
  Density threshold  = 1.00e-08
  Integral threshold = 0.00e+00

  ==> Primary Basis <==

  Basis Set: CC-PVDZ
    Blend: CC-PVDZ
    Number of shells: 36
    Number of basis function: 72
    Number of Cartesian functions: 75
    Spherical Harmonics?: true
    Max angular momentum: 2

  ==> DFT Potential <==

   => Composite Functional: M06-2X <= 

    Hybrid M06-2X Meta-GGA XC Functional

    Y. Zhao and D. G. Truhlar,  Theor. Chem. Acc., 120, 215, 2008


    Deriv               =              1
    GGA                 =           TRUE
    Meta                =           TRUE

    Exchange Hybrid     =           TRUE
    MP2 Hybrid          =          FALSE

   => Exchange Functionals <=

    1.0000   XC_HYB_MGGA_X_M06_2X

   => Exact (HF) Exchange <=

    0.5400               HF 

   => Correlation Functionals <=

    1.0000   XC_MGGA_C_M06_2X

   => Molecular Quadrature <=

    Radial Scheme          =       TREUTLER
    Pruning Scheme         =           FLAT
    Nuclear Scheme         =       TREUTLER

    BS radius alpha        =              1
    Pruning alpha          =              1
    Radial Points          =             75
    Spherical Points       =            302
    Total Points           =         200365
    Total Blocks           =           1566
    Max Points             =            256
    Max Functions          =             72

   => Loading Basis Set <=

    Name: (CC-PVDZ AUX)
    Role: JKFIT
    Keyword: DF_BASIS_SCF
    atoms 1-3 entry C          line   121 file /home/akrom/software/anaconda3/envs/ffpenv/share/psi4/basis/cc-pvdz-jkfit.gbs 
    atoms 4-9 entry H          line    51 file /home/akrom/software/anaconda3/envs/ffpenv/share/psi4/basis/cc-pvdz-jkfit.gbs 

  ==> Pre-Iterations <==

   -------------------------------------------------------
    Irrep   Nso     Nmo     Nalpha   Nbeta   Ndocc  Nsocc
   -------------------------------------------------------
     A'        45      45       0       0       0       0
     A"        27      27       0       0       0       0
   -------------------------------------------------------
    Total      72      72      12      12      12       0
   -------------------------------------------------------

  ==> Integral Setup <==

  DFHelper Memory: AOs need 0.015 GiB; user supplied 0.015 GiB. Using in-core AOs.

  ==> MemDFJK: Density-Fitted J/K Matrices <==

    J tasked:                   Yes
    K tasked:                   Yes
    wK tasked:                   No
    OpenMP threads:               1
    Memory [MiB]:                15
    Algorithm:                 Core
    Schwarz Cutoff:           1E-12
    Mask sparsity (%):       0.0000
    Fitting Condition:        1E-10

   => Auxiliary Basis Set <=

  Basis Set: (CC-PVDZ AUX)
    Blend: CC-PVDZ-JKFIT
    Number of shells: 126
    Number of basis function: 348
    Number of Cartesian functions: 393
    Spherical Harmonics?: true
    Max angular momentum: 3

  Cached 50.0% of DFT collocation blocks in 0.483 [GiB].

  Minimum eigenvalue in the overlap matrix is 5.9278925342E-03.
  Using Symmetric Orthogonalization.

  SCF Guess: Superposition of Atomic Densities via on-the-fly atomic UHF.

  ==> Iterations <==

                           Total Energy        Delta E     RMS |[F,P]|

   @DF-RKS iter SAD:  -117.50288425224416   -1.17503e+02   0.00000e+00 
   @DF-RKS iter   1:  -117.65730696034350   -1.54423e-01   1.08136e-02 DIIS
   @DF-RKS iter   2:  -117.68712324040840   -2.98163e-02   1.01501e-02 DIIS
   @DF-RKS iter   3:  -117.83760794252882   -1.50485e-01   3.70112e-04 DIIS
   @DF-RKS iter   4:  -117.83779561623683   -1.87674e-04   6.09961e-05 DIIS
   @DF-RKS iter   5:  -117.83780249322810   -6.87699e-06   5.09902e-06 DIIS
   @DF-RKS iter   6:  -117.83780255624173   -6.30136e-08   4.75880e-07 DIIS
   @DF-RKS iter   7:  -117.83780255712290   -8.81172e-10   9.92468e-08 DIIS
   @DF-RKS iter   8:  -117.83780255713400   -1.10987e-11   6.65625e-08 DIIS
   @DF-RKS iter   9:  -117.83780255714041   -6.40910e-12   3.76407e-09 DIIS
  Energy and wave function converged.


  ==> Post-Iterations <==

    Orbital Energies [Eh]
    ---------------------

    Doubly Occupied:                                                      

       1Ap   -10.547610     2Ap   -10.547092     3Ap   -10.547083  
       4Ap    -0.940443     5Ap    -0.674196     6Ap    -0.674185  
       1App   -0.560567     7Ap    -0.523595     2App   -0.419878  
       3App   -0.419856     8Ap    -0.345901     9Ap    -0.345861  

    Virtual:                                                              

      10Ap     0.108911     4App    0.120037    11Ap     0.156400  
      12Ap     0.156408    13Ap     0.187911     5App    0.224137  
       6App    0.224149    14Ap     0.286847    15Ap     0.286859  
      16Ap     0.426228     7App    0.440010    17Ap     0.528049  
      18Ap     0.528096    19Ap     0.583456    20Ap     0.620900  
      21Ap     0.620946    22Ap     0.672722     8App    0.690090  
       9App    0.690203    10App    0.701659    11App    0.718977  
      12App    0.719011    23Ap     0.741602    24Ap     0.741675  
      25Ap     0.844692    13App    1.191929    26Ap     1.205921  
      27Ap     1.205931    28Ap     1.238058    14App    1.244824  
      15App    1.244831    16App    1.492572    29Ap     1.512935  
      30Ap     1.512971    31Ap     1.607672    32Ap     1.607713  
      17App    1.623293    18App    1.623387    19App    1.649480  
      33Ap     1.757707    20App    1.765347    21App    1.765388  
      34Ap     1.768538    35Ap     1.813814    36Ap     1.813890  
      37Ap     1.955158    38Ap     1.955213    39Ap     2.099674  
      40Ap     2.114349    22App    2.124267    23App    2.124273  
      41Ap     2.302411    42Ap     2.302475    24App    2.333537  
      43Ap     2.385449    25App    2.453387    44Ap     2.597131  
      45Ap     2.597274    26App    2.780714    27App    2.780944  

    Final Occupation by Irrep:
             Ap   App 
    DOCC [     9,    3 ]

  @DF-RKS Final Energy:  -117.83780255714041

   => Energetics <=

    Nuclear Repulsion Energy =             75.2814648090140253
    One-Electron Energy =                -305.8274348898382868
    Two-Electron Energy =                 121.6115499699336908
    DFT Exchange-Correlation Energy =      -8.9033824462498465
    Empirical Dispersion Energy =           0.0000000000000000
    VV10 Nonlocal Energy =                  0.0000000000000000
    Total Energy =                       -117.8378025571404066

Computation Completed


Properties will be evaluated at   0.000000,   0.000000,   0.000000 [a0]

Properties computed using the SCF density matrix

  Nuclear Dipole Moment: [e a0]
     X:    -0.0002      Y:    -0.0002      Z:     0.0000

  Electronic Dipole Moment: [e a0]
     X:     0.0003      Y:     0.0001      Z:     0.0000

  Dipole Moment: [e a0]
     X:     0.0001      Y:    -0.0001      Z:     0.0000     Total:     0.0002

  Dipole Moment: [D]
     X:     0.0003      Y:    -0.0003      Z:     0.0000     Total:     0.0004


*** tstop() called on atlantis at Tue Apr 19 11:25:31 2022
Module time:
	user time   =       8.61 seconds =       0.14 minutes
	system time =       0.02 seconds =       0.00 minutes
	total time  =          9 seconds =       0.15 minutes
Total time:
	user time   =      25.46 seconds =       0.42 minutes
	system time =       0.19 seconds =       0.00 minutes
	total time  =         26 seconds =       0.43 minutes

*** tstart() called on atlantis
*** at Tue Apr 19 11:25:31 2022


         ------------------------------------------------------------
                                   SCF GRAD                          
                          Rob Parrish, Justin Turney,                
                       Andy Simmonett, and Alex Sokolov              
         ------------------------------------------------------------

  ==> Geometry <==

    Molecular point group: cs
    Full point group: Cs

    Geometry (in Angstrom), charge = 0, multiplicity = 1:

       Center              X                  Y                   Z               Mass       
    ------------   -----------------  -----------------  -----------------  -----------------
         C            0.321531939855     0.813261460475     0.000000000000    12.000000000000
         C           -0.865048060145    -0.128168539525     0.000000000000    12.000000000000
         C            0.543531939855    -0.685078539525     0.000000000000    12.000000000000
         H            0.537951939855     1.360691460475    -0.920390000000     1.007825032230
         H            0.537951939855     1.360691460475     0.920390000000     1.007825032230
         H           -1.447418060145    -0.214488539525     0.920340000000     1.007825032230
         H           -1.447418060145    -0.214488539525    -0.920340000000     1.007825032230
         H            0.909371939855    -1.146288539525    -0.920370000000     1.007825032230
         H            0.909371939855    -1.146288539525     0.920370000000     1.007825032230

  Nuclear repulsion =   75.281464809014025

  ==> Basis Set <==

  Basis Set: CC-PVDZ
    Blend: CC-PVDZ
    Number of shells: 36
    Number of basis function: 72
    Number of Cartesian functions: 75
    Spherical Harmonics?: true
    Max angular momentum: 2

  ==> DFJKGrad: Density-Fitted SCF Gradients <==

    Gradient:                    1
    J tasked:                  Yes
    K tasked:                  Yes
    wK tasked:                  No
    OpenMP threads:              1
    Integrals threads:           1
    Memory [MiB]:              375
    Schwarz Cutoff:          0E+00
    Fitting Condition:       1E-10

   => Auxiliary Basis Set <=

  Basis Set: (CC-PVDZ AUX)
    Blend: CC-PVDZ-JKFIT
    Number of shells: 126
    Number of basis function: 348
    Number of Cartesian functions: 393
    Spherical Harmonics?: true
    Max angular momentum: 3

  ==> DFT Potential <==

   => Composite Functional: M06-2X <= 

    Hybrid M06-2X Meta-GGA XC Functional

    Y. Zhao and D. G. Truhlar,  Theor. Chem. Acc., 120, 215, 2008


    Deriv               =              1
    GGA                 =           TRUE
    Meta                =           TRUE

    Exchange Hybrid     =           TRUE
    MP2 Hybrid          =          FALSE

   => Exchange Functionals <=

    1.0000   XC_HYB_MGGA_X_M06_2X

   => Exact (HF) Exchange <=

    0.5400               HF 

   => Correlation Functionals <=

    1.0000   XC_MGGA_C_M06_2X

   => Molecular Quadrature <=

    Radial Scheme          =       TREUTLER
    Pruning Scheme         =           FLAT
    Nuclear Scheme         =       TREUTLER

    BS radius alpha        =              1
    Pruning alpha          =              1
    Radial Points          =             75
    Spherical Points       =            302
    Total Points           =         200365
    Total Blocks           =           1566
    Max Points             =            256
    Max Functions          =             72


  -Total Gradient:
     Atom            X                  Y                   Z
    ------   -----------------  -----------------  -----------------
       1        0.003039684825     0.007643621843     0.000000000000
       2       -0.008084526003    -0.001150795213     0.000000000000
       3        0.005132553993    -0.006444609295     0.000000000000
       4        0.000434286728     0.001038434279    -0.001417241085
       5        0.000434286728     0.001038434279     0.001417241085
       6       -0.001108762485    -0.000133208090     0.001428673598
       7       -0.001108762485    -0.000133208090    -0.001428673598
       8        0.000748619658    -0.000900534120    -0.001416499893
       9        0.000748619658    -0.000900534120     0.001416499893


*** tstop() called on atlantis at Tue Apr 19 11:25:32 2022
Module time:
	user time   =       1.59 seconds =       0.03 minutes
	system time =       0.00 seconds =       0.00 minutes
	total time  =          1 seconds =       0.02 minutes
Total time:
	user time   =      27.05 seconds =       0.45 minutes
	system time =       0.19 seconds =       0.00 minutes
	total time  =         27 seconds =       0.45 minutes

  //>>>>>>>>>>>>>>>>>>>>>>>>>>>>>>>>>>>//
  //    Loading displacement 2 of 34   //
  //<<<<<<<<<<<<<<<<<<<<<<<<<<<<<<<<<<<//
gradient() will perform analytic gradient computation.

*** tstart() called on atlantis
*** at Tue Apr 19 11:25:32 2022

   => Loading Basis Set <=

    Name: CC-PVDZ
    Role: ORBITAL
    Keyword: BASIS
    atoms 1-3 entry C          line   138 file /home/akrom/software/anaconda3/envs/ffpenv/share/psi4/basis/cc-pvdz.gbs 
    atoms 4-9 entry H          line    22 file /home/akrom/software/anaconda3/envs/ffpenv/share/psi4/basis/cc-pvdz.gbs 


         ---------------------------------------------------------
                                   SCF
               by Justin Turney, Rob Parrish, Andy Simmonett
                          and Daniel G. A. Smith
                              RKS Reference
                        1 Threads,    500 MiB Core
         ---------------------------------------------------------

  ==> Geometry <==

    Molecular point group: cs
    Full point group: Cs

    Geometry (in Angstrom), charge = 0, multiplicity = 1:

       Center              X                  Y                   Z               Mass       
    ------------   -----------------  -----------------  -----------------  -----------------
         C            0.320981935461     0.813179232929     0.000000000000    12.000000000000
         C           -0.864778117207    -0.127947314912     0.000000000000    12.000000000000
         C            0.543659460418    -0.685217540638     0.000000000000    12.000000000000
         H            0.538602639069     1.360553886373    -0.920390000000     1.007825032230
         H            0.538602639069     1.360553886373     0.920390000000     1.007825032230
         H           -1.447170192407    -0.214118381478     0.920340000000     1.007825032230
         H           -1.447170192407    -0.214118381478    -0.920340000000     1.007825032230
         H            0.909381512053    -1.146521099385    -0.920370000000     1.007825032230
         H            0.909381512053    -1.146521099385     0.920370000000     1.007825032230

  Running in cs symmetry.

  Rotational constants: A =      0.66511  B =      0.66452  C =      0.41655 [cm^-1]
  Rotational constants: A =  19939.46144  B =  19921.88173  C =  12487.97026 [MHz]
  Nuclear repulsion =   75.286659304380962

  Charge       = 0
  Multiplicity = 1
  Electrons    = 24
  Nalpha       = 12
  Nbeta        = 12

  ==> Algorithm <==

  SCF Algorithm Type is DF.
  DIIS enabled.
  MOM disabled.
  Fractional occupation disabled.
  Guess Type is SAD.
  Energy threshold   = 1.00e-08
  Density threshold  = 1.00e-08
  Integral threshold = 0.00e+00

  ==> Primary Basis <==

  Basis Set: CC-PVDZ
    Blend: CC-PVDZ
    Number of shells: 36
    Number of basis function: 72
    Number of Cartesian functions: 75
    Spherical Harmonics?: true
    Max angular momentum: 2

  ==> DFT Potential <==

   => Composite Functional: M06-2X <= 

    Hybrid M06-2X Meta-GGA XC Functional

    Y. Zhao and D. G. Truhlar,  Theor. Chem. Acc., 120, 215, 2008


    Deriv               =              1
    GGA                 =           TRUE
    Meta                =           TRUE

    Exchange Hybrid     =           TRUE
    MP2 Hybrid          =          FALSE

   => Exchange Functionals <=

    1.0000   XC_HYB_MGGA_X_M06_2X

   => Exact (HF) Exchange <=

    0.5400               HF 

   => Correlation Functionals <=

    1.0000   XC_MGGA_C_M06_2X

   => Molecular Quadrature <=

    Radial Scheme          =       TREUTLER
    Pruning Scheme         =           FLAT
    Nuclear Scheme         =       TREUTLER

    BS radius alpha        =              1
    Pruning alpha          =              1
    Radial Points          =             75
    Spherical Points       =            302
    Total Points           =         200383
    Total Blocks           =           1541
    Max Points             =            256
    Max Functions          =             72

   => Loading Basis Set <=

    Name: (CC-PVDZ AUX)
    Role: JKFIT
    Keyword: DF_BASIS_SCF
    atoms 1-3 entry C          line   121 file /home/akrom/software/anaconda3/envs/ffpenv/share/psi4/basis/cc-pvdz-jkfit.gbs 
    atoms 4-9 entry H          line    51 file /home/akrom/software/anaconda3/envs/ffpenv/share/psi4/basis/cc-pvdz-jkfit.gbs 

  ==> Pre-Iterations <==

   -------------------------------------------------------
    Irrep   Nso     Nmo     Nalpha   Nbeta   Ndocc  Nsocc
   -------------------------------------------------------
     A'        45      45       0       0       0       0
     A"        27      27       0       0       0       0
   -------------------------------------------------------
    Total      72      72      12      12      12       0
   -------------------------------------------------------

  ==> Integral Setup <==

  DFHelper Memory: AOs need 0.015 GiB; user supplied 0.015 GiB. Using in-core AOs.

  ==> MemDFJK: Density-Fitted J/K Matrices <==

    J tasked:                   Yes
    K tasked:                   Yes
    wK tasked:                   No
    OpenMP threads:               1
    Memory [MiB]:                15
    Algorithm:                 Core
    Schwarz Cutoff:           1E-12
    Mask sparsity (%):       0.0000
    Fitting Condition:        1E-10

   => Auxiliary Basis Set <=

  Basis Set: (CC-PVDZ AUX)
    Blend: CC-PVDZ-JKFIT
    Number of shells: 126
    Number of basis function: 348
    Number of Cartesian functions: 393
    Spherical Harmonics?: true
    Max angular momentum: 3

  Cached 50.0% of DFT collocation blocks in 0.486 [GiB].

  Minimum eigenvalue in the overlap matrix is 5.9169040177E-03.
  Using Symmetric Orthogonalization.

  SCF Guess: Superposition of Atomic Densities via on-the-fly atomic UHF.

  ==> Iterations <==

                           Total Energy        Delta E     RMS |[F,P]|

   @DF-RKS iter SAD:  -117.50343747457312   -1.17503e+02   0.00000e+00 
   @DF-RKS iter   1:  -117.65722603528289   -1.53789e-01   1.08172e-02 DIIS
   @DF-RKS iter   2:  -117.68699147421754   -2.97654e-02   1.01556e-02 DIIS
   @DF-RKS iter   3:  -117.83763128013689   -1.50640e-01   3.70207e-04 DIIS
   @DF-RKS iter   4:  -117.83781907059372   -1.87790e-04   6.10191e-05 DIIS
   @DF-RKS iter   5:  -117.83782595252706   -6.88193e-06   5.13340e-06 DIIS
   @DF-RKS iter   6:  -117.83782601548060   -6.29535e-08   7.95484e-07 DIIS
   @DF-RKS iter   7:  -117.83782601631431   -8.33708e-10   6.72350e-07 DIIS
   @DF-RKS iter   8:  -117.83782601693953   -6.25221e-10   2.86533e-08 DIIS
   @DF-RKS iter   9:  -117.83782601694178   -2.24532e-12   3.62340e-09 DIIS
  Energy and wave function converged.


  ==> Post-Iterations <==

    Orbital Energies [Eh]
    ---------------------

    Doubly Occupied:                                                      

       1Ap   -10.547598     2Ap   -10.547084     3Ap   -10.547065  
       4Ap    -0.940551     5Ap    -0.674219     6Ap    -0.674131  
       1App   -0.560573     7Ap    -0.523662     2App   -0.419866  
       3App   -0.419753     8Ap    -0.346109     9Ap    -0.345716  

    Virtual:                                                              

      10Ap     0.108905     4App    0.119990    11Ap     0.156397  
      12Ap     0.156419    13Ap     0.187994     5App    0.224142  
       6App    0.224157    14Ap     0.286762    15Ap     0.287070  
      16Ap     0.426230     7App    0.439983    17Ap     0.528017  
      18Ap     0.528132    19Ap     0.583425    20Ap     0.620868  
      21Ap     0.621208    22Ap     0.672755     8App    0.689832  
       9App    0.690410    10App    0.701617    11App    0.718933  
      12App    0.719040    23Ap     0.741611    24Ap     0.741749  
      25Ap     0.844711    13App    1.191957    26Ap     1.205989  
      27Ap     1.206021    28Ap     1.238030    14App    1.244774  
      15App    1.244853    16App    1.492574    29Ap     1.513044  
      30Ap     1.513132    31Ap     1.607748    32Ap     1.607789  
      17App    1.623353    18App    1.623434    19App    1.649549  
      33Ap     1.757753    20App    1.765095    21App    1.765575  
      34Ap     1.768770    35Ap     1.813713    36Ap     1.814274  
      37Ap     1.955168    38Ap     1.955380    39Ap     2.099705  
      40Ap     2.114273    22App    2.124064    23App    2.124289  
      41Ap     2.302236    42Ap     2.302674    24App    2.333430  
      43Ap     2.385207    25App    2.453334    44Ap     2.596567  
      45Ap     2.597359    26App    2.780584    27App    2.781550  

    Final Occupation by Irrep:
             Ap   App 
    DOCC [     9,    3 ]

  @DF-RKS Final Energy:  -117.83782601694178

   => Energetics <=

    Nuclear Repulsion Energy =             75.2866593043809615
    One-Electron Energy =                -305.8376990052908013
    Two-Electron Energy =                 121.6166637970815998
    DFT Exchange-Correlation Energy =      -8.9034501131135517
    Empirical Dispersion Energy =           0.0000000000000000
    VV10 Nonlocal Energy =                  0.0000000000000000
    Total Energy =                       -117.8378260169417757

Computation Completed


Properties will be evaluated at   0.000000,   0.000000,   0.000000 [a0]

Properties computed using the SCF density matrix

  Nuclear Dipole Moment: [e a0]
     X:     0.0015      Y:    -0.0002      Z:     0.0000

  Electronic Dipole Moment: [e a0]
     X:    -0.0016      Y:     0.0003      Z:     0.0000

  Dipole Moment: [e a0]
     X:    -0.0001      Y:     0.0002      Z:     0.0000     Total:     0.0002

  Dipole Moment: [D]
     X:    -0.0001      Y:     0.0005      Z:     0.0000     Total:     0.0005


*** tstop() called on atlantis at Tue Apr 19 11:25:41 2022
Module time:
	user time   =       8.53 seconds =       0.14 minutes
	system time =       0.04 seconds =       0.00 minutes
	total time  =          9 seconds =       0.15 minutes
Total time:
	user time   =      35.58 seconds =       0.59 minutes
	system time =       0.23 seconds =       0.00 minutes
	total time  =         36 seconds =       0.60 minutes

*** tstart() called on atlantis
*** at Tue Apr 19 11:25:41 2022


         ------------------------------------------------------------
                                   SCF GRAD                          
                          Rob Parrish, Justin Turney,                
                       Andy Simmonett, and Alex Sokolov              
         ------------------------------------------------------------

  ==> Geometry <==

    Molecular point group: cs
    Full point group: Cs

    Geometry (in Angstrom), charge = 0, multiplicity = 1:

       Center              X                  Y                   Z               Mass       
    ------------   -----------------  -----------------  -----------------  -----------------
         C            0.320981935461     0.813179232929     0.000000000000    12.000000000000
         C           -0.864778117207    -0.127947314912     0.000000000000    12.000000000000
         C            0.543659460418    -0.685217540638     0.000000000000    12.000000000000
         H            0.538602639069     1.360553886373    -0.920390000000     1.007825032230
         H            0.538602639069     1.360553886373     0.920390000000     1.007825032230
         H           -1.447170192407    -0.214118381478     0.920340000000     1.007825032230
         H           -1.447170192407    -0.214118381478    -0.920340000000     1.007825032230
         H            0.909381512053    -1.146521099385    -0.920370000000     1.007825032230
         H            0.909381512053    -1.146521099385     0.920370000000     1.007825032230

  Nuclear repulsion =   75.286659304380962

  ==> Basis Set <==

  Basis Set: CC-PVDZ
    Blend: CC-PVDZ
    Number of shells: 36
    Number of basis function: 72
    Number of Cartesian functions: 75
    Spherical Harmonics?: true
    Max angular momentum: 2

  ==> DFJKGrad: Density-Fitted SCF Gradients <==

    Gradient:                    1
    J tasked:                  Yes
    K tasked:                  Yes
    wK tasked:                  No
    OpenMP threads:              1
    Integrals threads:           1
    Memory [MiB]:              375
    Schwarz Cutoff:          0E+00
    Fitting Condition:       1E-10

   => Auxiliary Basis Set <=

  Basis Set: (CC-PVDZ AUX)
    Blend: CC-PVDZ-JKFIT
    Number of shells: 126
    Number of basis function: 348
    Number of Cartesian functions: 393
    Spherical Harmonics?: true
    Max angular momentum: 3

  ==> DFT Potential <==

   => Composite Functional: M06-2X <= 

    Hybrid M06-2X Meta-GGA XC Functional

    Y. Zhao and D. G. Truhlar,  Theor. Chem. Acc., 120, 215, 2008


    Deriv               =              1
    GGA                 =           TRUE
    Meta                =           TRUE

    Exchange Hybrid     =           TRUE
    MP2 Hybrid          =          FALSE

   => Exchange Functionals <=

    1.0000   XC_HYB_MGGA_X_M06_2X

   => Exact (HF) Exchange <=

    0.5400               HF 

   => Correlation Functionals <=

    1.0000   XC_MGGA_C_M06_2X

   => Molecular Quadrature <=

    Radial Scheme          =       TREUTLER
    Pruning Scheme         =           FLAT
    Nuclear Scheme         =       TREUTLER

    BS radius alpha        =              1
    Pruning alpha          =              1
    Radial Points          =             75
    Spherical Points       =            302
    Total Points           =         200383
    Total Blocks           =           1541
    Max Points             =            256
    Max Functions          =             72


  -Total Gradient:
     Atom            X                  Y                   Z
    ------   -----------------  -----------------  -----------------
       1        0.002470838027     0.007370659005     0.000000000000
       2       -0.007776502892    -0.001023750818     0.000000000000
       3        0.005169611841    -0.006401176192     0.000000000000
       4        0.000520111731     0.001104990283    -0.001521872955
       5        0.000520111731     0.001104990283     0.001521872955
       6       -0.001062301651    -0.000136617171     0.001464325832
       7       -0.001062301651    -0.000136617171    -0.001464325832
       8        0.000724545446    -0.000856214042    -0.001449027933
       9        0.000724545446    -0.000856214042     0.001449027933


*** tstop() called on atlantis at Tue Apr 19 11:25:43 2022
Module time:
	user time   =       1.59 seconds =       0.03 minutes
	system time =       0.00 seconds =       0.00 minutes
	total time  =          2 seconds =       0.03 minutes
Total time:
	user time   =      37.17 seconds =       0.62 minutes
	system time =       0.23 seconds =       0.00 minutes
	total time  =         38 seconds =       0.63 minutes

  //>>>>>>>>>>>>>>>>>>>>>>>>>>>>>>>>>>>//
  //    Loading displacement 3 of 34   //
  //<<<<<<<<<<<<<<<<<<<<<<<<<<<<<<<<<<<//
gradient() will perform analytic gradient computation.

*** tstart() called on atlantis
*** at Tue Apr 19 11:25:43 2022

   => Loading Basis Set <=

    Name: CC-PVDZ
    Role: ORBITAL
    Keyword: BASIS
    atoms 1-3 entry C          line   138 file /home/akrom/software/anaconda3/envs/ffpenv/share/psi4/basis/cc-pvdz.gbs 
    atoms 4-9 entry H          line    22 file /home/akrom/software/anaconda3/envs/ffpenv/share/psi4/basis/cc-pvdz.gbs 


         ---------------------------------------------------------
                                   SCF
               by Justin Turney, Rob Parrish, Andy Simmonett
                          and Daniel G. A. Smith
                              RKS Reference
                        1 Threads,    500 MiB Core
         ---------------------------------------------------------

  ==> Geometry <==

    Molecular point group: cs
    Full point group: Cs

    Geometry (in Angstrom), charge = 0, multiplicity = 1:

       Center              X                  Y                   Z               Mass       
    ------------   -----------------  -----------------  -----------------  -----------------
         C            0.322081944250     0.813343688021     0.000000000000    12.000000000000
         C           -0.865318003082    -0.128389764139     0.000000000000    12.000000000000
         C            0.543404419293    -0.684939538412     0.000000000000    12.000000000000
         H            0.537301240642     1.360829034576    -0.920390000000     1.007825032230
         H            0.537301240642     1.360829034576     0.920390000000     1.007825032230
         H           -1.447665927882    -0.214858697572     0.920340000000     1.007825032230
         H           -1.447665927882    -0.214858697572    -0.920340000000     1.007825032230
         H            0.909362367658    -1.146055979665    -0.920370000000     1.007825032230
         H            0.909362367658    -1.146055979665     0.920370000000     1.007825032230

  Running in cs symmetry.

  Rotational constants: A =      0.66489  B =      0.66431  C =      0.41639 [cm^-1]
  Rotational constants: A =  19932.94970  B =  19915.53021  C =  12482.92073 [MHz]
  Nuclear repulsion =   75.276267816162189

  Charge       = 0
  Multiplicity = 1
  Electrons    = 24
  Nalpha       = 12
  Nbeta        = 12

  ==> Algorithm <==

  SCF Algorithm Type is DF.
  DIIS enabled.
  MOM disabled.
  Fractional occupation disabled.
  Guess Type is SAD.
  Energy threshold   = 1.00e-08
  Density threshold  = 1.00e-08
  Integral threshold = 0.00e+00

  ==> Primary Basis <==

  Basis Set: CC-PVDZ
    Blend: CC-PVDZ
    Number of shells: 36
    Number of basis function: 72
    Number of Cartesian functions: 75
    Spherical Harmonics?: true
    Max angular momentum: 2

  ==> DFT Potential <==

   => Composite Functional: M06-2X <= 

    Hybrid M06-2X Meta-GGA XC Functional

    Y. Zhao and D. G. Truhlar,  Theor. Chem. Acc., 120, 215, 2008


    Deriv               =              1
    GGA                 =           TRUE
    Meta                =           TRUE

    Exchange Hybrid     =           TRUE
    MP2 Hybrid          =          FALSE

   => Exchange Functionals <=

    1.0000   XC_HYB_MGGA_X_M06_2X

   => Exact (HF) Exchange <=

    0.5400               HF 

   => Correlation Functionals <=

    1.0000   XC_MGGA_C_M06_2X

   => Molecular Quadrature <=

    Radial Scheme          =       TREUTLER
    Pruning Scheme         =           FLAT
    Nuclear Scheme         =       TREUTLER

    BS radius alpha        =              1
    Pruning alpha          =              1
    Radial Points          =             75
    Spherical Points       =            302
    Total Points           =         200383
    Total Blocks           =           1546
    Max Points             =            256
    Max Functions          =             72

   => Loading Basis Set <=

    Name: (CC-PVDZ AUX)
    Role: JKFIT
    Keyword: DF_BASIS_SCF
    atoms 1-3 entry C          line   121 file /home/akrom/software/anaconda3/envs/ffpenv/share/psi4/basis/cc-pvdz-jkfit.gbs 
    atoms 4-9 entry H          line    51 file /home/akrom/software/anaconda3/envs/ffpenv/share/psi4/basis/cc-pvdz-jkfit.gbs 

  ==> Pre-Iterations <==

   -------------------------------------------------------
    Irrep   Nso     Nmo     Nalpha   Nbeta   Ndocc  Nsocc
   -------------------------------------------------------
     A'        45      45       0       0       0       0
     A"        27      27       0       0       0       0
   -------------------------------------------------------
    Total      72      72      12      12      12       0
   -------------------------------------------------------

  ==> Integral Setup <==

  DFHelper Memory: AOs need 0.015 GiB; user supplied 0.015 GiB. Using in-core AOs.

  ==> MemDFJK: Density-Fitted J/K Matrices <==

    J tasked:                   Yes
    K tasked:                   Yes
    wK tasked:                   No
    OpenMP threads:               1
    Memory [MiB]:                15
    Algorithm:                 Core
    Schwarz Cutoff:           1E-12
    Mask sparsity (%):       0.0000
    Fitting Condition:        1E-10

   => Auxiliary Basis Set <=

  Basis Set: (CC-PVDZ AUX)
    Blend: CC-PVDZ-JKFIT
    Number of shells: 126
    Number of basis function: 348
    Number of Cartesian functions: 393
    Spherical Harmonics?: true
    Max angular momentum: 3

  Cached 50.0% of DFT collocation blocks in 0.513 [GiB].

  Minimum eigenvalue in the overlap matrix is 5.9243290898E-03.
  Using Symmetric Orthogonalization.

  SCF Guess: Superposition of Atomic Densities via on-the-fly atomic UHF.

  ==> Iterations <==

                           Total Energy        Delta E     RMS |[F,P]|

   @DF-RKS iter SAD:  -117.50235360127976   -1.17502e+02   0.00000e+00 
   @DF-RKS iter   1:  -117.65743320786274   -1.55080e-01   1.08103e-02 DIIS
   @DF-RKS iter   2:  -117.68728893991025   -2.98557e-02   1.01453e-02 DIIS
   @DF-RKS iter   3:  -117.83762439989030   -1.50335e-01   3.70388e-04 DIIS
   @DF-RKS iter   4:  -117.83781234148327   -1.87942e-04   6.09914e-05 DIIS
   @DF-RKS iter   5:  -117.83781922420448   -6.88272e-06   5.11873e-06 DIIS
   @DF-RKS iter   6:  -117.83781928708439   -6.28799e-08   7.16817e-07 DIIS
   @DF-RKS iter   7:  -117.83781928789568   -8.11298e-10   5.89877e-07 DIIS
   @DF-RKS iter   8:  -117.83781928837625   -4.80568e-10   3.09251e-08 DIIS
   @DF-RKS iter   9:  -117.83781928837872   -2.47269e-12   3.60609e-09 DIIS
  Energy and wave function converged.


  ==> Post-Iterations <==

    Orbital Energies [Eh]
    ---------------------

    Doubly Occupied:                                                      

       1Ap   -10.547621     2Ap   -10.547108     3Ap   -10.547089  
       4Ap    -0.940348     5Ap    -0.674256     6Ap    -0.674172  
       1App   -0.560553     7Ap    -0.523565     2App   -0.419971  
       3App   -0.419847     8Ap    -0.346039     9Ap    -0.345649  

    Virtual:                                                              

      10Ap     0.108908     4App    0.120069    11Ap     0.156403  
      12Ap     0.156414    13Ap     0.187837     5App    0.224128  
       6App    0.224161    14Ap     0.286652    15Ap     0.286973  
      16Ap     0.426275     7App    0.439977    17Ap     0.528015  
      18Ap     0.528172    19Ap     0.583548    20Ap     0.620627  
      21Ap     0.620981    22Ap     0.672707     8App    0.689834  
       9App    0.690543    10App    0.701693    11App    0.718981  
      12App    0.719085    23Ap     0.741669    24Ap     0.741778  
      25Ap     0.844723    13App    1.191883    26Ap     1.205816  
      27Ap     1.205924    28Ap     1.238055    14App    1.244708  
      15App    1.244822    16App    1.492647    29Ap     1.512859  
      30Ap     1.512998    31Ap     1.607759    32Ap     1.607841  
      17App    1.623193    18App    1.623393    19App    1.649492  
      33Ap     1.757737    20App    1.765246    21App    1.765714  
      34Ap     1.768566    35Ap     1.813482    36Ap     1.814052  
      37Ap     1.954991    38Ap     1.955197    39Ap     2.099548  
      40Ap     2.114367    22App    2.124277    23App    2.124417  
      41Ap     2.302229    42Ap     2.302556    24App    2.333331  
      43Ap     2.385671    25App    2.453498    44Ap     2.596872  
      45Ap     2.597807    26App    2.780343    27App    2.781618  

    Final Occupation by Irrep:
             Ap   App 
    DOCC [     9,    3 ]

  @DF-RKS Final Energy:  -117.83781928837872

   => Energetics <=

    Nuclear Repulsion Energy =             75.2762678161621892
    One-Electron Energy =                -305.8172010665388711
    Two-Electron Energy =                 121.6064828764588128
    DFT Exchange-Correlation Energy =      -8.9033689144608665
    Empirical Dispersion Energy =           0.0000000000000000
    VV10 Nonlocal Energy =                  0.0000000000000000
    Total Energy =                       -117.8378192883787250

Computation Completed


Properties will be evaluated at   0.000000,   0.000000,   0.000000 [a0]

Properties computed using the SCF density matrix

  Nuclear Dipole Moment: [e a0]
     X:    -0.0019      Y:    -0.0002      Z:     0.0000

  Electronic Dipole Moment: [e a0]
     X:     0.0020      Y:    -0.0001      Z:     0.0000

  Dipole Moment: [e a0]
     X:     0.0002      Y:    -0.0002      Z:     0.0000     Total:     0.0003

  Dipole Moment: [D]
     X:     0.0004      Y:    -0.0006      Z:     0.0000     Total:     0.0007


*** tstop() called on atlantis at Tue Apr 19 11:25:51 2022
Module time:
	user time   =       8.49 seconds =       0.14 minutes
	system time =       0.03 seconds =       0.00 minutes
	total time  =          8 seconds =       0.13 minutes
Total time:
	user time   =      45.66 seconds =       0.76 minutes
	system time =       0.26 seconds =       0.00 minutes
	total time  =         46 seconds =       0.77 minutes

*** tstart() called on atlantis
*** at Tue Apr 19 11:25:51 2022


         ------------------------------------------------------------
                                   SCF GRAD                          
                          Rob Parrish, Justin Turney,                
                       Andy Simmonett, and Alex Sokolov              
         ------------------------------------------------------------

  ==> Geometry <==

    Molecular point group: cs
    Full point group: Cs

    Geometry (in Angstrom), charge = 0, multiplicity = 1:

       Center              X                  Y                   Z               Mass       
    ------------   -----------------  -----------------  -----------------  -----------------
         C            0.322081944250     0.813343688021     0.000000000000    12.000000000000
         C           -0.865318003082    -0.128389764139     0.000000000000    12.000000000000
         C            0.543404419293    -0.684939538412     0.000000000000    12.000000000000
         H            0.537301240642     1.360829034576    -0.920390000000     1.007825032230
         H            0.537301240642     1.360829034576     0.920390000000     1.007825032230
         H           -1.447665927882    -0.214858697572     0.920340000000     1.007825032230
         H           -1.447665927882    -0.214858697572    -0.920340000000     1.007825032230
         H            0.909362367658    -1.146055979665    -0.920370000000     1.007825032230
         H            0.909362367658    -1.146055979665     0.920370000000     1.007825032230

  Nuclear repulsion =   75.276267816162189

  ==> Basis Set <==

  Basis Set: CC-PVDZ
    Blend: CC-PVDZ
    Number of shells: 36
    Number of basis function: 72
    Number of Cartesian functions: 75
    Spherical Harmonics?: true
    Max angular momentum: 2

  ==> DFJKGrad: Density-Fitted SCF Gradients <==

    Gradient:                    1
    J tasked:                  Yes
    K tasked:                  Yes
    wK tasked:                  No
    OpenMP threads:              1
    Integrals threads:           1
    Memory [MiB]:              375
    Schwarz Cutoff:          0E+00
    Fitting Condition:       1E-10

   => Auxiliary Basis Set <=

  Basis Set: (CC-PVDZ AUX)
    Blend: CC-PVDZ-JKFIT
    Number of shells: 126
    Number of basis function: 348
    Number of Cartesian functions: 393
    Spherical Harmonics?: true
    Max angular momentum: 3

  ==> DFT Potential <==

   => Composite Functional: M06-2X <= 

    Hybrid M06-2X Meta-GGA XC Functional

    Y. Zhao and D. G. Truhlar,  Theor. Chem. Acc., 120, 215, 2008


    Deriv               =              1
    GGA                 =           TRUE
    Meta                =           TRUE

    Exchange Hybrid     =           TRUE
    MP2 Hybrid          =          FALSE

   => Exchange Functionals <=

    1.0000   XC_HYB_MGGA_X_M06_2X

   => Exact (HF) Exchange <=

    0.5400               HF 

   => Correlation Functionals <=

    1.0000   XC_MGGA_C_M06_2X

   => Molecular Quadrature <=

    Radial Scheme          =       TREUTLER
    Pruning Scheme         =           FLAT
    Nuclear Scheme         =       TREUTLER

    BS radius alpha        =              1
    Pruning alpha          =              1
    Radial Points          =             75
    Spherical Points       =            302
    Total Points           =         200383
    Total Blocks           =           1546
    Max Points             =            256
    Max Functions          =             72


  -Total Gradient:
     Atom            X                  Y                   Z
    ------   -----------------  -----------------  -----------------
       1        0.003561074707     0.007923845789     0.000000000000
       2       -0.008377274078    -0.001340157219     0.000000000000
       3        0.005079236012    -0.006362307276     0.000000000000
       4        0.000314817219     0.000968871108    -0.001334660578
       5        0.000314817219     0.000968871108     0.001334660578
       6       -0.001096371272    -0.000165824770     0.001448579974
       7       -0.001096371272    -0.000165824770    -0.001448579974
       8        0.000705092848    -0.000819712232    -0.001471474650
       9        0.000705092848    -0.000819712232     0.001471474650


*** tstop() called on atlantis at Tue Apr 19 11:25:53 2022
Module time:
	user time   =       1.59 seconds =       0.03 minutes
	system time =       0.01 seconds =       0.00 minutes
	total time  =          2 seconds =       0.03 minutes
Total time:
	user time   =      47.25 seconds =       0.79 minutes
	system time =       0.27 seconds =       0.00 minutes
	total time  =         48 seconds =       0.80 minutes

  //>>>>>>>>>>>>>>>>>>>>>>>>>>>>>>>>>>>//
  //    Loading displacement 4 of 34   //
  //<<<<<<<<<<<<<<<<<<<<<<<<<<<<<<<<<<<//
gradient() will perform analytic gradient computation.

*** tstart() called on atlantis
*** at Tue Apr 19 11:25:53 2022

   => Loading Basis Set <=

    Name: CC-PVDZ
    Role: ORBITAL
    Keyword: BASIS
    atoms 1-3 entry C          line   138 file /home/akrom/software/anaconda3/envs/ffpenv/share/psi4/basis/cc-pvdz.gbs 
    atoms 4-9 entry H          line    22 file /home/akrom/software/anaconda3/envs/ffpenv/share/psi4/basis/cc-pvdz.gbs 


         ---------------------------------------------------------
                                   SCF
               by Justin Turney, Rob Parrish, Andy Simmonett
                          and Daniel G. A. Smith
                              RKS Reference
                        1 Threads,    500 MiB Core
         ---------------------------------------------------------

  ==> Geometry <==

    Molecular point group: cs
    Full point group: Cs

    Geometry (in Angstrom), charge = 0, multiplicity = 1:

       Center              X                  Y                   Z               Mass       
    ------------   -----------------  -----------------  -----------------  -----------------
         C            0.321531939855     0.812635159068     0.000000000000    12.000000000000
         C           -0.865072120902    -0.128008550426     0.000000000000    12.000000000000
         C            0.543576026536    -0.684746186637     0.000000000000    12.000000000000
         H            0.537745691682     1.361023130555    -0.920390000000     1.007825032230
         H            0.537745691682     1.361023130555     0.920390000000     1.007825032230
         H           -1.447431558178    -0.214399813329     0.920340000000     1.007825032230
         H           -1.447431558178    -0.214399813329    -0.920340000000     1.007825032230
         H            0.909472463446    -1.145911419873    -0.920370000000     1.007825032230
         H            0.909472463446    -1.145911419873     0.920370000000     1.007825032230

  Running in cs symmetry.

  Rotational constants: A =      0.66518  B =      0.66468  C =      0.41665 [cm^-1]
  Rotational constants: A =  19941.69418  B =  19926.66026  C =  12490.72376 [MHz]
  Nuclear repulsion =   75.292327113354389

  Charge       = 0
  Multiplicity = 1
  Electrons    = 24
  Nalpha       = 12
  Nbeta        = 12

  ==> Algorithm <==

  SCF Algorithm Type is DF.
  DIIS enabled.
  MOM disabled.
  Fractional occupation disabled.
  Guess Type is SAD.
  Energy threshold   = 1.00e-08
  Density threshold  = 1.00e-08
  Integral threshold = 0.00e+00

  ==> Primary Basis <==

  Basis Set: CC-PVDZ
    Blend: CC-PVDZ
    Number of shells: 36
    Number of basis function: 72
    Number of Cartesian functions: 75
    Spherical Harmonics?: true
    Max angular momentum: 2

  ==> DFT Potential <==

   => Composite Functional: M06-2X <= 

    Hybrid M06-2X Meta-GGA XC Functional

    Y. Zhao and D. G. Truhlar,  Theor. Chem. Acc., 120, 215, 2008


    Deriv               =              1
    GGA                 =           TRUE
    Meta                =           TRUE

    Exchange Hybrid     =           TRUE
    MP2 Hybrid          =          FALSE

   => Exchange Functionals <=

    1.0000   XC_HYB_MGGA_X_M06_2X

   => Exact (HF) Exchange <=

    0.5400               HF 

   => Correlation Functionals <=

    1.0000   XC_MGGA_C_M06_2X

   => Molecular Quadrature <=

    Radial Scheme          =       TREUTLER
    Pruning Scheme         =           FLAT
    Nuclear Scheme         =       TREUTLER

    BS radius alpha        =              1
    Pruning alpha          =              1
    Radial Points          =             75
    Spherical Points       =            302
    Total Points           =         200372
    Total Blocks           =           1562
    Max Points             =            256
    Max Functions          =             72

   => Loading Basis Set <=

    Name: (CC-PVDZ AUX)
    Role: JKFIT
    Keyword: DF_BASIS_SCF
    atoms 1-3 entry C          line   121 file /home/akrom/software/anaconda3/envs/ffpenv/share/psi4/basis/cc-pvdz-jkfit.gbs 
    atoms 4-9 entry H          line    51 file /home/akrom/software/anaconda3/envs/ffpenv/share/psi4/basis/cc-pvdz-jkfit.gbs 

  ==> Pre-Iterations <==

   -------------------------------------------------------
    Irrep   Nso     Nmo     Nalpha   Nbeta   Ndocc  Nsocc
   -------------------------------------------------------
     A'        45      45       0       0       0       0
     A"        27      27       0       0       0       0
   -------------------------------------------------------
    Total      72      72      12      12      12       0
   -------------------------------------------------------

  ==> Integral Setup <==

  DFHelper Memory: AOs need 0.015 GiB; user supplied 0.015 GiB. Using in-core AOs.

  ==> MemDFJK: Density-Fitted J/K Matrices <==

    J tasked:                   Yes
    K tasked:                   Yes
    wK tasked:                   No
    OpenMP threads:               1
    Memory [MiB]:                15
    Algorithm:                 Core
    Schwarz Cutoff:           1E-12
    Mask sparsity (%):       0.0000
    Fitting Condition:        1E-10

   => Auxiliary Basis Set <=

  Basis Set: (CC-PVDZ AUX)
    Blend: CC-PVDZ-JKFIT
    Number of shells: 126
    Number of basis function: 348
    Number of Cartesian functions: 393
    Spherical Harmonics?: true
    Max angular momentum: 3

  Cached 50.0% of DFT collocation blocks in 0.494 [GiB].

  Minimum eigenvalue in the overlap matrix is 5.9146738249E-03.
  Using Symmetric Orthogonalization.

  SCF Guess: Superposition of Atomic Densities via on-the-fly atomic UHF.

  ==> Iterations <==

                           Total Energy        Delta E     RMS |[F,P]|

   @DF-RKS iter SAD:  -117.50402744400827   -1.17504e+02   0.00000e+00 
   @DF-RKS iter   1:  -117.65709377238984   -1.53066e-01   1.08206e-02 DIIS
   @DF-RKS iter   2:  -117.68681511782141   -2.97213e-02   1.01609e-02 DIIS
   @DF-RKS iter   3:  -117.83761595260022   -1.50801e-01   3.69934e-04 DIIS
   @DF-RKS iter   4:  -117.83780347387500   -1.87521e-04   6.10306e-05 DIIS
   @DF-RKS iter   5:  -117.83781035002286   -6.87615e-06   5.16557e-06 DIIS
   @DF-RKS iter   6:  -117.83781041289242   -6.28696e-08   1.01407e-06 DIIS
   @DF-RKS iter   7:  -117.83781041394312   -1.05069e-09   8.30144e-07 DIIS
   @DF-RKS iter   8:  -117.83781041489983   -9.56717e-10   2.56578e-08 DIIS
   @DF-RKS iter   9:  -117.83781041490190   -2.06057e-12   3.60824e-09 DIIS
  Energy and wave function converged.


  ==> Post-Iterations <==

    Orbital Energies [Eh]
    ---------------------

    Doubly Occupied:                                                      

       1Ap   -10.547590     2Ap   -10.547079     3Ap   -10.547052  
       4Ap    -0.940657     5Ap    -0.674231     6Ap    -0.674069  
       1App   -0.560587     7Ap    -0.523701     2App   -0.419872  
       3App   -0.419649     8Ap    -0.346095     9Ap    -0.345815  

    Virtual:                                                              

      10Ap     0.108906     4App    0.119954    11Ap     0.156389  
      12Ap     0.156418    13Ap     0.188079     5App    0.224139  
       6App    0.224159    14Ap     0.286830    15Ap     0.287094  
      16Ap     0.426181     7App    0.440008    17Ap     0.527946  
      18Ap     0.528154    19Ap     0.583325    20Ap     0.621039  
      21Ap     0.621298    22Ap     0.672774     8App    0.689916  
       9App    0.690234    10App    0.701575    11App    0.718879  
      12App    0.719010    23Ap     0.741518    24Ap     0.741677  
      25Ap     0.844677    13App    1.192016    26Ap     1.206020  
      27Ap     1.206098    28Ap     1.238026    14App    1.244853  
      15App    1.244911    16App    1.492497    29Ap     1.513004  
[...]

    Exchange Hybrid     =           TRUE
    MP2 Hybrid          =          FALSE

   => Exchange Functionals <=

    1.0000   XC_HYB_MGGA_X_M06_2X

   => Exact (HF) Exchange <=

    0.5400               HF 

   => Correlation Functionals <=

    1.0000   XC_MGGA_C_M06_2X

   => Molecular Quadrature <=

    Radial Scheme          =       TREUTLER
    Pruning Scheme         =           FLAT
    Nuclear Scheme         =       TREUTLER

    BS radius alpha        =              1
    Pruning alpha          =              1
    Radial Points          =             75
    Spherical Points       =            302
    Total Points           =         200370
    Total Blocks           =           1554
    Max Points             =            256
    Max Functions          =             72


  -Total Gradient:
     Atom            X                  Y                   Z
    ------   -----------------  -----------------  -----------------
       1        0.003037019598     0.007645492710     0.000007634529
       2       -0.008086299131    -0.001152125909     0.000470043364
       3        0.005133151033    -0.006448862457    -0.001303951770
       4        0.000429896648     0.001033049561    -0.001418368312
       5        0.000433617545     0.001046178216     0.001415087973
       6       -0.000927459248    -0.000128911531     0.001135758834
       7       -0.001291683245    -0.000139037780    -0.001717408528
       8        0.000382765412    -0.000532490811    -0.000709138241
       9        0.001112144781    -0.001269851638     0.002119187772


*** tstop() called on atlantis at Tue Apr 19 11:31:09 2022
Module time:
	user time   =       1.60 seconds =       0.03 minutes
	system time =       0.00 seconds =       0.00 minutes
	total time  =          2 seconds =       0.03 minutes
Total time:
	user time   =     361.62 seconds =       6.03 minutes
	system time =       1.28 seconds =       0.02 minutes
	total time  =        364 seconds =       6.07 minutes

         ----------------------------------------------------------
                                   FINDIF
                     R. A. King and Jonathon Misiewicz
         ---------------------------------------------------------

  Computing second-derivative from gradients using projected, 
  symmetry-adapted, cartesian coordinates.

  34 gradients passed in, including the reference geometry.
  Generating complete list of displacements from unique ones.

    Operation 2 takes plus displacements of irrep A" to minus ones.

-------------------------------------------------------------


  ==> Harmonic Vibrational Analysis <==

  non-mass-weighted Hessian:       Symmetric? True   Hermitian? True   Lin Dep Dim?  6 (0)
  projection of translations (True) and rotations (True) removed 6 degrees of freedom (6)
  total projector:                 Symmetric? True   Hermitian? True   Lin Dep Dim?  6 (6)
  mass-weighted Hessian:           Symmetric? True   Hermitian? True   Lin Dep Dim?  6 (0)
  pre-proj  low-frequency mode:    0.0000i [cm^-1]
  pre-proj  low-frequency mode:    0.0000i [cm^-1]
  pre-proj  low-frequency mode:    0.0000i [cm^-1]
  pre-proj  low-frequency mode:    0.0000  [cm^-1]
  pre-proj  low-frequency mode:    0.0000  [cm^-1]
  pre-proj  low-frequency mode:    0.0000  [cm^-1]
  pre-proj  all modes:['0.0000i' '0.0000i' '0.0000i' '0.0000' '0.0000' '0.0000' '732.5807'
 '741.2258' '852.1833' '889.3188' '912.3419' '1018.8128' '1025.9680'
 '1091.2633' '1141.9322' '1192.8542' '1195.0606' '1213.1533' '1432.7071'
 '1452.5823' '1509.8462' '3140.6906' '3145.7609' '3152.7290' '3233.3930'
 '3233.6536' '3250.5229']
  projected mass-weighted Hessian: Symmetric? True   Hermitian? True   Lin Dep Dim?  6 (6)
  post-proj low-frequency mode:    0.0000i [cm^-1] (TR)
  post-proj low-frequency mode:    0.0000i [cm^-1] (TR)
  post-proj low-frequency mode:    0.0000i [cm^-1] (TR)
  post-proj low-frequency mode:    0.0000i [cm^-1] (TR)
  post-proj low-frequency mode:    0.0000i [cm^-1] (TR)
  post-proj low-frequency mode:    0.0000  [cm^-1] (TR)
  post-proj  all modes:['0.0000i' '0.0000i' '0.0000i' '0.0000i' '0.0000i' '0.0000' '732.5807'
 '741.2258' '852.1833' '889.3188' '912.3419' '1018.8128' '1025.9680'
 '1091.2633' '1141.9322' '1192.8542' '1195.0606' '1213.1533' '1432.7071'
 '1452.5823' '1509.8462' '3140.6906' '3145.7609' '3152.7290' '3233.3930'
 '3233.6536' '3250.5229']

  Vibration                       7                   8                   9           
  Freq [cm^-1]                 732.5807            741.2258            852.1833       
  Irrep                          App                 App                 App          
  Reduced mass [u]              1.0228              1.0242              1.0437        
  Force const [mDyne/A]         0.3234              0.3316              0.4466        
  Turning point v=0 [a0]        0.4009              0.3982              0.3679        
  RMS dev v=0 [a0 u^1/2]        0.2867              0.2850              0.2658        
  Char temp [K]               1054.0206           1066.4589           1226.1020       
  ----------------------------------------------------------------------------------
      1   C                0.00 -0.00 -0.00   -0.00 -0.00  0.03    0.00  0.00 -0.03   
      2   C               -0.00 -0.00 -0.03   -0.00 -0.00 -0.02    0.00 -0.00 -0.03   
      3   C               -0.00  0.00  0.03   -0.00  0.00 -0.01   -0.00 -0.00 -0.03   
      4   H                0.43 -0.11  0.03   -0.06 -0.33 -0.18    0.11  0.33  0.19   
      5   H               -0.43  0.11  0.03    0.06  0.33 -0.18   -0.11 -0.33  0.19   
      6   H                0.22  0.31  0.15    0.25 -0.31  0.11    0.35  0.04  0.19   
      7   H               -0.22 -0.31  0.15   -0.25  0.31  0.11   -0.35 -0.04  0.19   
      8   H               -0.06  0.32 -0.16    0.39  0.16  0.06    0.23 -0.29  0.20   
      9   H                0.06 -0.32 -0.16   -0.39 -0.16  0.06   -0.23  0.29  0.20   

  Vibration                       10                  11                  12          
  Freq [cm^-1]                 889.3188            912.3419           1018.8128       
  Irrep                           Ap                  Ap                  Ap          
  Reduced mass [u]              2.2502              3.6060              1.5843        
  Force const [mDyne/A]         1.0485              1.7684              0.9689        
  Turning point v=0 [a0]        0.2453              0.1913              0.2731        
  RMS dev v=0 [a0 u^1/2]        0.2602              0.2569              0.2431        
  Char temp [K]               1279.5317           1312.6569           1465.8448       
  ----------------------------------------------------------------------------------
      1   C               -0.15  0.12  0.00   -0.18 -0.24 -0.00   -0.05  0.02  0.00   
      2   C                0.21  0.07  0.00   -0.10  0.22 -0.00   -0.01  0.18  0.00   
      3   C                0.02 -0.17  0.00    0.29 -0.00 -0.00   -0.01 -0.12 -0.00   
      4   H               -0.35  0.16 -0.02   -0.17 -0.26 -0.00    0.14  0.01  0.03   
      5   H               -0.35  0.16  0.02   -0.17 -0.26  0.00    0.14  0.01 -0.03   
      6   H                0.18  0.12 -0.02   -0.10  0.48  0.02    0.02 -0.61 -0.05   
      7   H                0.18  0.12  0.02   -0.10  0.48 -0.02    0.02 -0.61  0.05   
      8   H               -0.32 -0.39 -0.02    0.22 -0.04 -0.02    0.27  0.09  0.00   
      9   H               -0.32 -0.39  0.02    0.22 -0.04  0.02    0.27  0.09 -0.00   

  Vibration                       13                  14                  15          
  Freq [cm^-1]                1025.9680           1091.2633           1141.9322       
  Irrep                           Ap                  Ap                 App          
  Reduced mass [u]              1.4361              1.2844              1.0099        
  Force const [mDyne/A]         0.8907              0.9012              0.7759        
  Turning point v=0 [a0]        0.2859              0.2931              0.3231        
  RMS dev v=0 [a0 u^1/2]        0.2422              0.2349              0.2296        
  Char temp [K]               1476.1395           1570.0849           1642.9862       
  ----------------------------------------------------------------------------------
      1   C               -0.08  0.06 -0.00   -0.13  0.05  0.00    0.00  0.00 -0.01   
      2   C                0.07 -0.05 -0.00    0.02 -0.03 -0.00    0.00 -0.00  0.01   
      3   C               -0.09 -0.11  0.00    0.05  0.05 -0.00   -0.00 -0.00 -0.01   
      4   H                0.20 -0.05 -0.00    0.58 -0.25 -0.01    0.40 -0.14  0.01   
      5   H                0.20 -0.05  0.00    0.58 -0.25  0.01   -0.40  0.14  0.01   
      6   H               -0.02  0.39 -0.02    0.02 -0.05  0.00    0.03 -0.41 -0.00   
      7   H               -0.02  0.39  0.02    0.02 -0.05 -0.00   -0.03  0.41 -0.00   
      8   H                0.45  0.28  0.02   -0.26 -0.11 -0.04   -0.29 -0.25  0.01   
      9   H                0.45  0.28 -0.02   -0.26 -0.11  0.04    0.29  0.25  0.01   

  Vibration                       16                  17                  18          
  Freq [cm^-1]                1192.8542           1195.0606           1213.1533       
  Irrep                          App                 App                  Ap          
  Reduced mass [u]              1.4395              1.4455              2.3262        
  Force const [mDyne/A]         1.2068              1.2163              2.0171        
  Turning point v=0 [a0]        0.2648              0.2640              0.2066        
  RMS dev v=0 [a0 u^1/2]        0.2246              0.2244              0.2228        
  Char temp [K]               1716.2517           1719.4262           1745.4574       
  ----------------------------------------------------------------------------------
      1   C               -0.00 -0.00 -0.09    0.00  0.00 -0.13   -0.06 -0.18 -0.00   
      2   C                0.00  0.00  0.16   -0.00  0.00 -0.01    0.20  0.06 -0.00   
      3   C               -0.00  0.00 -0.07    0.00 -0.00  0.15   -0.16  0.13  0.00   
      4   H                0.35  0.11  0.05   -0.08  0.38  0.06   -0.14 -0.33 -0.08   
      5   H               -0.35 -0.11  0.05    0.08 -0.38  0.06   -0.14 -0.33  0.08   
      6   H               -0.39 -0.05 -0.08    0.09 -0.39  0.01    0.35 -0.11  0.06   
      7   H                0.39  0.05 -0.08   -0.09  0.39  0.01    0.35 -0.11 -0.06   
      8   H                0.42  0.11  0.03   -0.09  0.39 -0.08   -0.13  0.37 -0.08   
      9   H               -0.42 -0.11  0.03    0.09 -0.39 -0.08   -0.13  0.37  0.08   

  Vibration                       19                  20                  21          
  Freq [cm^-1]                1432.7071           1452.5823           1509.8462       
  Irrep                           Ap                  Ap                  Ap          
  Reduced mass [u]              1.0997              1.0950              1.4191        
  Force const [mDyne/A]         1.3299              1.3613              1.9060        
  Turning point v=0 [a0]        0.2764              0.2751              0.2371        
  RMS dev v=0 [a0 u^1/2]        0.2050              0.2036              0.1997        
  Char temp [K]               2061.3465           2089.9425           2172.3326       
  ----------------------------------------------------------------------------------
      1   C               -0.04 -0.07 -0.00   -0.01  0.03  0.00   -0.04 -0.09 -0.00   
      2   C               -0.04 -0.01 -0.00   -0.05  0.00 -0.00    0.11  0.01  0.00   
      3   C               -0.00 -0.01 -0.00   -0.04  0.05  0.00   -0.06  0.10  0.00   
      4   H                0.17  0.44  0.33   -0.02 -0.15 -0.10    0.11  0.22  0.22   
      5   H                0.17  0.44 -0.33   -0.02 -0.15  0.10    0.11  0.22 -0.22   
      6   H                0.32  0.05  0.22    0.35  0.01  0.24   -0.32 -0.03 -0.27   
      7   H                0.32  0.05 -0.22    0.35  0.01 -0.24   -0.32 -0.03  0.27   
      8   H               -0.06  0.07 -0.06    0.26 -0.35  0.31    0.16 -0.29  0.28   
      9   H               -0.06  0.07  0.06    0.26 -0.35 -0.31    0.16 -0.29 -0.28   

  Vibration                       22                  23                  24          
  Freq [cm^-1]                3140.6906           3145.7609           3152.7290       
  Irrep                           Ap                  Ap                  Ap          
  Reduced mass [u]              1.0503              1.0510              1.0645        
  Force const [mDyne/A]         6.1039              6.1278              6.2340        
  Turning point v=0 [a0]        0.1910              0.1908              0.1894        
  RMS dev v=0 [a0 u^1/2]        0.1384              0.1383              0.1382        
  Char temp [K]               4518.7546           4526.0496           4536.0751       
  ----------------------------------------------------------------------------------
      1   C               -0.02 -0.04 -0.00    0.01  0.02  0.00    0.02  0.04  0.00   
      2   C               -0.00 -0.00  0.00    0.06  0.01  0.00   -0.03 -0.01 -0.00   
      3   C                0.03 -0.03 -0.00    0.01 -0.02  0.00    0.03 -0.03 -0.00   
      4   H                0.09  0.23 -0.42   -0.04 -0.11  0.19   -0.09 -0.22  0.39   
      5   H                0.09  0.23  0.42   -0.04 -0.11 -0.19   -0.09 -0.22 -0.39   
      6   H                0.01  0.00 -0.02   -0.32 -0.04  0.53    0.17  0.03 -0.28   
      7   H                0.01  0.00  0.02   -0.32 -0.04 -0.53    0.17  0.03  0.28   
      8   H               -0.16  0.21  0.44   -0.08  0.10  0.21   -0.14  0.17  0.36   
      9   H               -0.16  0.21 -0.44   -0.08  0.10 -0.21   -0.14  0.17 -0.36   

  Vibration                       25                  26                  27          
  Freq [cm^-1]                3233.3930           3233.6536           3250.5229       
  Irrep                          App                 App                 App          
  Reduced mass [u]              1.1213              1.1212              1.1165        
  Force const [mDyne/A]         6.9069              6.9073              6.9507        
  Turning point v=0 [a0]        0.1822              0.1822              0.1821        
  RMS dev v=0 [a0 u^1/2]        0.1364              0.1364              0.1361        
  Char temp [K]               4652.1326           4652.5076           4676.7788       
  ----------------------------------------------------------------------------------
      1   C               -0.00 -0.00  0.02    0.00  0.00 -0.08    0.00  0.00 -0.06   
      2   C                0.00  0.00 -0.08   -0.00 -0.00  0.02    0.00  0.00 -0.06   
      3   C               -0.00  0.00  0.06    0.00 -0.00  0.06   -0.00 -0.00 -0.06   
      4   H                0.02  0.07 -0.11   -0.11 -0.28  0.48   -0.08 -0.20  0.34   
      5   H               -0.02 -0.07 -0.11    0.11  0.28  0.48    0.08  0.20  0.34   
      6   H               -0.29 -0.04  0.46    0.09  0.01 -0.14   -0.22 -0.03  0.34   
      7   H                0.29  0.04  0.46   -0.09 -0.01 -0.14    0.22  0.03  0.34   
      8   H                0.14 -0.18 -0.36    0.13 -0.16 -0.33   -0.14  0.17  0.35   
      9   H               -0.14  0.18 -0.36   -0.13  0.16 -0.33    0.14 -0.17  0.35   

  ==> Thermochemistry Components <==

  Entropy, S
    Electronic S            0.000 [cal/(mol K)]        0.000 [J/(mol K)]       0.00000000 [mEh/K] (multiplicity = 1)
    Translational S        37.135 [cal/(mol K)]      155.375 [J/(mol K)]       0.05917914 [mEh/K] (mol. weight = 42.0470 [u], P = 101325.00 [Pa])
    Rotational S           21.699 [cal/(mol K)]       90.789 [J/(mol K)]       0.03457982 [mEh/K] (symmetry no. = 1)
    Vibrational S           1.431 [cal/(mol K)]        5.989 [J/(mol K)]       0.00228103 [mEh/K]
  Total S                  60.266 [cal/(mol K)]      252.153 [J/(mol K)]       0.09603999 [mEh/K]
  Correction S              0.000 [cal/(mol K)]        0.000 [J/(mol K)]       0.00000000 [mEh/K]

  Constant volume heat capacity, Cv
    Electronic Cv           0.000 [cal/(mol K)]        0.000 [J/(mol K)]       0.00000000 [mEh/K]
    Translational Cv        2.981 [cal/(mol K)]       12.472 [J/(mol K)]       0.00475022 [mEh/K]
    Rotational Cv           2.981 [cal/(mol K)]       12.472 [J/(mol K)]       0.00475022 [mEh/K]
    Vibrational Cv          5.198 [cal/(mol K)]       21.747 [J/(mol K)]       0.00828287 [mEh/K]
  Total Cv                 11.159 [cal/(mol K)]       46.690 [J/(mol K)]       0.01778330 [mEh/K]
  Correction Cv             0.000 [cal/(mol K)]        0.000 [J/(mol K)]       0.00000000 [mEh/K]

  Constant pressure heat capacity, Cp
    Electronic Cp           0.000 [cal/(mol K)]        0.000 [J/(mol K)]       0.00000000 [mEh/K]
    Translational Cp        4.968 [cal/(mol K)]       20.786 [J/(mol K)]       0.00791703 [mEh/K]
    Rotational Cp           2.981 [cal/(mol K)]       12.472 [J/(mol K)]       0.00475022 [mEh/K]
    Vibrational Cp          5.198 [cal/(mol K)]       21.747 [J/(mol K)]       0.00828287 [mEh/K]
  Total Cp                 13.146 [cal/(mol K)]       55.005 [J/(mol K)]       0.02095011 [mEh/K]
  Correction Cp             0.000 [cal/(mol K)]        0.000 [J/(mol K)]       0.00000000 [mEh/K]

  ==> Thermochemistry Energy Analysis <==

  Raw electronic energy, E0
  Total E0, Electronic energy at well bottom at 0 [K]                 -117.83780256 [Eh]

  Zero-point energy, ZPE_vib = Sum_i nu_i / 2
    Electronic ZPE          0.000 [kcal/mol]        0.000 [kJ/mol]       0.00000000 [Eh]
    Translational ZPE       0.000 [kcal/mol]        0.000 [kJ/mol]       0.00000000 [Eh]
    Rotational ZPE          0.000 [kcal/mol]        0.000 [kJ/mol]       0.00000000 [Eh]
    Vibrational ZPE        50.834 [kcal/mol]      212.688 [kJ/mol]       0.08100841 [Eh]       17779.290 [cm^-1]
  Correction ZPE           50.834 [kcal/mol]      212.688 [kJ/mol]       0.08100841 [Eh]       17779.290 [cm^-1]
  Total ZPE, Electronic energy at 0 [K]                               -117.75679415 [Eh]

  Thermal Energy, E (includes ZPE)
    Electronic E            0.000 [kcal/mol]        0.000 [kJ/mol]       0.00000000 [Eh]
    Translational E         0.889 [kcal/mol]        3.718 [kJ/mol]       0.00141628 [Eh]
    Rotational E            0.889 [kcal/mol]        3.718 [kJ/mol]       0.00141628 [Eh]
    Vibrational E          51.180 [kcal/mol]      214.136 [kJ/mol]       0.08156010 [Eh]
  Correction E             52.957 [kcal/mol]      221.573 [kJ/mol]       0.08439265 [Eh]
  Total E, Electronic energy at  298.15 [K]                           -117.75340991 [Eh]

  Enthalpy, H_trans = E_trans + k_B * T
    Electronic H            0.000 [kcal/mol]        0.000 [kJ/mol]       0.00000000 [Eh]
    Translational H         1.481 [kcal/mol]        6.197 [kJ/mol]       0.00236046 [Eh]
    Rotational H            0.889 [kcal/mol]        3.718 [kJ/mol]       0.00141628 [Eh]
    Vibrational H          51.180 [kcal/mol]      214.136 [kJ/mol]       0.08156010 [Eh]
  Correction H             53.550 [kcal/mol]      224.052 [kJ/mol]       0.08533683 [Eh]
  Total H, Enthalpy at  298.15 [K]                                    -117.75246572 [Eh]

  Gibbs free energy, G = H - T * S
    Electronic G            0.000 [kcal/mol]        0.000 [kJ/mol]       0.00000000 [Eh]
    Translational G        -9.591 [kcal/mol]      -40.128 [kJ/mol]      -0.01528380 [Eh]
    Rotational G           -5.581 [kcal/mol]      -23.350 [kJ/mol]      -0.00889370 [Eh]
    Vibrational G          50.753 [kcal/mol]      212.350 [kJ/mol]       0.08088001 [Eh]
  Correction G             35.581 [kcal/mol]      148.872 [kJ/mol]       0.05670251 [Eh]
  Total G, Free enthalpy at  298.15 [K]                               -117.78110005 [Eh]

    Psi4 stopped on: Tuesday, 19 April 2022 11:31AM
    Psi4 wall time for execution: 0:06:03.76

*** Psi4 exiting successfully. Buy a developer a beer!
