
    -----------------------------------------------------------------------
          Psi4: An Open-Source Ab Initio Electronic Structure Package
                               Psi4 1.3.2 release

                         Git: Rev {HEAD} ecbda83 


    R. M. Parrish, L. A. Burns, D. G. A. Smith, A. C. Simmonett,
    A. E. DePrince III, E. G. Hohenstein, U. Bozkaya, A. Yu. Sokolov,
    R. Di Remigio, R. M. Richard, J. F. Gonthier, A. M. James,
    H. R. McAlexander, A. Kumar, M. Saitow, X. Wang, B. P. Pritchard,
    P. Verma, H. F. Schaefer III, K. Patkowski, R. A. King, E. F. Valeev,
    F. A. Evangelista, J. M. Turney, T. D. Crawford, and C. D. Sherrill,
    J. Chem. Theory Comput. 13(7) pp 3185--3197 (2017).
    (doi: 10.1021/acs.jctc.7b00174)


                         Additional Contributions by
    P. Kraus, H. Kruse, M. H. Lechner, M. C. Schieber, R. A. Shaw,
    A. Alenaizan, R. Galvelis, Z. L. Glick, S. Lehtola, and J. P. Misiewicz

    -----------------------------------------------------------------------


    Psi4 started on: Wednesday, 20 April 2022 03:18AM

    Process ID: 13059
    Host:       atlantis
    PSIDATADIR: /home/akrom/software/anaconda3/envs/ffpenv/share/psi4
    Memory:     500.0 MiB
    Threads:    1
    
  ==> Input File <==

--------------------------------------------------------------------------
set basis  6-31G
molecule {
0 1
   C       -1.22151       -0.69325        0.00000
   C       -1.21114        0.71122        0.00000
   C       -0.01037       -1.40452        0.00000
   C        0.01037        1.40452        0.00000
   C        1.21114       -0.71122        0.00000
   C        1.22151        0.69325        0.00000
   H       -2.17311       -1.23332        0.00000
   H       -2.15464        1.26533        0.00000
   H       -0.01848       -2.49865        0.00000
   H        0.01848        2.49865        0.00000
   H        2.15464       -1.26533        0.00000
   H        2.17311        1.23332        0.00000
}
energy('m06-2x')
frequencies('m06-2x')
--------------------------------------------------------------------------

*** tstart() called on atlantis
*** at Wed Apr 20 03:18:41 2022

   => Loading Basis Set <=

    Name: 6-31G
    Role: ORBITAL
    Keyword: BASIS
    atoms 1-6  entry C          line    87 file /home/akrom/software/anaconda3/envs/ffpenv/share/psi4/basis/6-31g.gbs 
    atoms 7-12 entry H          line    26 file /home/akrom/software/anaconda3/envs/ffpenv/share/psi4/basis/6-31g.gbs 


         ---------------------------------------------------------
                                   SCF
               by Justin Turney, Rob Parrish, Andy Simmonett
                          and Daniel G. A. Smith
                              RKS Reference
                        1 Threads,    500 MiB Core
         ---------------------------------------------------------

  ==> Geometry <==

    Molecular point group: c2h
    Full point group: C2h

    Geometry (in Angstrom), charge = 0, multiplicity = 1:

       Center              X                  Y                   Z               Mass       
    ------------   -----------------  -----------------  -----------------  -----------------
         C           -1.221510000000    -0.693250000000     0.000000000000    12.000000000000
         C           -1.211140000000     0.711220000000     0.000000000000    12.000000000000
         C           -0.010370000000    -1.404520000000     0.000000000000    12.000000000000
         C            0.010370000000     1.404520000000     0.000000000000    12.000000000000
         C            1.211140000000    -0.711220000000     0.000000000000    12.000000000000
         C            1.221510000000     0.693250000000     0.000000000000    12.000000000000
         H           -2.173110000000    -1.233320000000     0.000000000000     1.007825032230
         H           -2.154640000000     1.265330000000     0.000000000000     1.007825032230
         H           -0.018480000000    -2.498650000000     0.000000000000     1.007825032230
         H            0.018480000000     2.498650000000     0.000000000000     1.007825032230
         H            2.154640000000    -1.265330000000     0.000000000000     1.007825032230
         H            2.173110000000     1.233320000000     0.000000000000     1.007825032230

  Running in c2h symmetry.

  Rotational constants: A =      0.18753  B =      0.18752  C =      0.09376 [cm^-1]
  Rotational constants: A =   5621.92707  B =   5621.82252  C =   2810.93740 [MHz]
  Nuclear repulsion =  202.013308935380167

  Charge       = 0
  Multiplicity = 1
  Electrons    = 42
  Nalpha       = 21
  Nbeta        = 21

  ==> Algorithm <==

  SCF Algorithm Type is DF.
  DIIS enabled.
  MOM disabled.
  Fractional occupation disabled.
  Guess Type is SAD.
  Energy threshold   = 1.00e-06
  Density threshold  = 1.00e-06
  Integral threshold = 0.00e+00

  ==> Primary Basis <==

  Basis Set: 6-31G
    Blend: 6-31G
    Number of shells: 42
    Number of basis function: 66
    Number of Cartesian functions: 66
    Spherical Harmonics?: false
    Max angular momentum: 1

  ==> DFT Potential <==

   => Composite Functional: M06-2X <= 

    Hybrid M06-2X Meta-GGA XC Functional

    Y. Zhao and D. G. Truhlar,  Theor. Chem. Acc., 120, 215, 2008


    Deriv               =              1
    GGA                 =           TRUE
    Meta                =           TRUE

    Exchange Hybrid     =           TRUE
    MP2 Hybrid          =          FALSE

   => Exchange Functionals <=

    1.0000   XC_HYB_MGGA_X_M06_2X

   => Exact (HF) Exchange <=

    0.5400               HF 

   => Correlation Functionals <=

    1.0000   XC_MGGA_C_M06_2X

   => Molecular Quadrature <=

    Radial Scheme          =       TREUTLER
    Pruning Scheme         =           FLAT
    Nuclear Scheme         =       TREUTLER

    BS radius alpha        =              1
    Pruning alpha          =              1
    Radial Points          =             75
    Spherical Points       =            302
    Total Points           =         263464
    Total Blocks           =           2062
    Max Points             =            256
    Max Functions          =             66

   => Loading Basis Set <=

    Name: (6-31G AUX)
    Role: JKFIT
    Keyword: DF_BASIS_SCF
    atoms 1-6  entry C          line   121 file /home/akrom/software/anaconda3/envs/ffpenv/share/psi4/basis/cc-pvdz-jkfit.gbs 
    atoms 7-12 entry H          line    51 file /home/akrom/software/anaconda3/envs/ffpenv/share/psi4/basis/cc-pvdz-jkfit.gbs 

  ==> Pre-Iterations <==

   -------------------------------------------------------
    Irrep   Nso     Nmo     Nalpha   Nbeta   Ndocc  Nsocc
   -------------------------------------------------------
     Ag        27      27       0       0       0       0
     Bg         6       6       0       0       0       0
     Au         6       6       0       0       0       0
     Bu        27      27       0       0       0       0
   -------------------------------------------------------
    Total      66      66      21      21      21       0
   -------------------------------------------------------

  ==> Integral Setup <==

  DFHelper Memory: AOs need 0.024 GiB; user supplied 0.024 GiB. Using in-core AOs.

  ==> MemDFJK: Density-Fitted J/K Matrices <==

    J tasked:                   Yes
    K tasked:                   Yes
    wK tasked:                   No
    OpenMP threads:               1
    Memory [MiB]:                25
    Algorithm:                 Core
    Schwarz Cutoff:           1E-12
    Mask sparsity (%):       0.8264
    Fitting Condition:        1E-10

   => Auxiliary Basis Set <=

  Basis Set: (6-31G AUX)
    Blend: CC-PVDZ-JKFIT
    Number of shells: 198
    Number of basis function: 636
    Number of Cartesian functions: 636
    Spherical Harmonics?: false
    Max angular momentum: 3

  Cached 33.4% of DFT collocation blocks in 0.357 [GiB].

  Minimum eigenvalue in the overlap matrix is 7.4644964947E-04.
  Using Symmetric Orthogonalization.

  SCF Guess: Superposition of Atomic Densities via on-the-fly atomic UHF.

  ==> Iterations <==

                           Total Energy        Delta E     RMS |[F,P]|

   @DF-RKS iter SAD:  -231.53284169937825   -2.31533e+02   0.00000e+00 
   @DF-RKS iter   1:  -231.92476040930396   -3.91919e-01   1.33374e-02 DIIS
   @DF-RKS iter   2:  -232.00638741169993   -8.16270e-02   9.78647e-03 DIIS
   @DF-RKS iter   3:  -232.09057054860656   -8.41831e-02   2.59023e-04 DIIS
   @DF-RKS iter   4:  -232.09065352154903   -8.29729e-05   3.19303e-05 DIIS
   @DF-RKS iter   5:  -232.09065493424333   -1.41269e-06   2.67519e-06 DIIS
   @DF-RKS iter   6:  -232.09065494530617   -1.10628e-08   2.39903e-07 DIIS
  Energy and wave function converged.


  ==> Post-Iterations <==

    Orbital Energies [Eh]
    ---------------------

    Doubly Occupied:                                                      

       1Ag   -10.551546     1Bu   -10.551260     2Bu   -10.551256  
       2Ag   -10.550604     3Ag   -10.550599     3Bu   -10.550303  
       4Ag    -0.950736     4Bu    -0.835490     5Bu    -0.835484  
       5Ag    -0.679384     6Ag    -0.679372     7Ag    -0.594002  
       6Bu    -0.528394     7Bu    -0.507185     8Bu    -0.484970  
       9Bu    -0.484958     1Au    -0.428700     8Ag    -0.398452  
       9Ag    -0.398438     1Bg    -0.298939     2Bg    -0.298928  

    Virtual:                                                              

       2Au     0.039182     3Au     0.039191    10Ag     0.136044  
      10Bu     0.190922    11Bu     0.190930     3Bg     0.212245  
      11Ag     0.226531    12Ag     0.226540    12Bu     0.237118  
      13Ag     0.342245    14Ag     0.342251    13Bu     0.359612  
      14Bu     0.359641    15Bu     0.538135     4Au     0.576822  
      16Bu     0.591720    15Ag     0.605317    16Ag     0.627125  
       4Bg     0.663647     5Bg     0.663665    17Ag     0.674152  
      18Ag     0.674180    19Ag     0.678213    17Bu     0.717321  
      18Bu     0.717350     5Au     0.721733     6Au     0.721740  
       6Bg     0.795347    19Bu     0.911099    20Ag     0.927150  
      21Ag     0.927171    20Bu     0.964632    21Bu     0.964650  
      22Ag     1.026888    23Ag     1.033709    22Bu     1.053414  
      23Bu     1.053459    24Ag     1.162492    25Ag     1.162511  
      24Bu     1.229010    25Bu     1.229096    26Bu     1.258595  
      26Ag     1.497242    27Ag     1.497316    27Bu     1.926749  

    Final Occupation by Irrep:
             Ag    Bg    Au    Bu 
    DOCC [     9,    2,    1,    9 ]

  @DF-RKS Final Energy:  -232.09065494530617

   => Energetics <=

    Nuclear Repulsion Energy =            202.0133089353801665
    One-Electron Energy =                -710.9951719323644284
    Two-Electron Energy =                 293.6145194027083676
    DFT Exchange-Correlation Energy =     -16.7233113510302864
    Empirical Dispersion Energy =           0.0000000000000000
    VV10 Nonlocal Energy =                  0.0000000000000000
    Total Energy =                       -232.0906549453061700

Computation Completed


Properties will be evaluated at   0.000000,   0.000000,   0.000000 [a0]

Properties computed using the SCF density matrix

  Nuclear Dipole Moment: [e a0]
     X:    -0.0000      Y:    -0.0000      Z:     0.0000

  Electronic Dipole Moment: [e a0]
     X:     0.0000      Y:     0.0000      Z:     0.0000

  Dipole Moment: [e a0]
     X:    -0.0000      Y:    -0.0000      Z:     0.0000     Total:     0.0000

  Dipole Moment: [D]
     X:    -0.0000      Y:    -0.0000      Z:     0.0000     Total:     0.0000


*** tstop() called on atlantis at Wed Apr 20 03:18:50 2022
Module time:
	user time   =       8.22 seconds =       0.14 minutes
	system time =       0.12 seconds =       0.00 minutes
	total time  =          9 seconds =       0.15 minutes
Total time:
	user time   =       8.22 seconds =       0.14 minutes
	system time =       0.12 seconds =       0.00 minutes
	total time  =          9 seconds =       0.15 minutes
gradient() will perform analytic gradient computation.

*** tstart() called on atlantis
*** at Wed Apr 20 03:18:50 2022

   => Loading Basis Set <=

    Name: 6-31G
    Role: ORBITAL
    Keyword: BASIS
    atoms 1-6  entry C          line    87 file /home/akrom/software/anaconda3/envs/ffpenv/share/psi4/basis/6-31g.gbs 
    atoms 7-12 entry H          line    26 file /home/akrom/software/anaconda3/envs/ffpenv/share/psi4/basis/6-31g.gbs 


         ---------------------------------------------------------
                                   SCF
               by Justin Turney, Rob Parrish, Andy Simmonett
                          and Daniel G. A. Smith
                              RKS Reference
                        1 Threads,    500 MiB Core
         ---------------------------------------------------------

  ==> Geometry <==

    Molecular point group: c2h
    Full point group: C2h

    Geometry (in Angstrom), charge = 0, multiplicity = 1:

       Center              X                  Y                   Z               Mass       
    ------------   -----------------  -----------------  -----------------  -----------------
         C           -1.221510000000    -0.693250000000     0.000000000000    12.000000000000
         C           -1.211140000000     0.711220000000     0.000000000000    12.000000000000
         C           -0.010370000000    -1.404520000000     0.000000000000    12.000000000000
         C            0.010370000000     1.404520000000     0.000000000000    12.000000000000
         C            1.211140000000    -0.711220000000     0.000000000000    12.000000000000
         C            1.221510000000     0.693250000000     0.000000000000    12.000000000000
         H           -2.173110000000    -1.233320000000     0.000000000000     1.007825032230
         H           -2.154640000000     1.265330000000     0.000000000000     1.007825032230
         H           -0.018480000000    -2.498650000000     0.000000000000     1.007825032230
         H            0.018480000000     2.498650000000     0.000000000000     1.007825032230
         H            2.154640000000    -1.265330000000     0.000000000000     1.007825032230
         H            2.173110000000     1.233320000000     0.000000000000     1.007825032230

  Running in c2h symmetry.

  Rotational constants: A =      0.18753  B =      0.18752  C =      0.09376 [cm^-1]
  Rotational constants: A =   5621.92707  B =   5621.82252  C =   2810.93740 [MHz]
  Nuclear repulsion =  202.013308935380167

  Charge       = 0
  Multiplicity = 1
  Electrons    = 42
  Nalpha       = 21
  Nbeta        = 21

  ==> Algorithm <==

  SCF Algorithm Type is DF.
  DIIS enabled.
  MOM disabled.
  Fractional occupation disabled.
  Guess Type is SAD.
  Energy threshold   = 1.00e-08
  Density threshold  = 1.00e-08
  Integral threshold = 0.00e+00

  ==> Primary Basis <==

  Basis Set: 6-31G
    Blend: 6-31G
    Number of shells: 42
    Number of basis function: 66
    Number of Cartesian functions: 66
    Spherical Harmonics?: false
    Max angular momentum: 1

  ==> DFT Potential <==

   => Composite Functional: M06-2X <= 

    Hybrid M06-2X Meta-GGA XC Functional

    Y. Zhao and D. G. Truhlar,  Theor. Chem. Acc., 120, 215, 2008


    Deriv               =              1
    GGA                 =           TRUE
    Meta                =           TRUE

    Exchange Hybrid     =           TRUE
    MP2 Hybrid          =          FALSE

   => Exchange Functionals <=

    1.0000   XC_HYB_MGGA_X_M06_2X

   => Exact (HF) Exchange <=

    0.5400               HF 

   => Correlation Functionals <=

    1.0000   XC_MGGA_C_M06_2X

   => Molecular Quadrature <=

    Radial Scheme          =       TREUTLER
    Pruning Scheme         =           FLAT
    Nuclear Scheme         =       TREUTLER

    BS radius alpha        =              1
    Pruning alpha          =              1
    Radial Points          =             75
    Spherical Points       =            302
    Total Points           =         263464
    Total Blocks           =           2062
    Max Points             =            256
    Max Functions          =             66

   => Loading Basis Set <=

    Name: (6-31G AUX)
    Role: JKFIT
    Keyword: DF_BASIS_SCF
    atoms 1-6  entry C          line   121 file /home/akrom/software/anaconda3/envs/ffpenv/share/psi4/basis/cc-pvdz-jkfit.gbs 
    atoms 7-12 entry H          line    51 file /home/akrom/software/anaconda3/envs/ffpenv/share/psi4/basis/cc-pvdz-jkfit.gbs 

  ==> Pre-Iterations <==

   -------------------------------------------------------
    Irrep   Nso     Nmo     Nalpha   Nbeta   Ndocc  Nsocc
   -------------------------------------------------------
     Ag        27      27       0       0       0       0
     Bg         6       6       0       0       0       0
     Au         6       6       0       0       0       0
     Bu        27      27       0       0       0       0
   -------------------------------------------------------
    Total      66      66      21      21      21       0
   -------------------------------------------------------

  ==> Integral Setup <==

  DFHelper Memory: AOs need 0.024 GiB; user supplied 0.024 GiB. Using in-core AOs.

  ==> MemDFJK: Density-Fitted J/K Matrices <==

    J tasked:                   Yes
    K tasked:                   Yes
    wK tasked:                   No
    OpenMP threads:               1
    Memory [MiB]:                25
    Algorithm:                 Core
    Schwarz Cutoff:           1E-12
    Mask sparsity (%):       0.8264
    Fitting Condition:        1E-10

   => Auxiliary Basis Set <=

  Basis Set: (6-31G AUX)
    Blend: CC-PVDZ-JKFIT
    Number of shells: 198
    Number of basis function: 636
    Number of Cartesian functions: 636
    Spherical Harmonics?: false
    Max angular momentum: 3

  Cached 33.4% of DFT collocation blocks in 0.357 [GiB].

  Minimum eigenvalue in the overlap matrix is 7.4644964947E-04.
  Using Symmetric Orthogonalization.

  SCF Guess: Superposition of Atomic Densities via on-the-fly atomic UHF.

  ==> Iterations <==

                           Total Energy        Delta E     RMS |[F,P]|

   @DF-RKS iter SAD:  -231.53284169919019   -2.31533e+02   0.00000e+00 
   @DF-RKS iter   1:  -231.92476040911592   -3.91919e-01   1.33374e-02 DIIS
   @DF-RKS iter   2:  -232.00638741151218   -8.16270e-02   9.78647e-03 DIIS
   @DF-RKS iter   3:  -232.09057054841816   -8.41831e-02   2.59023e-04 DIIS
   @DF-RKS iter   4:  -232.09065352136082   -8.29729e-05   3.19303e-05 DIIS
   @DF-RKS iter   5:  -232.09065493405524   -1.41269e-06   2.67519e-06 DIIS
   @DF-RKS iter   6:  -232.09065494511810   -1.10629e-08   2.39903e-07 DIIS
   @DF-RKS iter   7:  -232.09065494514471   -2.66027e-11   1.95949e-07 DIIS
   @DF-RKS iter   8:  -232.09065494517452   -2.98144e-11   1.51781e-08 DIIS
   @DF-RKS iter   9:  -232.09065494517492   -3.97904e-13   6.69292e-10 DIIS
  Energy and wave function converged.


  ==> Post-Iterations <==

    Orbital Energies [Eh]
    ---------------------

    Doubly Occupied:                                                      

       1Ag   -10.551547     1Bu   -10.551260     2Bu   -10.551257  
       2Ag   -10.550603     3Ag   -10.550600     3Bu   -10.550304  
       4Ag    -0.950737     4Bu    -0.835490     5Bu    -0.835485  
       5Ag    -0.679384     6Ag    -0.679372     7Ag    -0.594002  
       6Bu    -0.528394     7Bu    -0.507185     8Bu    -0.484970  
       9Bu    -0.484958     1Au    -0.428700     8Ag    -0.398452  
       9Ag    -0.398438     1Bg    -0.298938     2Bg    -0.298928  

    Virtual:                                                              

       2Au     0.039181     3Au     0.039191    10Ag     0.136044  
      10Bu     0.190922    11Bu     0.190930     3Bg     0.212245  
      11Ag     0.226531    12Ag     0.226540    12Bu     0.237118  
      13Ag     0.342246    14Ag     0.342251    13Bu     0.359611  
      14Bu     0.359641    15Bu     0.538135     4Au     0.576822  
      16Bu     0.591720    15Ag     0.605317    16Ag     0.627125  
       4Bg     0.663647     5Bg     0.663665    17Ag     0.674152  
      18Ag     0.674180    19Ag     0.678213    17Bu     0.717321  
      18Bu     0.717350     5Au     0.721733     6Au     0.721740  
       6Bg     0.795347    19Bu     0.911099    20Ag     0.927150  
      21Ag     0.927172    20Bu     0.964632    21Bu     0.964650  
      22Ag     1.026888    23Ag     1.033709    22Bu     1.053414  
      23Bu     1.053459    24Ag     1.162492    25Ag     1.162512  
      24Bu     1.229010    25Bu     1.229096    26Bu     1.258595  
      26Ag     1.497242    27Ag     1.497316    27Bu     1.926749  

    Final Occupation by Irrep:
             Ag    Bg    Au    Bu 
    DOCC [     9,    2,    1,    9 ]

  @DF-RKS Final Energy:  -232.09065494517492

   => Energetics <=

    Nuclear Repulsion Energy =            202.0133089353801665
    One-Electron Energy =                -710.9951375572004508
    Two-Electron Energy =                 293.6144839048747599
    DFT Exchange-Correlation Energy =     -16.7233102282294226
    Empirical Dispersion Energy =           0.0000000000000000
    VV10 Nonlocal Energy =                  0.0000000000000000
    Total Energy =                       -232.0906549451749470

Computation Completed


Properties will be evaluated at   0.000000,   0.000000,   0.000000 [a0]

Properties computed using the SCF density matrix

  Nuclear Dipole Moment: [e a0]
     X:    -0.0000      Y:    -0.0000      Z:     0.0000

  Electronic Dipole Moment: [e a0]
     X:     0.0000      Y:     0.0000      Z:     0.0000

  Dipole Moment: [e a0]
     X:    -0.0000      Y:    -0.0000      Z:     0.0000     Total:     0.0000

  Dipole Moment: [D]
     X:    -0.0000      Y:    -0.0000      Z:     0.0000     Total:     0.0000


*** tstop() called on atlantis at Wed Apr 20 03:19:01 2022
Module time:
	user time   =      11.16 seconds =       0.19 minutes
	system time =       0.07 seconds =       0.00 minutes
	total time  =         11 seconds =       0.18 minutes
Total time:
	user time   =      19.39 seconds =       0.32 minutes
	system time =       0.19 seconds =       0.00 minutes
	total time  =         20 seconds =       0.33 minutes

*** tstart() called on atlantis
*** at Wed Apr 20 03:19:01 2022


         ------------------------------------------------------------
                                   SCF GRAD                          
                          Rob Parrish, Justin Turney,                
                       Andy Simmonett, and Alex Sokolov              
         ------------------------------------------------------------

  ==> Geometry <==

    Molecular point group: c2h
    Full point group: C2h

    Geometry (in Angstrom), charge = 0, multiplicity = 1:

       Center              X                  Y                   Z               Mass       
    ------------   -----------------  -----------------  -----------------  -----------------
         C           -1.221510000000    -0.693250000000     0.000000000000    12.000000000000
         C           -1.211140000000     0.711220000000     0.000000000000    12.000000000000
         C           -0.010370000000    -1.404520000000     0.000000000000    12.000000000000
         C            0.010370000000     1.404520000000     0.000000000000    12.000000000000
         C            1.211140000000    -0.711220000000     0.000000000000    12.000000000000
         C            1.221510000000     0.693250000000     0.000000000000    12.000000000000
         H           -2.173110000000    -1.233320000000     0.000000000000     1.007825032230
         H           -2.154640000000     1.265330000000     0.000000000000     1.007825032230
         H           -0.018480000000    -2.498650000000     0.000000000000     1.007825032230
         H            0.018480000000     2.498650000000     0.000000000000     1.007825032230
         H            2.154640000000    -1.265330000000     0.000000000000     1.007825032230
         H            2.173110000000     1.233320000000     0.000000000000     1.007825032230

  Nuclear repulsion =  202.013308935380167

  ==> Basis Set <==

  Basis Set: 6-31G
    Blend: 6-31G
    Number of shells: 42
    Number of basis function: 66
    Number of Cartesian functions: 66
    Spherical Harmonics?: false
    Max angular momentum: 1

  ==> DFJKGrad: Density-Fitted SCF Gradients <==

    Gradient:                    1
    J tasked:                  Yes
    K tasked:                  Yes
    wK tasked:                  No
    OpenMP threads:              1
    Integrals threads:           1
    Memory [MiB]:              375
    Schwarz Cutoff:          0E+00
    Fitting Condition:       1E-10

   => Auxiliary Basis Set <=

  Basis Set: (6-31G AUX)
    Blend: CC-PVDZ-JKFIT
    Number of shells: 198
    Number of basis function: 636
    Number of Cartesian functions: 636
    Spherical Harmonics?: false
    Max angular momentum: 3

  ==> DFT Potential <==

   => Composite Functional: M06-2X <= 

    Hybrid M06-2X Meta-GGA XC Functional

    Y. Zhao and D. G. Truhlar,  Theor. Chem. Acc., 120, 215, 2008


    Deriv               =              1
    GGA                 =           TRUE
    Meta                =           TRUE

    Exchange Hybrid     =           TRUE
    MP2 Hybrid          =          FALSE

   => Exchange Functionals <=

    1.0000   XC_HYB_MGGA_X_M06_2X

   => Exact (HF) Exchange <=

    0.5400               HF 

   => Correlation Functionals <=

    1.0000   XC_MGGA_C_M06_2X

   => Molecular Quadrature <=

    Radial Scheme          =       TREUTLER
    Pruning Scheme         =           FLAT
    Nuclear Scheme         =       TREUTLER

    BS radius alpha        =              1
    Pruning alpha          =              1
    Radial Points          =             75
    Spherical Points       =            302
    Total Points           =         263464
    Total Blocks           =           2062
    Max Points             =            256
    Max Functions          =             66


  -Total Gradient:
     Atom            X                  Y                   Z
    ------   -----------------  -----------------  -----------------
       1       -0.001310868629    -0.000700742567     0.000000000000
       2       -0.001335350471     0.000748276719     0.000000000000
       3        0.000006302867    -0.001542990565     0.000000000000
       4       -0.000006302867     0.001542990565     0.000000000000
       5        0.001335350471    -0.000748276719     0.000000000000
       6        0.001310868629     0.000700742567     0.000000000000
       7       -0.006018254438    -0.003422749693     0.000000000000
       8       -0.005977020659     0.003518451675     0.000000000000
       9       -0.000045994640    -0.006914426729     0.000000000000
      10        0.000045994640     0.006914426729     0.000000000000
      11        0.005977020659    -0.003518451675     0.000000000000
      12        0.006018254438     0.003422749693     0.000000000000


*** tstop() called on atlantis at Wed Apr 20 03:19:03 2022
Module time:
	user time   =       2.16 seconds =       0.04 minutes
	system time =       0.00 seconds =       0.00 minutes
	total time  =          2 seconds =       0.03 minutes
Total time:
	user time   =      21.55 seconds =       0.36 minutes
	system time =       0.19 seconds =       0.00 minutes
	total time  =         22 seconds =       0.37 minutes

  Based on options and gradient (rms=2.89E-03), recommend projecting translations and projecting rotations.
hessian() will perform frequency computation by finite difference of analytic gradients.

         ----------------------------------------------------------
                                   FINDIF
                     R. A. King and Jonathon Misiewicz
         ---------------------------------------------------------

  Using finite-differences of gradients to determine vibrational frequencies and 
  normal modes.  Resulting frequencies are only valid at stationary points.
    Generating geometries for use with 3-point formula.
    Displacement size will be 5.00e-03.
    Number of atoms is 12.
    Number of irreps is 4.
    Number of SALCs is 30.
    Translations projected? 1. Rotations projected? 1.
    Index of SALCs per irrep:
     1 :  0  1  2  3  4  5  6  7  8  9  10 
     2 :  11  12  13  14 
     3 :  15  16  17  18  19 
     4 :  20  21  22  23  24  25  26  27  28  29 
    Number of SALCs per irrep:
     Irrep 1: 11
     Irrep 2: 4
     Irrep 3: 5
     Irrep 4: 10
    Number of geometries (including reference) is 42.
    Number of displacements per irrep:
      Irrep 1: 22
      Irrep 2: 4
      Irrep 3: 5
      Irrep 4: 10

  //>>>>>>>>>>>>>>>>>>>>>>>>>>>>>>>>>>>//
  //    Loading displacement 1 of 42   //
  //<<<<<<<<<<<<<<<<<<<<<<<<<<<<<<<<<<<//
gradient() will perform analytic gradient computation.

*** tstart() called on atlantis
*** at Wed Apr 20 03:19:03 2022

   => Loading Basis Set <=

    Name: 6-31G
    Role: ORBITAL
    Keyword: BASIS
    atoms 1-6  entry C          line    87 file /home/akrom/software/anaconda3/envs/ffpenv/share/psi4/basis/6-31g.gbs 
    atoms 7-12 entry H          line    26 file /home/akrom/software/anaconda3/envs/ffpenv/share/psi4/basis/6-31g.gbs 


         ---------------------------------------------------------
                                   SCF
               by Justin Turney, Rob Parrish, Andy Simmonett
                          and Daniel G. A. Smith
                              RKS Reference
                        1 Threads,    500 MiB Core
         ---------------------------------------------------------

  ==> Geometry <==

    Molecular point group: c2h
    Full point group: C2h

    Geometry (in Angstrom), charge = 0, multiplicity = 1:

       Center              X                  Y                   Z               Mass       
    ------------   -----------------  -----------------  -----------------  -----------------
         C           -1.221510000000    -0.693250000000     0.000000000000    12.000000000000
         C           -1.211140000000     0.711220000000     0.000000000000    12.000000000000
         C           -0.010370000000    -1.404520000000     0.000000000000    12.000000000000
         C            0.010370000000     1.404520000000     0.000000000000    12.000000000000
         C            1.211140000000    -0.711220000000     0.000000000000    12.000000000000
         C            1.221510000000     0.693250000000     0.000000000000    12.000000000000
         H           -2.173110000000    -1.233320000000     0.000000000000     1.007825032230
         H           -2.154640000000     1.265330000000     0.000000000000     1.007825032230
         H           -0.018480000000    -2.498650000000     0.000000000000     1.007825032230
         H            0.018480000000     2.498650000000     0.000000000000     1.007825032230
         H            2.154640000000    -1.265330000000     0.000000000000     1.007825032230
         H            2.173110000000     1.233320000000     0.000000000000     1.007825032230

  Running in c2h symmetry.

  Rotational constants: A =      0.18753  B =      0.18752  C =      0.09376 [cm^-1]
  Rotational constants: A =   5621.92707  B =   5621.82252  C =   2810.93740 [MHz]
  Nuclear repulsion =  202.013308935380167

  Charge       = 0
  Multiplicity = 1
  Electrons    = 42
  Nalpha       = 21
  Nbeta        = 21

  ==> Algorithm <==

  SCF Algorithm Type is DF.
  DIIS enabled.
  MOM disabled.
  Fractional occupation disabled.
  Guess Type is SAD.
  Energy threshold   = 1.00e-08
  Density threshold  = 1.00e-08
  Integral threshold = 0.00e+00

  ==> Primary Basis <==

  Basis Set: 6-31G
    Blend: 6-31G
    Number of shells: 42
    Number of basis function: 66
    Number of Cartesian functions: 66
    Spherical Harmonics?: false
    Max angular momentum: 1

  ==> DFT Potential <==

   => Composite Functional: M06-2X <= 

    Hybrid M06-2X Meta-GGA XC Functional

    Y. Zhao and D. G. Truhlar,  Theor. Chem. Acc., 120, 215, 2008


    Deriv               =              1
    GGA                 =           TRUE
    Meta                =           TRUE

    Exchange Hybrid     =           TRUE
    MP2 Hybrid          =          FALSE

   => Exchange Functionals <=

    1.0000   XC_HYB_MGGA_X_M06_2X

   => Exact (HF) Exchange <=

    0.5400               HF 

   => Correlation Functionals <=

    1.0000   XC_MGGA_C_M06_2X

   => Molecular Quadrature <=

    Radial Scheme          =       TREUTLER
    Pruning Scheme         =           FLAT
    Nuclear Scheme         =       TREUTLER

    BS radius alpha        =              1
    Pruning alpha          =              1
    Radial Points          =             75
    Spherical Points       =            302
    Total Points           =         263464
    Total Blocks           =           2062
    Max Points             =            256
    Max Functions          =             66

   => Loading Basis Set <=

    Name: (6-31G AUX)
    Role: JKFIT
    Keyword: DF_BASIS_SCF
    atoms 1-6  entry C          line   121 file /home/akrom/software/anaconda3/envs/ffpenv/share/psi4/basis/cc-pvdz-jkfit.gbs 
    atoms 7-12 entry H          line    51 file /home/akrom/software/anaconda3/envs/ffpenv/share/psi4/basis/cc-pvdz-jkfit.gbs 

  ==> Pre-Iterations <==

   -------------------------------------------------------
    Irrep   Nso     Nmo     Nalpha   Nbeta   Ndocc  Nsocc
   -------------------------------------------------------
     Ag        27      27       0       0       0       0
     Bg         6       6       0       0       0       0
     Au         6       6       0       0       0       0
     Bu        27      27       0       0       0       0
   -------------------------------------------------------
    Total      66      66      21      21      21       0
   -------------------------------------------------------

  ==> Integral Setup <==

  DFHelper Memory: AOs need 0.024 GiB; user supplied 0.024 GiB. Using in-core AOs.

  ==> MemDFJK: Density-Fitted J/K Matrices <==

    J tasked:                   Yes
    K tasked:                   Yes
    wK tasked:                   No
    OpenMP threads:               1
    Memory [MiB]:                25
    Algorithm:                 Core
    Schwarz Cutoff:           1E-12
    Mask sparsity (%):       0.8264
    Fitting Condition:        1E-10

   => Auxiliary Basis Set <=

  Basis Set: (6-31G AUX)
    Blend: CC-PVDZ-JKFIT
    Number of shells: 198
    Number of basis function: 636
    Number of Cartesian functions: 636
    Spherical Harmonics?: false
    Max angular momentum: 3

  Cached 33.4% of DFT collocation blocks in 0.357 [GiB].

  Minimum eigenvalue in the overlap matrix is 7.4644964947E-04.
  Using Symmetric Orthogonalization.

  SCF Guess: Superposition of Atomic Densities via on-the-fly atomic UHF.

  ==> Iterations <==

                           Total Energy        Delta E     RMS |[F,P]|

   @DF-RKS iter SAD:  -231.53284169949825   -2.31533e+02   0.00000e+00 
   @DF-RKS iter   1:  -231.92476040943470   -3.91919e-01   1.33374e-02 DIIS
   @DF-RKS iter   2:  -232.00638741183118   -8.16270e-02   9.78647e-03 DIIS
   @DF-RKS iter   3:  -232.09057054873804   -8.41831e-02   2.59023e-04 DIIS
   @DF-RKS iter   4:  -232.09065352168074   -8.29729e-05   3.19303e-05 DIIS
   @DF-RKS iter   5:  -232.09065493437524   -1.41269e-06   2.67519e-06 DIIS
   @DF-RKS iter   6:  -232.09065494543819   -1.10630e-08   2.39903e-07 DIIS
   @DF-RKS iter   7:  -232.09065494546482   -2.66311e-11   1.95949e-07 DIIS
   @DF-RKS iter   8:  -232.09065494549441   -2.95870e-11   1.51781e-08 DIIS
   @DF-RKS iter   9:  -232.09065494549506   -6.53699e-13   6.69291e-10 DIIS
  Energy and wave function converged.


  ==> Post-Iterations <==

    Orbital Energies [Eh]
    ---------------------

    Doubly Occupied:                                                      

       1Ag   -10.551547     1Bu   -10.551260     2Bu   -10.551257  
       2Ag   -10.550603     3Ag   -10.550600     3Bu   -10.550304  
       4Ag    -0.950737     4Bu    -0.835490     5Bu    -0.835485  
       5Ag    -0.679384     6Ag    -0.679372     7Ag    -0.594002  
       6Bu    -0.528394     7Bu    -0.507185     8Bu    -0.484970  
       9Bu    -0.484958     1Au    -0.428700     8Ag    -0.398452  
       9Ag    -0.398438     1Bg    -0.298938     2Bg    -0.298928  

    Virtual:                                                              

       2Au     0.039181     3Au     0.039191    10Ag     0.136044  
      10Bu     0.190922    11Bu     0.190930     3Bg     0.212245  
      11Ag     0.226531    12Ag     0.226540    12Bu     0.237118  
      13Ag     0.342246    14Ag     0.342251    13Bu     0.359611  
      14Bu     0.359641    15Bu     0.538135     4Au     0.576822  
      16Bu     0.591720    15Ag     0.605317    16Ag     0.627125  
       4Bg     0.663647     5Bg     0.663665    17Ag     0.674152  
      18Ag     0.674180    19Ag     0.678213    17Bu     0.717321  
      18Bu     0.717350     5Au     0.721733     6Au     0.721740  
       6Bg     0.795347    19Bu     0.911099    20Ag     0.927150  
      21Ag     0.927172    20Bu     0.964632    21Bu     0.964650  
      22Ag     1.026888    23Ag     1.033709    22Bu     1.053414  
      23Bu     1.053459    24Ag     1.162492    25Ag     1.162512  
      24Bu     1.229010    25Bu     1.229096    26Bu     1.258595  
      26Ag     1.497242    27Ag     1.497316    27Bu     1.926749  

    Final Occupation by Irrep:
             Ag    Bg    Au    Bu 
    DOCC [     9,    2,    1,    9 ]

  @DF-RKS Final Energy:  -232.09065494549506

   => Energetics <=

    Nuclear Repulsion Energy =            202.0133089353801665
    One-Electron Energy =                -710.9951375572559300
    Two-Electron Energy =                 293.6144839046135075
    DFT Exchange-Correlation Energy =     -16.7233102282327906
    Empirical Dispersion Energy =           0.0000000000000000
    VV10 Nonlocal Energy =                  0.0000000000000000
    Total Energy =                       -232.0906549454950323

Computation Completed


Properties will be evaluated at   0.000000,   0.000000,   0.000000 [a0]

Properties computed using the SCF density matrix

  Nuclear Dipole Moment: [e a0]
     X:    -0.0000      Y:    -0.0000      Z:     0.0000

  Electronic Dipole Moment: [e a0]
     X:     0.0000      Y:     0.0000      Z:     0.0000

  Dipole Moment: [e a0]
     X:    -0.0000      Y:    -0.0000      Z:     0.0000     Total:     0.0000

  Dipole Moment: [D]
     X:    -0.0000      Y:    -0.0000      Z:     0.0000     Total:     0.0000


*** tstop() called on atlantis at Wed Apr 20 03:19:14 2022
Module time:
	user time   =      11.20 seconds =       0.19 minutes
	system time =       0.03 seconds =       0.00 minutes
	total time  =         11 seconds =       0.18 minutes
Total time:
	user time   =      33.02 seconds =       0.55 minutes
	system time =       0.24 seconds =       0.00 minutes
	total time  =         33 seconds =       0.55 minutes

*** tstart() called on atlantis
*** at Wed Apr 20 03:19:14 2022


         ------------------------------------------------------------
                                   SCF GRAD                          
                          Rob Parrish, Justin Turney,                
                       Andy Simmonett, and Alex Sokolov              
         ------------------------------------------------------------

  ==> Geometry <==

    Molecular point group: c2h
    Full point group: C2h

    Geometry (in Angstrom), charge = 0, multiplicity = 1:

       Center              X                  Y                   Z               Mass       
    ------------   -----------------  -----------------  -----------------  -----------------
         C           -1.221510000000    -0.693250000000     0.000000000000    12.000000000000
         C           -1.211140000000     0.711220000000     0.000000000000    12.000000000000
         C           -0.010370000000    -1.404520000000     0.000000000000    12.000000000000
         C            0.010370000000     1.404520000000     0.000000000000    12.000000000000
         C            1.211140000000    -0.711220000000     0.000000000000    12.000000000000
         C            1.221510000000     0.693250000000     0.000000000000    12.000000000000
         H           -2.173110000000    -1.233320000000     0.000000000000     1.007825032230
         H           -2.154640000000     1.265330000000     0.000000000000     1.007825032230
         H           -0.018480000000    -2.498650000000     0.000000000000     1.007825032230
         H            0.018480000000     2.498650000000     0.000000000000     1.007825032230
         H            2.154640000000    -1.265330000000     0.000000000000     1.007825032230
         H            2.173110000000     1.233320000000     0.000000000000     1.007825032230

  Nuclear repulsion =  202.013308935380167

  ==> Basis Set <==

  Basis Set: 6-31G
    Blend: 6-31G
    Number of shells: 42
    Number of basis function: 66
    Number of Cartesian functions: 66
    Spherical Harmonics?: false
    Max angular momentum: 1

  ==> DFJKGrad: Density-Fitted SCF Gradients <==

    Gradient:                    1
    J tasked:                  Yes
    K tasked:                  Yes
    wK tasked:                  No
    OpenMP threads:              1
    Integrals threads:           1
    Memory [MiB]:              375
    Schwarz Cutoff:          0E+00
    Fitting Condition:       1E-10

   => Auxiliary Basis Set <=

  Basis Set: (6-31G AUX)
    Blend: CC-PVDZ-JKFIT
    Number of shells: 198
    Number of basis function: 636
    Number of Cartesian functions: 636
    Spherical Harmonics?: false
    Max angular momentum: 3

  ==> DFT Potential <==

   => Composite Functional: M06-2X <= 

    Hybrid M06-2X Meta-GGA XC Functional

    Y. Zhao and D. G. Truhlar,  Theor. Chem. Acc., 120, 215, 2008


    Deriv               =              1
    GGA                 =           TRUE
    Meta                =           TRUE

    Exchange Hybrid     =           TRUE
    MP2 Hybrid          =          FALSE

   => Exchange Functionals <=

    1.0000   XC_HYB_MGGA_X_M06_2X

   => Exact (HF) Exchange <=

    0.5400               HF 

   => Correlation Functionals <=

    1.0000   XC_MGGA_C_M06_2X

   => Molecular Quadrature <=

    Radial Scheme          =       TREUTLER
    Pruning Scheme         =           FLAT
    Nuclear Scheme         =       TREUTLER

    BS radius alpha        =              1
    Pruning alpha          =              1
    Radial Points          =             75
    Spherical Points       =            302
    Total Points           =         263464
    Total Blocks           =           2062
    Max Points             =            256
    Max Functions          =             66


  -Total Gradient:
     Atom            X                  Y                   Z
    ------   -----------------  -----------------  -----------------
       1       -0.001310867139    -0.000700747653     0.000000000000
       2       -0.001335345708     0.000748291314     0.000000000000
       3        0.000006312568    -0.001542994519     0.000000000000
       4       -0.000006312568     0.001542994519     0.000000000000
       5        0.001335345708    -0.000748291314     0.000000000000
       6        0.001310867139     0.000700747653     0.000000000000
       7       -0.006018255426    -0.003422749717     0.000000000000
       8       -0.005977015845     0.003518446606     0.000000000000
       9       -0.000045995967    -0.006914416573     0.000000000000
      10        0.000045995967     0.006914416573     0.000000000000
      11        0.005977015845    -0.003518446606     0.000000000000
      12        0.006018255426     0.003422749717     0.000000000000


*** tstop() called on atlantis at Wed Apr 20 03:19:17 2022
Module time:
	user time   =       2.15 seconds =       0.04 minutes
	system time =       0.00 seconds =       0.00 minutes
	total time  =          3 seconds =       0.05 minutes
Total time:
	user time   =      35.17 seconds =       0.59 minutes
	system time =       0.24 seconds =       0.00 minutes
	total time  =         36 seconds =       0.60 minutes

  //>>>>>>>>>>>>>>>>>>>>>>>>>>>>>>>>>>>//
  //    Loading displacement 2 of 42   //
  //<<<<<<<<<<<<<<<<<<<<<<<<<<<<<<<<<<<//
gradient() will perform analytic gradient computation.

*** tstart() called on atlantis
*** at Wed Apr 20 03:19:17 2022

   => Loading Basis Set <=

    Name: 6-31G
    Role: ORBITAL
    Keyword: BASIS
    atoms 1-6  entry C          line    87 file /home/akrom/software/anaconda3/envs/ffpenv/share/psi4/basis/6-31g.gbs 
    atoms 7-12 entry H          line    26 file /home/akrom/software/anaconda3/envs/ffpenv/share/psi4/basis/6-31g.gbs 


         ---------------------------------------------------------
                                   SCF
               by Justin Turney, Rob Parrish, Andy Simmonett
                          and Daniel G. A. Smith
                              RKS Reference
                        1 Threads,    500 MiB Core
         ---------------------------------------------------------

  ==> Geometry <==

    Molecular point group: c2h
    Full point group: C2h

    Geometry (in Angstrom), charge = 0, multiplicity = 1:

       Center              X                  Y                   Z               Mass       
    ------------   -----------------  -----------------  -----------------  -----------------
         C           -1.222032477591    -0.693313109608     0.000000000000    12.000000000000
         C           -1.211176745353     0.711157426160     0.000000000000    12.000000000000
         C           -0.010297435136    -1.404520535769     0.000000000000    12.000000000000
         C            0.010297435136     1.404520535769     0.000000000000    12.000000000000
         C            1.211176745353    -0.711157426160     0.000000000000    12.000000000000
         C            1.222032477591     0.693313109608     0.000000000000    12.000000000000
         H           -2.173046280225    -1.233432274252     0.000000000000     1.007825032230
         H           -2.154705373579     1.265218680005     0.000000000000     1.007825032230
         H           -0.018350906646    -2.498650954774     0.000000000000     1.007825032230
         H            0.018350906646     2.498650954774     0.000000000000     1.007825032230
         H            2.154705373579    -1.265218680005     0.000000000000     1.007825032230
         H            2.173046280225     1.233432274252     0.000000000000     1.007825032230

  Running in c2h symmetry.

  Rotational constants: A =      0.18753  B =      0.18745  C =      0.09375 [cm^-1]
  Rotational constants: A =   5621.97670  B =   5619.72613  C =   2810.42560 [MHz]
  Nuclear repulsion =  201.998047561272216

  Charge       = 0
  Multiplicity = 1
  Electrons    = 42
  Nalpha       = 21
  Nbeta        = 21

  ==> Algorithm <==

  SCF Algorithm Type is DF.
  DIIS enabled.
  MOM disabled.
  Fractional occupation disabled.
  Guess Type is SAD.
  Energy threshold   = 1.00e-08
  Density threshold  = 1.00e-08
  Integral threshold = 0.00e+00

  ==> Primary Basis <==

  Basis Set: 6-31G
    Blend: 6-31G
    Number of shells: 42
    Number of basis function: 66
    Number of Cartesian functions: 66
    Spherical Harmonics?: false
    Max angular momentum: 1

  ==> DFT Potential <==

   => Composite Functional: M06-2X <= 

    Hybrid M06-2X Meta-GGA XC Functional

    Y. Zhao and D. G. Truhlar,  Theor. Chem. Acc., 120, 215, 2008


    Deriv               =              1
    GGA                 =           TRUE
    Meta                =           TRUE

    Exchange Hybrid     =           TRUE
    MP2 Hybrid          =          FALSE

   => Exchange Functionals <=

    1.0000   XC_HYB_MGGA_X_M06_2X

   => Exact (HF) Exchange <=

    0.5400               HF 

   => Correlation Functionals <=

    1.0000   XC_MGGA_C_M06_2X

   => Molecular Quadrature <=

    Radial Scheme          =       TREUTLER
    Pruning Scheme         =           FLAT
    Nuclear Scheme         =       TREUTLER

    BS radius alpha        =              1
    Pruning alpha          =              1
    Radial Points          =             75
    Spherical Points       =            302
    Total Points           =         263478
    Total Blocks           =           2052
    Max Points             =            256
    Max Functions          =             66

   => Loading Basis Set <=

    Name: (6-31G AUX)
    Role: JKFIT
    Keyword: DF_BASIS_SCF
    atoms 1-6  entry C          line   121 file /home/akrom/software/anaconda3/envs/ffpenv/share/psi4/basis/cc-pvdz-jkfit.gbs 
    atoms 7-12 entry H          line    51 file /home/akrom/software/anaconda3/envs/ffpenv/share/psi4/basis/cc-pvdz-jkfit.gbs 

  ==> Pre-Iterations <==

   -------------------------------------------------------
    Irrep   Nso     Nmo     Nalpha   Nbeta   Ndocc  Nsocc
   -------------------------------------------------------
     Ag        27      27       0       0       0       0
     Bg         6       6       0       0       0       0
     Au         6       6       0       0       0       0
     Bu        27      27       0       0       0       0
   -------------------------------------------------------
    Total      66      66      21      21      21       0
   -------------------------------------------------------

  ==> Integral Setup <==

  DFHelper Memory: AOs need 0.024 GiB; user supplied 0.024 GiB. Using in-core AOs.

  ==> MemDFJK: Density-Fitted J/K Matrices <==

    J tasked:                   Yes
    K tasked:                   Yes
    wK tasked:                   No
    OpenMP threads:               1
    Memory [MiB]:                25
    Algorithm:                 Core
    Schwarz Cutoff:           1E-12
    Mask sparsity (%):       0.8264
    Fitting Condition:        1E-10

   => Auxiliary Basis Set <=

  Basis Set: (6-31G AUX)
    Blend: CC-PVDZ-JKFIT
    Number of shells: 198
    Number of basis function: 636
    Number of Cartesian functions: 636
    Spherical Harmonics?: false
    Max angular momentum: 3

  Cached 33.3% of DFT collocation blocks in 0.363 [GiB].

  Minimum eigenvalue in the overlap matrix is 7.4719581144E-04.
  Using Symmetric Orthogonalization.

  SCF Guess: Superposition of Atomic Densities via on-the-fly atomic UHF.

  ==> Iterations <==

                           Total Energy        Delta E     RMS |[F,P]|

   @DF-RKS iter SAD:  -231.53194463137987   -2.31532e+02   0.00000e+00 
   @DF-RKS iter   1:  -231.92497046706413   -3.93026e-01   1.33339e-02 DIIS
   @DF-RKS iter   2:  -232.00660106357012   -8.16306e-02   9.78080e-03 DIIS
   @DF-RKS iter   3:  -232.09068092933748   -8.40799e-02   2.58725e-04 DIIS
   @DF-RKS iter   4:  -232.09076359633823   -8.26670e-05   3.19338e-05 DIIS
   @DF-RKS iter   5:  -232.09076500057483   -1.40424e-06   3.63991e-06 DIIS
   @DF-RKS iter   6:  -232.09076500984631   -9.27147e-09   2.90668e-06 DIIS
   @DF-RKS iter   7:  -232.09076501642647   -6.58017e-09   1.42997e-07 DIIS
   @DF-RKS iter   8:  -232.09076501644572   -1.92415e-11   8.03420e-09 DIIS
  Energy and wave function converged.


  ==> Post-Iterations <==

    Orbital Energies [Eh]
    ---------------------

    Doubly Occupied:                                                      

       1Ag   -10.551580     1Bu   -10.551302     2Bu   -10.551282  
       2Ag   -10.550647     3Ag   -10.550625     3Bu   -10.550338  
       4Ag    -0.950662     4Bu    -0.835513     5Bu    -0.835399  
       5Ag    -0.679472     6Ag    -0.679309     7Ag    -0.594024  
       6Bu    -0.528490     7Bu    -0.507146     8Bu    -0.485052  
       9Bu    -0.484905     1Au    -0.428636     8Ag    -0.398617  
       9Ag    -0.398316     1Bg    -0.298963     2Bg    -0.298846  

    Virtual:                                                              

       2Au     0.039085     3Au     0.039241    10Ag     0.136113  
      10Bu     0.190927    11Bu     0.191030     3Bg     0.212176  
      11Ag     0.226508    12Ag     0.226570    12Bu     0.237144  
      13Ag     0.342135    14Ag     0.342314    13Bu     0.359413  
      14Bu     0.359635    15Bu     0.538198     4Au     0.576880  
      16Bu     0.591588    15Ag     0.605163    16Ag     0.627120  
       4Bg     0.663625     5Bg     0.663677    17Ag     0.673969  
      18Ag     0.674237    19Ag     0.678173    17Bu     0.717208  
      18Bu     0.717382     5Au     0.721695     6Au     0.721747  
       6Bg     0.795320    19Bu     0.911124    20Ag     0.927199  
      21Ag     0.927522    20Bu     0.964619    21Bu     0.964988  
      22Ag     1.026748    23Ag     1.033980    22Bu     1.053183  
      23Bu     1.053544    24Ag     1.162338    25Ag     1.162443  
      24Bu     1.228764    25Bu     1.228912    26Bu     1.258516  
      26Ag     1.497283    27Ag     1.497410    27Bu     1.926765  

    Final Occupation by Irrep:
             Ag    Bg    Au    Bu 
    DOCC [     9,    2,    1,    9 ]

  @DF-RKS Final Energy:  -232.09076501644572

   => Energetics <=

    Nuclear Repulsion Energy =            201.9980475612722159
    One-Electron Energy =                -710.9646749771218310
    Two-Electron Energy =                 293.5991575032834362
    DFT Exchange-Correlation Energy =     -16.7232951038795115
    Empirical Dispersion Energy =           0.0000000000000000
    VV10 Nonlocal Energy =                  0.0000000000000000
    Total Energy =                       -232.0907650164457152

Computation Completed


Properties will be evaluated at   0.000000,   0.000000,   0.000000 [a0]

Properties computed using the SCF density matrix

  Nuclear Dipole Moment: [e a0]
     X:     0.0000      Y:     0.0000      Z:     0.0000

  Electronic Dipole Moment: [e a0]
     X:     0.0000      Y:     0.0000      Z:     0.0000

  Dipole Moment: [e a0]
     X:     0.0000      Y:     0.0000      Z:     0.0000     Total:     0.0000

  Dipole Moment: [D]
     X:     0.0000      Y:     0.0000      Z:     0.0000     Total:     0.0000


*** tstop() called on atlantis at Wed Apr 20 03:19:27 2022
Module time:
	user time   =      10.13 seconds =       0.17 minutes
	system time =       0.04 seconds =       0.00 minutes
	total time  =         10 seconds =       0.17 minutes
Total time:
	user time   =      45.30 seconds =       0.76 minutes
	system time =       0.28 seconds =       0.00 minutes
	total time  =         46 seconds =       0.77 minutes

*** tstart() called on atlantis
*** at Wed Apr 20 03:19:27 2022


         ------------------------------------------------------------
                                   SCF GRAD                          
                          Rob Parrish, Justin Turney,                
                       Andy Simmonett, and Alex Sokolov              
         ------------------------------------------------------------

  ==> Geometry <==

    Molecular point group: c2h
    Full point group: C2h

    Geometry (in Angstrom), charge = 0, multiplicity = 1:

       Center              X                  Y                   Z               Mass       
    ------------   -----------------  -----------------  -----------------  -----------------
         C           -1.222032477591    -0.693313109608     0.000000000000    12.000000000000
         C           -1.211176745353     0.711157426160     0.000000000000    12.000000000000
         C           -0.010297435136    -1.404520535769     0.000000000000    12.000000000000
         C            0.010297435136     1.404520535769     0.000000000000    12.000000000000
         C            1.211176745353    -0.711157426160     0.000000000000    12.000000000000
         C            1.222032477591     0.693313109608     0.000000000000    12.000000000000
         H           -2.173046280225    -1.233432274252     0.000000000000     1.007825032230
         H           -2.154705373579     1.265218680005     0.000000000000     1.007825032230
         H           -0.018350906646    -2.498650954774     0.000000000000     1.007825032230
         H            0.018350906646     2.498650954774     0.000000000000     1.007825032230
         H            2.154705373579    -1.265218680005     0.000000000000     1.007825032230
         H            2.173046280225     1.233432274252     0.000000000000     1.007825032230

  Nuclear repulsion =  201.998047561272216

  ==> Basis Set <==

  Basis Set: 6-31G
    Blend: 6-31G
    Number of shells: 42
    Number of basis function: 66
    Number of Cartesian functions: 66
    Spherical Harmonics?: false
    Max angular momentum: 1

  ==> DFJKGrad: Density-Fitted SCF Gradients <==

    Gradient:                    1
    J tasked:                  Yes
    K tasked:                  Yes
    wK tasked:                  No
    OpenMP threads:              1
    Integrals threads:           1
    Memory [MiB]:              375
    Schwarz Cutoff:          0E+00
    Fitting Condition:       1E-10

   => Auxiliary Basis Set <=

  Basis Set: (6-31G AUX)
    Blend: CC-PVDZ-JKFIT
    Number of shells: 198
    Number of basis function: 636
    Number of Cartesian functions: 636
    Spherical Harmonics?: false
    Max angular momentum: 3

  ==> DFT Potential <==

   => Composite Functional: M06-2X <= 

    Hybrid M06-2X Meta-GGA XC Functional

    Y. Zhao and D. G. Truhlar,  Theor. Chem. Acc., 120, 215, 2008


    Deriv               =              1
    GGA                 =           TRUE
    Meta                =           TRUE

    Exchange Hybrid     =           TRUE
    MP2 Hybrid          =          FALSE

   => Exchange Functionals <=

    1.0000   XC_HYB_MGGA_X_M06_2X

   => Exact (HF) Exchange <=

    0.5400               HF 

   => Correlation Functionals <=

    1.0000   XC_MGGA_C_M06_2X

   => Molecular Quadrature <=

    Radial Scheme          =       TREUTLER
    Pruning Scheme         =           FLAT
    Nuclear Scheme         =       TREUTLER

    BS radius alpha        =              1
    Pruning alpha          =              1
    Radial Points          =             75
    Spherical Points       =            302
    Total Points           =         263478
    Total Blocks           =           2052
    Max Points             =            256
    Max Functions          =             66


  -Total Gradient:
     Atom            X                  Y                   Z
    ------   -----------------  -----------------  -----------------
       1       -0.002125794858    -0.000773292682     0.000000000000
       2       -0.001272113818     0.000769882408     0.000000000000
       3        0.000287260269    -0.001759976553     0.000000000000
       4       -0.000287260269     0.001759976553     0.000000000000
       5        0.001272113818    -0.000769882408     0.000000000000
       6        0.002125794858     0.000773292682     0.000000000000
       7       -0.005773569000    -0.003303780388     0.000000000000
       8       -0.005987434870     0.003491056384     0.000000000000
       9       -0.000069163836    -0.006948363416     0.000000000000
      10        0.000069163836     0.006948363416     0.000000000000
      11        0.005987434870    -0.003491056384     0.000000000000
      12        0.005773569000     0.003303780388     0.000000000000


*** tstop() called on atlantis at Wed Apr 20 03:19:29 2022
Module time:
	user time   =       2.14 seconds =       0.04 minutes
	system time =       0.01 seconds =       0.00 minutes
	total time  =          2 seconds =       0.03 minutes
Total time:
	user time   =      47.44 seconds =       0.79 minutes
	system time =       0.29 seconds =       0.00 minutes
	total time  =         48 seconds =       0.80 minutes

  //>>>>>>>>>>>>>>>>>>>>>>>>>>>>>>>>>>>//
  //    Loading displacement 3 of 42   //
  //<<<<<<<<<<<<<<<<<<<<<<<<<<<<<<<<<<<//
gradient() will perform analytic gradient computation.

*** tstart() called on atlantis
*** at Wed Apr 20 03:19:29 2022

   => Loading Basis Set <=

    Name: 6-31G
    Role: ORBITAL
    Keyword: BASIS
    atoms 1-6  entry C          line    87 file /home/akrom/software/anaconda3/envs/ffpenv/share/psi4/basis/6-31g.gbs 
    atoms 7-12 entry H          line    26 file /home/akrom/software/anaconda3/envs/ffpenv/share/psi4/basis/6-31g.gbs 


         ---------------------------------------------------------
                                   SCF
               by Justin Turney, Rob Parrish, Andy Simmonett
                          and Daniel G. A. Smith
                              RKS Reference
                        1 Threads,    500 MiB Core
         ---------------------------------------------------------

  ==> Geometry <==

    Molecular point group: c2h
    Full point group: C2h

    Geometry (in Angstrom), charge = 0, multiplicity = 1:

       Center              X                  Y                   Z               Mass       
    ------------   -----------------  -----------------  -----------------  -----------------
         C           -1.220987522409    -0.693186890392     0.000000000000    12.000000000000
         C           -1.211103254647     0.711282573840     0.000000000000    12.000000000000
         C           -0.010442564864    -1.404519464231     0.000000000000    12.000000000000
         C            0.010442564864     1.404519464231     0.000000000000    12.000000000000
         C            1.211103254647    -0.711282573840     0.000000000000    12.000000000000
         C            1.220987522409     0.693186890392     0.000000000000    12.000000000000
         H           -2.173173719775    -1.233207725748     0.000000000000     1.007825032230
         H           -2.154574626421     1.265441319995     0.000000000000     1.007825032230
         H           -0.018609093354    -2.498649045226     0.000000000000     1.007825032230
         H            0.018609093354     2.498649045226     0.000000000000     1.007825032230
         H            2.154574626421    -1.265441319995     0.000000000000     1.007825032230
         H            2.173173719775     1.233207725748     0.000000000000     1.007825032230

  Running in c2h symmetry.

  Rotational constants: A =      0.18760  B =      0.18752  C =      0.09378 [cm^-1]
  Rotational constants: A =   5624.12726  B =   5621.66993  C =   2811.44916 [MHz]
  Nuclear repulsion =  202.028576396706484

  Charge       = 0
  Multiplicity = 1
  Electrons    = 42
  Nalpha       = 21
  Nbeta        = 21

  ==> Algorithm <==

  SCF Algorithm Type is DF.
  DIIS enabled.
  MOM disabled.
  Fractional occupation disabled.
  Guess Type is SAD.
  Energy threshold   = 1.00e-08
  Density threshold  = 1.00e-08
  Integral threshold = 0.00e+00

  ==> Primary Basis <==

  Basis Set: 6-31G
    Blend: 6-31G
    Number of shells: 42
    Number of basis function: 66
    Number of Cartesian functions: 66
    Spherical Harmonics?: false
    Max angular momentum: 1

  ==> DFT Potential <==

   => Composite Functional: M06-2X <= 

    Hybrid M06-2X Meta-GGA XC Functional

    Y. Zhao and D. G. Truhlar,  Theor. Chem. Acc., 120, 215, 2008


    Deriv               =              1
    GGA                 =           TRUE
    Meta                =           TRUE

    Exchange Hybrid     =           TRUE
    MP2 Hybrid          =          FALSE

   => Exchange Functionals <=

    1.0000   XC_HYB_MGGA_X_M06_2X

   => Exact (HF) Exchange <=

    0.5400               HF 

   => Correlation Functionals <=

    1.0000   XC_MGGA_C_M06_2X

   => Molecular Quadrature <=

    Radial Scheme          =       TREUTLER
    Pruning Scheme         =           FLAT
    Nuclear Scheme         =       TREUTLER

    BS radius alpha        =              1
    Pruning alpha          =              1
    Radial Points          =             75
    Spherical Points       =            302
    Total Points           =         263484
    Total Blocks           =           2050
    Max Points             =            256
    Max Functions          =             66

   => Loading Basis Set <=

    Name: (6-31G AUX)
    Role: JKFIT
    Keyword: DF_BASIS_SCF
    atoms 1-6  entry C          line   121 file /home/akrom/software/anaconda3/envs/ffpenv/share/psi4/basis/cc-pvdz-jkfit.gbs 
    atoms 7-12 entry H          line    51 file /home/akrom/software/anaconda3/envs/ffpenv/share/psi4/basis/cc-pvdz-jkfit.gbs 

  ==> Pre-Iterations <==

   -------------------------------------------------------
    Irrep   Nso     Nmo     Nalpha   Nbeta   Ndocc  Nsocc
   -------------------------------------------------------
     Ag        27      27       0       0       0       0
     Bg         6       6       0       0       0       0
     Au         6       6       0       0       0       0
     Bu        27      27       0       0       0       0
   -------------------------------------------------------
    Total      66      66      21      21      21       0
   -------------------------------------------------------

  ==> Integral Setup <==

  DFHelper Memory: AOs need 0.024 GiB; user supplied 0.024 GiB. Using in-core AOs.

  ==> MemDFJK: Density-Fitted J/K Matrices <==

    J tasked:                   Yes
    K tasked:                   Yes
    wK tasked:                   No
    OpenMP threads:               1
    Memory [MiB]:                25
    Algorithm:                 Core
    Schwarz Cutoff:           1E-12
    Mask sparsity (%):       0.8264
    Fitting Condition:        1E-10

   => Auxiliary Basis Set <=

  Basis Set: (6-31G AUX)
    Blend: CC-PVDZ-JKFIT
    Number of shells: 198
    Number of basis function: 636
    Number of Cartesian functions: 636
    Spherical Harmonics?: false
    Max angular momentum: 3

  Cached 33.4% of DFT collocation blocks in 0.358 [GiB].

  Minimum eigenvalue in the overlap matrix is 7.4570504793E-04.
  Using Symmetric Orthogonalization.

  SCF Guess: Superposition of Atomic Densities via on-the-fly atomic UHF.

  ==> Iterations <==

                           Total Energy        Delta E     RMS |[F,P]|

   @DF-RKS iter SAD:  -231.53397956929041   -2.31534e+02   0.00000e+00 
   @DF-RKS iter   1:  -231.92474061383598   -3.90761e-01   1.33435e-02 DIIS
   @DF-RKS iter   2:  -232.00638284051462   -8.16422e-02   9.79381e-03 DIIS
   @DF-RKS iter   3:  -232.09068980123155   -8.43070e-02   2.58878e-04 DIIS
   @DF-RKS iter   4:  -232.09077253909652   -8.27379e-05   3.19988e-05 DIIS
   @DF-RKS iter   5:  -232.09077394291614   -1.40382e-06   4.18866e-06 DIIS
   @DF-RKS iter   6:  -232.09077395219799   -9.28185e-09   3.56540e-06 DIIS
   @DF-RKS iter   7:  -232.09077396212209   -9.92409e-09   1.21530e-07 DIIS
   @DF-RKS iter   8:  -232.09077396213718   -1.50919e-11   8.02511e-09 DIIS
  Energy and wave function converged.


  ==> Post-Iterations <==

    Orbital Energies [Eh]
    ---------------------

    Doubly Occupied:                                                      

       1Ag   -10.551545     1Bu   -10.551267     2Bu   -10.551246  
       2Ag   -10.550610     3Ag   -10.550588     3Bu   -10.550301  
       4Ag    -0.950847     4Bu    -0.835586     5Bu    -0.835467  
       5Ag    -0.679448     6Ag    -0.679312     7Ag    -0.594040  
       6Bu    -0.528305     7Bu    -0.507260     8Bu    -0.485044  
       9Bu    -0.484888     1Au    -0.428766     8Ag    -0.398556  
       9Ag    -0.398293     1Bg    -0.299020     2Bg    -0.298913  

    Virtual:                                                              

       2Au     0.039153     3Au     0.039304    10Ag     0.135984  
      10Bu     0.190842    11Bu     0.190920     3Bg     0.212334  
      11Ag     0.226520    12Ag     0.226584    12Bu     0.237115  
      13Ag     0.342248    14Ag     0.342356    13Bu     0.359575  
      14Bu     0.359834    15Bu     0.538058     4Au     0.576832  
      16Bu     0.591902    15Ag     0.605454    16Ag     0.627183  
       4Bg     0.663593     5Bg     0.663640    17Ag     0.674129  
      18Ag     0.674389    19Ag     0.678269    17Bu     0.717284  
      18Bu     0.717400     5Au     0.721728     6Au     0.721756  
       6Bg     0.795363    19Bu     0.911143    20Ag     0.926974  
      21Ag     0.927229    20Bu     0.964469    21Bu     0.964693  
      22Ag     1.027022    23Ag     1.033688    22Bu     1.053334  
      23Bu     1.053583    24Ag     1.162508    25Ag     1.162642  
      24Bu     1.228882    25Bu     1.229062    26Bu     1.258714  
      26Ag     1.497236    27Ag     1.497471    27Bu     1.926881  

    Final Occupation by Irrep:
             Ag    Bg    Au    Bu 
    DOCC [     9,    2,    1,    9 ]

  @DF-RKS Final Energy:  -232.09077396213718

   => Energetics <=

    Nuclear Repulsion Energy =            202.0285763967064838
    One-Electron Energy =                -711.0252074175780308
    Two-Electron Energy =                 293.6293398129860179
    DFT Exchange-Correlation Energy =     -16.7234827542516875
    Empirical Dispersion Energy =           0.0000000000000000
    VV10 Nonlocal Energy =                  0.0000000000000000
    Total Energy =                       -232.0907739621371775

Computation Completed


Properties will be evaluated at   0.000000,   0.000000,   0.000000 [a0]

Properties computed using the SCF density matrix

  Nuclear Dipole Moment: [e a0]
     X:     0.0000      Y:     0.0000      Z:     0.0000

  Electronic Dipole Moment: [e a0]
     X:     0.0000      Y:     0.0000      Z:     0.0000

  Dipole Moment: [e a0]
     X:     0.0000      Y:     0.0000      Z:     0.0000     Total:     0.0000

  Dipole Moment: [D]
     X:     0.0000      Y:     0.0000      Z:     0.0000     Total:     0.0000


*** tstop() called on atlantis at Wed Apr 20 03:19:39 2022
Module time:
	user time   =      10.14 seconds =       0.17 minutes
	system time =       0.03 seconds =       0.00 minutes
	total time  =         10 seconds =       0.17 minutes
Total time:
	user time   =      57.59 seconds =       0.96 minutes
	system time =       0.32 seconds =       0.01 minutes
	total time  =         58 seconds =       0.97 minutes

*** tstart() called on atlantis
*** at Wed Apr 20 03:19:39 2022


         ------------------------------------------------------------
                                   SCF GRAD                          
                          Rob Parrish, Justin Turney,                
                       Andy Simmonett, and Alex Sokolov              
         ------------------------------------------------------------

  ==> Geometry <==

    Molecular point group: c2h
    Full point group: C2h

    Geometry (in Angstrom), charge = 0, multiplicity = 1:

       Center              X                  Y                   Z               Mass       
    ------------   -----------------  -----------------  -----------------  -----------------
         C           -1.220987522409    -0.693186890392     0.000000000000    12.000000000000
         C           -1.211103254647     0.711282573840     0.000000000000    12.000000000000
         C           -0.010442564864    -1.404519464231     0.000000000000    12.000000000000
         C            0.010442564864     1.404519464231     0.000000000000    12.000000000000
         C            1.211103254647    -0.711282573840     0.000000000000    12.000000000000
         C            1.220987522409     0.693186890392     0.000000000000    12.000000000000
         H           -2.173173719775    -1.233207725748     0.000000000000     1.007825032230
         H           -2.154574626421     1.265441319995     0.000000000000     1.007825032230
         H           -0.018609093354    -2.498649045226     0.000000000000     1.007825032230
         H            0.018609093354     2.498649045226     0.000000000000     1.007825032230
         H            2.154574626421    -1.265441319995     0.000000000000     1.007825032230
         H            2.173173719775     1.233207725748     0.000000000000     1.007825032230

  Nuclear repulsion =  202.028576396706484

  ==> Basis Set <==

  Basis Set: 6-31G
    Blend: 6-31G
    Number of shells: 42
    Number of basis function: 66
    Number of Cartesian functions: 66
    Spherical Harmonics?: false
    Max angular momentum: 1

  ==> DFJKGrad: Density-Fitted SCF Gradients <==

    Gradient:                    1
    J tasked:                  Yes
    K tasked:                  Yes
    wK tasked:                  No
    OpenMP threads:              1
    Integrals threads:           1
    Memory [MiB]:              375
    Schwarz Cutoff:          0E+00
    Fitting Condition:       1E-10

   => Auxiliary Basis Set <=

  Basis Set: (6-31G AUX)
    Blend: CC-PVDZ-JKFIT
    Number of shells: 198
    Number of basis function: 636
    Number of Cartesian functions: 636
    Spherical Harmonics?: false
    Max angular momentum: 3

  ==> DFT Potential <==

   => Composite Functional: M06-2X <= 

    Hybrid M06-2X Meta-GGA XC Functional

    Y. Zhao and D. G. Truhlar,  Theor. Chem. Acc., 120, 215, 2008


    Deriv               =              1
    GGA                 =           TRUE
    Meta                =           TRUE

    Exchange Hybrid     =           TRUE
    MP2 Hybrid          =          FALSE

   => Exchange Functionals <=

    1.0000   XC_HYB_MGGA_X_M06_2X

   => Exact (HF) Exchange <=

    0.5400               HF 

   => Correlation Functionals <=

    1.0000   XC_MGGA_C_M06_2X

   => Molecular Quadrature <=

    Radial Scheme          =       TREUTLER
    Pruning Scheme         =           FLAT
    Nuclear Scheme         =       TREUTLER

    BS radius alpha        =              1
    Pruning alpha          =              1
    Radial Points          =             75
    Spherical Points       =            302
    Total Points           =         263484
    Total Blocks           =           2050
    Max Points             =            256
    Max Functions          =             66


  -Total Gradient:
     Atom            X                  Y                   Z
    ------   -----------------  -----------------  -----------------
       1       -0.000553065732    -0.000783796809     0.000000000000
       2       -0.001433776022     0.000740284874     0.000000000000
       3       -0.000389068140    -0.001431867152     0.000000000000
       4        0.000389068140     0.001431867152     0.000000000000
       5        0.001433776022    -0.000740284874     0.000000000000
       6        0.000553065732     0.000783796809     0.000000000000
       7       -0.006330667633    -0.003554979064     0.000000000000
       8       -0.005976729296     0.003555454320     0.000000000000
       9       -0.000042632592    -0.006951081330     0.000000000000
      10        0.000042632592     0.006951081330     0.000000000000
      11        0.005976729296    -0.003555454320     0.000000000000
      12        0.006330667633     0.003554979064    -0.000000000000


*** tstop() called on atlantis at Wed Apr 20 03:19:41 2022
Module time:
	user time   =       2.14 seconds =       0.04 minutes
	system time =       0.00 seconds =       0.00 minutes
	total time  =          2 seconds =       0.03 minutes
Total time:
	user time   =      59.73 seconds =       1.00 minutes
	system time =       0.32 seconds =       0.01 minutes
	total time  =         60 seconds =       1.00 minutes

  //>>>>>>>>>>>>>>>>>>>>>>>>>>>>>>>>>>>//
  //    Loading displacement 4 of 42   //
  //<<<<<<<<<<<<<<<<<<<<<<<<<<<<<<<<<<<//
gradient() will perform analytic gradient computation.

*** tstart() called on atlantis
*** at Wed Apr 20 03:19:41 2022

   => Loading Basis Set <=

    Name: 6-31G
    Role: ORBITAL
    Keyword: BASIS
    atoms 1-6  entry C          line    87 file /home/akrom/software/anaconda3/envs/ffpenv/share/psi4/basis/6-31g.gbs 
    atoms 7-12 entry H          line    26 file /home/akrom/software/anaconda3/envs/ffpenv/share/psi4/basis/6-31g.gbs 


         ---------------------------------------------------------
                                   SCF
               by Justin Turney, Rob Parrish, Andy Simmonett
                          and Daniel G. A. Smith
                              RKS Reference
                        1 Threads,    500 MiB Core
         ---------------------------------------------------------

  ==> Geometry <==

    Molecular point group: c2h
    Full point group: C2h

    Geometry (in Angstrom), charge = 0, multiplicity = 1:

       Center              X                  Y                   Z               Mass       
    ------------   -----------------  -----------------  -----------------  -----------------
         C           -1.221510000000    -0.693729180898     0.000000000000    12.000000000000
         C           -1.211064564906     0.711348458788     0.000000000000    12.000000000000
         C           -0.010518969514    -1.404518900113     0.000000000000    12.000000000000
         C            0.010518969514     1.404518900113     0.000000000000    12.000000000000
         C            1.211064564906    -0.711348458788     0.000000000000    12.000000000000
         C            1.221510000000     0.693729180898     0.000000000000    12.000000000000
         H           -2.173240811296    -1.233089510479     0.000000000000     1.007825032230
         H           -2.154505793584     1.265558530512     0.000000000000     1.007825032230
         H           -0.018745017712    -2.498648039931     0.000000000000     1.007825032230
         H            0.018745017712     2.498648039931     0.000000000000     1.007825032230
         H            2.154505793584    -1.265558530512     0.000000000000     1.007825032230
         H            2.173240811296     1.233089510479     0.000000000000     1.007825032230

  Running in c2h symmetry.

  Rotational constants: A =      0.18755  B =      0.18747  C =      0.09375 [cm^-1]
  Rotational constants: A =   5622.68504  B =   5620.06762  C =   2810.68801 [MHz]
  Nuclear repulsion =  202.005878293187777

  Charge       = 0
  Multiplicity = 1
  Electrons    = 42
  Nalpha       = 21
  Nbeta        = 21

  ==> Algorithm <==

  SCF Algorithm Type is DF.
  DIIS enabled.
  MOM disabled.
  Fractional occupation disabled.
  Guess Type is SAD.
  Energy threshold   = 1.00e-08
  Density threshold  = 1.00e-08
  Integral threshold = 0.00e+00

  ==> Primary Basis <==

  Basis Set: 6-31G
    Blend: 6-31G
    Number of shells: 42
    Number of basis function: 66
    Number of Cartesian functions: 66
    Spherical Harmonics?: false
    Max angular momentum: 1

  ==> DFT Potential <==

   => Composite Functional: M06-2X <= 

    Hybrid M06-2X Meta-GGA XC Functional

    Y. Zhao and D. G. Truhlar,  Theor. Chem. Acc., 120, 215, 2008


    Deriv               =              1
    GGA                 =           TRUE
    Meta                =           TRUE

    Exchange Hybrid     =           TRUE
    MP2 Hybrid          =          FALSE

   => Exchange Functionals <=

    1.0000   XC_HYB_MGGA_X_M06_2X

   => Exact (HF) Exchange <=

    0.5400               HF 

   => Correlation Functionals <=

    1.0000   XC_MGGA_C_M06_2X

   => Molecular Quadrature <=

    Radial Scheme          =       TREUTLER
    Pruning Scheme         =           FLAT
    Nuclear Scheme         =       TREUTLER

    BS radius alpha        =              1
    Pruning alpha          =              1
    Radial Points          =             75
    Spherical Points       =            302
    Total Points           =         263460
    Total Blocks           =           2076
    Max Points             =            256
    Max Functions          =             66

   => Loading Basis Set <=

    Name: (6-31G AUX)
    Role: JKFIT
    Keyword: DF_BASIS_SCF
    atoms 1-6  entry C          line   121 file /home/akrom/software/anaconda3/envs/ffpenv/share/psi4/basis/cc-pvdz-jkfit.gbs 
[...]
      5   C               -0.32  0.16 -0.00    0.00 -0.00  0.19    0.00 -0.00 -0.03   
      6   C                0.07  0.19 -0.00   -0.00 -0.00 -0.19   -0.00 -0.00 -0.03   
      7   H               -0.19  0.03  0.00   -0.00  0.00  0.36    0.00  0.00  0.41   
      8   H                0.28 -0.23 -0.00   -0.00  0.00 -0.36   -0.00  0.00  0.41   
      9   H                0.26 -0.20  0.00   -0.00  0.00 -0.37   -0.00  0.00  0.41   
     10   H               -0.26  0.20  0.00    0.00 -0.00  0.37    0.00  0.00  0.41   
     11   H               -0.28  0.23 -0.00    0.00  0.00  0.36   -0.00 -0.00  0.41   
     12   H                0.19 -0.03 -0.00   -0.00  0.00 -0.36   -0.00  0.00  0.41   

  Vibration                       13                  14                  15          
  Freq [cm^-1]                 939.8861            941.2086           1028.6448       
  Irrep                           Bg                  Bg                  Ag          
  Reduced mass [u]              1.2479              1.2479              5.9212        
  Force const [mDyne/A]         0.6495              0.6513              3.6914        
  Turning point v=0 [a0]        0.3204              0.3202              0.1406        
  RMS dev v=0 [a0 u^1/2]        0.2531              0.2529              0.2419        
  Char temp [K]               1352.2869           1354.1896           1479.9908       
  ----------------------------------------------------------------------------------
      1   C                0.00  0.00 -0.04    0.00  0.00 -0.07    0.24  0.14  0.00   
      2   C                0.00 -0.00  0.04    0.00 -0.00 -0.08    0.24 -0.13  0.00   
      3   C               -0.00  0.00 -0.09   -0.00  0.00  0.00    0.00  0.28  0.00   
      4   C               -0.00  0.00  0.09   -0.00 -0.00 -0.00   -0.00 -0.28  0.00   
      5   C                0.00 -0.00 -0.04   -0.00 -0.00  0.08   -0.24  0.13 -0.00   
      6   C               -0.00 -0.00  0.04   -0.00 -0.00  0.07   -0.24 -0.14 -0.00   
      7   H                0.00 -0.00  0.30    0.00  0.00  0.48    0.28  0.13 -0.00   
      8   H                0.00  0.00 -0.27    0.00 -0.00  0.50    0.25 -0.15 -0.00   
      9   H                0.00  0.00  0.57    0.00  0.00 -0.02    0.07  0.30 -0.00   
     10   H               -0.00  0.00 -0.57   -0.00 -0.00  0.02   -0.07 -0.30 -0.00   
     11   H                0.00 -0.00  0.27   -0.00 -0.00 -0.50   -0.25  0.15  0.00   
     12   H                0.00 -0.00 -0.30   -0.00 -0.00 -0.48   -0.28 -0.13  0.00   

  Vibration                       16                  17                  18          
  Freq [cm^-1]                1043.9397           1060.0693           1061.1765       
  Irrep                           Bu                  Au                  Au          
  Reduced mass [u]              6.5141              1.3625              1.3598        
  Force const [mDyne/A]         4.1827              0.9021              0.9022        
  Turning point v=0 [a0]        0.1331              0.2887              0.2889        
  RMS dev v=0 [a0 u^1/2]        0.2401              0.2383              0.2382        
  Char temp [K]               1501.9968           1525.2037           1526.7967       
  ----------------------------------------------------------------------------------
      1   C               -0.25 -0.14  0.00    0.00 -0.00  0.05    0.00  0.00  0.09   
      2   C                0.25 -0.15  0.00   -0.00 -0.00  0.05    0.00  0.00 -0.09   
      3   C                0.00  0.29  0.00    0.00  0.00 -0.10   -0.00 -0.00  0.00   
      4   C                0.00  0.29  0.00    0.00  0.00 -0.10   -0.00 -0.00  0.00   
      5   C                0.25 -0.15 -0.00   -0.00  0.00  0.05    0.00 -0.00 -0.09   
      6   C               -0.25 -0.14 -0.00   -0.00 -0.00  0.05    0.00  0.00  0.09   
      7   H               -0.25 -0.14 -0.00    0.00 -0.00 -0.30   -0.00  0.00 -0.48   
      8   H                0.25 -0.15 -0.00   -0.00 -0.00 -0.27    0.00  0.00  0.50   
      9   H                0.00  0.29 -0.00    0.00  0.00  0.57   -0.00 -0.00 -0.01   
     10   H                0.00  0.29 -0.00    0.00  0.00  0.57   -0.00 -0.00 -0.01   
     11   H                0.25 -0.15  0.00   -0.00 -0.00 -0.27    0.00  0.00  0.50   
     12   H               -0.25 -0.14  0.00   -0.00 -0.00 -0.30   -0.00  0.00 -0.48   

  Vibration                       19                  20                  21          
  Freq [cm^-1]                1082.7294           1083.0975           1100.8084       
  Irrep                           Bu                  Bu                  Bg          
  Reduced mass [u]              1.8003              1.7999              1.2973        
  Force const [mDyne/A]         1.2435              1.2441              0.9262        
  Turning point v=0 [a0]        0.2485              0.2485              0.2904        
  RMS dev v=0 [a0 u^1/2]        0.2358              0.2358              0.2339        
  Char temp [K]               1557.8065           1558.3361           1583.8182       
  ----------------------------------------------------------------------------------
      1   C               -0.00  0.10  0.00   -0.12 -0.03 -0.00    0.00  0.00 -0.07   
      2   C                0.11 -0.05  0.00    0.03  0.09  0.00    0.00 -0.00  0.07   
      3   C               -0.07 -0.08 -0.00    0.06 -0.10  0.00   -0.00  0.00  0.07   
      4   C               -0.07 -0.08 -0.00    0.06 -0.10 -0.00    0.00  0.00 -0.07   
      5   C                0.11 -0.05  0.00    0.03  0.09  0.00    0.00 -0.00 -0.07   
      6   C               -0.00  0.10 -0.00   -0.12 -0.03  0.00   -0.00  0.00  0.07   
      7   H               -0.20  0.46 -0.00   -0.21  0.11  0.00   -0.00  0.00  0.40   
      8   H                0.15 -0.00 -0.00    0.25  0.47 -0.00    0.00 -0.00 -0.40   
      9   H               -0.42 -0.08  0.00    0.33 -0.11 -0.00   -0.00  0.00 -0.40   
     10   H               -0.42 -0.08  0.00    0.33 -0.11  0.00   -0.00  0.00  0.40   
     11   H                0.15 -0.00 -0.00    0.25  0.47 -0.00   -0.00 -0.00  0.40   
     12   H               -0.20  0.46  0.00   -0.21  0.11 -0.00   -0.00  0.00 -0.40   

  Vibration                       22                  23                  24          
  Freq [cm^-1]                1211.9199           1228.9126           1241.0487       
  Irrep                           Bu                  Ag                  Ag          
  Reduced mass [u]              1.2478              1.1402              1.1584        
  Force const [mDyne/A]         1.0798              1.0146              1.0512        
  Turning point v=0 [a0]        0.2822              0.2931              0.2894        
  RMS dev v=0 [a0 u^1/2]        0.2229              0.2213              0.2202        
  Char temp [K]               1743.6828           1768.1316           1785.5928       
  ----------------------------------------------------------------------------------
      1   C               -0.03  0.05 -0.00   -0.02  0.05 -0.00   -0.02  0.02  0.00   
      2   C               -0.03 -0.05 -0.00   -0.02 -0.05  0.00    0.02  0.04  0.00   
      3   C                0.06 -0.00 -0.00    0.02 -0.00  0.00    0.07 -0.00  0.00   
      4   C                0.06 -0.00  0.00   -0.02  0.00 -0.00   -0.07  0.00 -0.00   
      5   C               -0.03 -0.05  0.00    0.02  0.05 -0.00   -0.02 -0.04 -0.00   
      6   C               -0.03  0.05 -0.00    0.02 -0.05  0.00    0.02 -0.02  0.00   
      7   H               -0.20  0.35  0.00   -0.29  0.52 -0.00   -0.09  0.15  0.00   
      8   H               -0.20 -0.35  0.00   -0.18 -0.32 -0.00    0.20  0.35 -0.00   
      9   H                0.40 -0.00  0.00    0.08 -0.00 -0.00    0.55 -0.00 -0.00   
     10   H                0.40 -0.00 -0.00   -0.08  0.00  0.00   -0.55  0.00  0.00   
     11   H               -0.20 -0.35 -0.00    0.18  0.32  0.00   -0.20 -0.35  0.00   
     12   H               -0.20  0.35  0.00    0.29 -0.52 -0.00    0.09 -0.15 -0.00   

  Vibration                       25                  26                  27          
  Freq [cm^-1]                1325.9571           1368.7052           1545.3948       
  Irrep                           Bu                  Ag                  Bu          
  Reduced mass [u]              3.6478              1.2574              1.8879        
  Force const [mDyne/A]         3.7787              1.3878              2.6564        
  Turning point v=0 [a0]        0.1578              0.2645              0.2031        
  RMS dev v=0 [a0 u^1/2]        0.2131              0.2097              0.1974        
  Char temp [K]               1907.7570           1969.2621           2223.4791       
  ----------------------------------------------------------------------------------
      1   C               -0.10  0.17  0.00   -0.03  0.07 -0.00   -0.04  0.13  0.00   
      2   C               -0.10 -0.17  0.00    0.01  0.05 -0.00    0.08 -0.02  0.00   
      3   C                0.20 -0.00 -0.00   -0.05 -0.00 -0.00   -0.11 -0.05  0.00   
      4   C                0.20 -0.00  0.00    0.05  0.00 -0.00   -0.11 -0.05 -0.00   
      5   C               -0.10 -0.17  0.00   -0.01 -0.05 -0.00    0.08 -0.02 -0.00   
      6   C               -0.10  0.17 -0.00    0.03 -0.07  0.00   -0.04  0.13  0.00   
      7   H                0.18 -0.31 -0.00    0.17 -0.28  0.00    0.28 -0.42  0.00   
      8   H                0.18  0.31  0.00   -0.24 -0.37 -0.00    0.05 -0.13 -0.00   
      9   H               -0.35  0.00  0.00    0.43 -0.01 -0.00    0.42 -0.07 -0.00   
     10   H               -0.35  0.00 -0.00   -0.43  0.01  0.00    0.42 -0.07  0.00   
     11   H                0.18  0.31 -0.00    0.24  0.37  0.00    0.05 -0.13  0.00   
     12   H                0.18 -0.31  0.00   -0.17  0.28 -0.00    0.28 -0.42 -0.00   

  Vibration                       28                  29                  30          
  Freq [cm^-1]                1545.7636           1656.2310           1667.2653       
  Irrep                           Bu                  Ag                  Ag          
  Reduced mass [u]              1.8883              4.9539              4.8693        
  Force const [mDyne/A]         2.6584              8.0064              7.9748        
  Turning point v=0 [a0]        0.2031              0.1211              0.1218        
  RMS dev v=0 [a0 u^1/2]        0.1973              0.1906              0.1900        
  Char temp [K]               2224.0097           2382.9476           2398.8236       
  ----------------------------------------------------------------------------------
      1   C                0.09 -0.00 -0.00   -0.04 -0.18 -0.00   -0.19  0.21 -0.00   
      2   C               -0.06 -0.13  0.00    0.16  0.27 -0.00    0.11 -0.09  0.00   
      3   C               -0.09  0.07 -0.00    0.17  0.12 -0.00    0.26 -0.08 -0.00   
      4   C               -0.09  0.07 -0.00   -0.17 -0.12  0.00   -0.26  0.08 -0.00   
      5   C               -0.06 -0.13 -0.00   -0.16 -0.27 -0.00   -0.11  0.09  0.00   
      6   C                0.09 -0.00  0.00    0.04  0.18 -0.00    0.19 -0.21  0.00   
      7   H               -0.01  0.22  0.00   -0.22  0.09  0.00    0.13 -0.37  0.00   
      8   H                0.29  0.45 -0.00   -0.23 -0.39 -0.00    0.14 -0.09 -0.00   
      9   H                0.34  0.08 -0.00   -0.20  0.14  0.00   -0.37 -0.08 -0.00   
     10   H                0.34  0.08  0.00    0.20 -0.14 -0.00    0.37  0.08  0.00   
     11   H                0.29  0.45  0.00    0.23  0.39  0.00   -0.14  0.09 -0.00   
     12   H               -0.01  0.22 -0.00    0.22 -0.09 -0.00   -0.13  0.37  0.00   

  Vibration                       31                  32                  33          
  Freq [cm^-1]                3132.4059           3140.2913           3142.0506       
  Irrep                           Bu                  Ag                  Ag          
  Reduced mass [u]              1.0845              1.0887              1.0881        
  Force const [mDyne/A]         6.2697              6.3254              6.3291        
  Turning point v=0 [a0]        0.1883              0.1877              0.1877        
  RMS dev v=0 [a0 u^1/2]        0.1386              0.1385              0.1384        
  Char temp [K]               4506.8346           4518.1800           4520.7113       
  ----------------------------------------------------------------------------------
      1   C                0.03  0.02  0.00    0.01  0.00 -0.00   -0.04 -0.02  0.00   
      2   C               -0.03  0.02  0.00   -0.04  0.02  0.00    0.01 -0.00 -0.00   
      3   C               -0.00 -0.03 -0.00   -0.00  0.03 -0.00    0.00  0.03 -0.00   
      4   C               -0.00 -0.03  0.00    0.00 -0.03 -0.00   -0.00 -0.03 -0.00   
      5   C               -0.03  0.02  0.00    0.04 -0.02 -0.00   -0.01  0.00 -0.00   
      6   C                0.03  0.02 -0.00   -0.01 -0.00  0.00    0.04  0.02  0.00   
      7   H               -0.35 -0.20 -0.00   -0.15 -0.08  0.00    0.49  0.28 -0.00   
      8   H                0.35 -0.21 -0.00    0.48 -0.28 -0.00   -0.11  0.06 -0.00   
      9   H                0.00  0.41  0.00   -0.00 -0.40 -0.00   -0.00 -0.40 -0.00   
     10   H                0.00  0.41  0.00    0.00  0.40  0.00    0.00  0.40  0.00   
     11   H                0.35 -0.21  0.00   -0.48  0.28  0.00    0.11 -0.06  0.00   
     12   H               -0.35 -0.20  0.00    0.15  0.08 -0.00   -0.49 -0.28 -0.00   

  Vibration                       34                  35                  36          
  Freq [cm^-1]                3158.0769           3158.1964           3171.5589       
  Irrep                           Bu                  Bu                  Ag          
  Reduced mass [u]              1.0962              1.0962              1.1011        
  Force const [mDyne/A]         6.4416              6.4420              6.5259        
  Turning point v=0 [a0]        0.1865              0.1865              0.1857        
  RMS dev v=0 [a0 u^1/2]        0.1381              0.1381              0.1378        
  Char temp [K]               4543.7695           4543.9415           4563.1672       
  ----------------------------------------------------------------------------------
      1   C               -0.02 -0.02 -0.00   -0.04 -0.02 -0.00   -0.03 -0.02  0.00   
      2   C               -0.04  0.03 -0.00    0.00  0.00  0.00   -0.03  0.02  0.00   
      3   C                0.00  0.02 -0.00    0.00 -0.05  0.00   -0.00 -0.04  0.00   
      4   C                0.00  0.02 -0.00    0.00 -0.05  0.00    0.00  0.04 -0.00   
      5   C               -0.04  0.03 -0.00    0.00  0.00  0.00    0.03 -0.02 -0.00   
      6   C               -0.02 -0.02  0.00   -0.04 -0.02  0.00    0.03  0.02 -0.00   
      7   H                0.28  0.16 -0.00    0.42  0.23  0.00    0.34  0.19 -0.00   
      8   H                0.49 -0.29  0.00   -0.04  0.01 -0.00    0.36 -0.21 -0.00   
      9   H               -0.01 -0.26  0.00    0.00  0.52 -0.00    0.00  0.42  0.00   
     10   H               -0.01 -0.26 -0.00    0.00  0.52  0.00   -0.00 -0.42  0.00   
     11   H                0.49 -0.29 -0.00   -0.04  0.01  0.00   -0.36  0.21  0.00   
     12   H                0.28  0.16  0.00    0.42  0.23 -0.00   -0.34 -0.19  0.00   

  ==> Thermochemistry Components <==

  Entropy, S
    Electronic S            0.000 [cal/(mol K)]        0.000 [J/(mol K)]       0.00000000 [mEh/K] (multiplicity = 1)
    Translational S        38.979 [cal/(mol K)]      163.089 [J/(mol K)]       0.06211726 [mEh/K] (mol. weight = 78.0470 [u], P = 101325.00 [Pa])
    Rotational S           24.318 [cal/(mol K)]      101.746 [J/(mol K)]       0.03875307 [mEh/K] (symmetry no. = 2)
    Vibrational S           3.843 [cal/(mol K)]       16.077 [J/(mol K)]       0.00612349 [mEh/K]
  Total S                  67.140 [cal/(mol K)]      280.912 [J/(mol K)]       0.10699382 [mEh/K]
  Correction S              0.000 [cal/(mol K)]        0.000 [J/(mol K)]       0.00000000 [mEh/K]

  Constant volume heat capacity, Cv
    Electronic Cv           0.000 [cal/(mol K)]        0.000 [J/(mol K)]       0.00000000 [mEh/K]
    Translational Cv        2.981 [cal/(mol K)]       12.472 [J/(mol K)]       0.00475022 [mEh/K]
    Rotational Cv           2.981 [cal/(mol K)]       12.472 [J/(mol K)]       0.00475022 [mEh/K]
    Vibrational Cv         10.223 [cal/(mol K)]       42.773 [J/(mol K)]       0.01629124 [mEh/K]
  Total Cv                 16.185 [cal/(mol K)]       67.716 [J/(mol K)]       0.02579167 [mEh/K]
  Correction Cv             0.000 [cal/(mol K)]        0.000 [J/(mol K)]       0.00000000 [mEh/K]

  Constant pressure heat capacity, Cp
    Electronic Cp           0.000 [cal/(mol K)]        0.000 [J/(mol K)]       0.00000000 [mEh/K]
    Translational Cp        4.968 [cal/(mol K)]       20.786 [J/(mol K)]       0.00791703 [mEh/K]
    Rotational Cp           2.981 [cal/(mol K)]       12.472 [J/(mol K)]       0.00475022 [mEh/K]
    Vibrational Cp         10.223 [cal/(mol K)]       42.773 [J/(mol K)]       0.01629124 [mEh/K]
  Total Cp                 18.172 [cal/(mol K)]       76.030 [J/(mol K)]       0.02895848 [mEh/K]
  Correction Cp             0.000 [cal/(mol K)]        0.000 [J/(mol K)]       0.00000000 [mEh/K]

  ==> Thermochemistry Energy Analysis <==

  Raw electronic energy, E0
  Total E0, Electronic energy at well bottom at 0 [K]                 -232.09065495 [Eh]

  Zero-point energy, ZPE_vib = Sum_i nu_i / 2
    Electronic ZPE          0.000 [kcal/mol]        0.000 [kJ/mol]       0.00000000 [Eh]
    Translational ZPE       0.000 [kcal/mol]        0.000 [kJ/mol]       0.00000000 [Eh]
    Rotational ZPE          0.000 [kcal/mol]        0.000 [kJ/mol]       0.00000000 [Eh]
    Vibrational ZPE        63.909 [kcal/mol]      267.393 [kJ/mol]       0.10184468 [Eh]       22352.324 [cm^-1]
  Correction ZPE           63.909 [kcal/mol]      267.393 [kJ/mol]       0.10184468 [Eh]       22352.324 [cm^-1]
  Total ZPE, Electronic energy at 0 [K]                               -231.98881026 [Eh]

  Thermal Energy, E (includes ZPE)
    Electronic E            0.000 [kcal/mol]        0.000 [kJ/mol]       0.00000000 [Eh]
    Translational E         0.889 [kcal/mol]        3.718 [kJ/mol]       0.00141628 [Eh]
    Rotational E            0.889 [kcal/mol]        3.718 [kJ/mol]       0.00141628 [Eh]
    Vibrational E          64.773 [kcal/mol]      271.009 [kJ/mol]       0.10322187 [Eh]
  Correction E             66.550 [kcal/mol]      278.446 [kJ/mol]       0.10605442 [Eh]
  Total E, Electronic energy at  298.15 [K]                           -231.98460052 [Eh]

  Enthalpy, H_trans = E_trans + k_B * T
    Electronic H            0.000 [kcal/mol]        0.000 [kJ/mol]       0.00000000 [Eh]
    Translational H         1.481 [kcal/mol]        6.197 [kJ/mol]       0.00236046 [Eh]
    Rotational H            0.889 [kcal/mol]        3.718 [kJ/mol]       0.00141628 [Eh]
    Vibrational H          64.773 [kcal/mol]      271.009 [kJ/mol]       0.10322187 [Eh]
  Correction H             67.143 [kcal/mol]      280.925 [kJ/mol]       0.10699861 [Eh]
  Total H, Enthalpy at  298.15 [K]                                    -231.98365634 [Eh]

  Gibbs free energy, G = H - T * S
    Electronic G            0.000 [kcal/mol]        0.000 [kJ/mol]       0.00000000 [Eh]
    Translational G       -10.140 [kcal/mol]      -42.428 [kJ/mol]      -0.01615980 [Eh]
    Rotational G           -6.362 [kcal/mol]      -26.617 [kJ/mol]      -0.01013795 [Eh]
    Vibrational G          63.627 [kcal/mol]      266.216 [kJ/mol]       0.10139615 [Eh]
  Correction G             47.125 [kcal/mol]      197.171 [kJ/mol]       0.07509840 [Eh]
  Total G, Free enthalpy at  298.15 [K]                               -232.01555655 [Eh]

    Psi4 stopped on: Wednesday, 20 April 2022 03:28AM
    Psi4 wall time for execution: 0:09:24.52

*** Psi4 exiting successfully. Buy a developer a beer!
