
    -----------------------------------------------------------------------
          Psi4: An Open-Source Ab Initio Electronic Structure Package
                               Psi4 1.3.2 release

                         Git: Rev {HEAD} ecbda83 


    R. M. Parrish, L. A. Burns, D. G. A. Smith, A. C. Simmonett,
    A. E. DePrince III, E. G. Hohenstein, U. Bozkaya, A. Yu. Sokolov,
    R. Di Remigio, R. M. Richard, J. F. Gonthier, A. M. James,
    H. R. McAlexander, A. Kumar, M. Saitow, X. Wang, B. P. Pritchard,
    P. Verma, H. F. Schaefer III, K. Patkowski, R. A. King, E. F. Valeev,
    F. A. Evangelista, J. M. Turney, T. D. Crawford, and C. D. Sherrill,
    J. Chem. Theory Comput. 13(7) pp 3185--3197 (2017).
    (doi: 10.1021/acs.jctc.7b00174)


                         Additional Contributions by
    P. Kraus, H. Kruse, M. H. Lechner, M. C. Schieber, R. A. Shaw,
    A. Alenaizan, R. Galvelis, Z. L. Glick, S. Lehtola, and J. P. Misiewicz

    -----------------------------------------------------------------------


    Psi4 started on: Tuesday, 19 April 2022 12:51AM

    Process ID: 25685
    Host:       atlantis
    PSIDATADIR: /home/akrom/software/anaconda3/envs/ffpenv/share/psi4
    Memory:     500.0 MiB
    Threads:    1
    
  ==> Input File <==

--------------------------------------------------------------------------
set basis  aug-cc-pVTZ
molecule {
0 1
   C       -0.61446        0.00000        0.00000
   C        0.61446        0.00000        0.00000
   H       -1.68923        0.00000        0.00000
   H        1.68923        0.00000        0.00000
}
energy('scf')
frequencies('scf')
--------------------------------------------------------------------------

*** tstart() called on atlantis
*** at Tue Apr 19 00:51:18 2022

   => Loading Basis Set <=

    Name: AUG-CC-PVTZ
    Role: ORBITAL
    Keyword: BASIS
    atoms 1-2 entry C          line   235 file /home/akrom/software/anaconda3/envs/ffpenv/share/psi4/basis/aug-cc-pvtz.gbs 
    atoms 3-4 entry H          line    36 file /home/akrom/software/anaconda3/envs/ffpenv/share/psi4/basis/aug-cc-pvtz.gbs 


         ---------------------------------------------------------
                                   SCF
               by Justin Turney, Rob Parrish, Andy Simmonett
                          and Daniel G. A. Smith
                              RHF Reference
                        1 Threads,    500 MiB Core
         ---------------------------------------------------------

  ==> Geometry <==

    Molecular point group: d2h
    Full point group: D_inf_h

    Geometry (in Angstrom), charge = 0, multiplicity = 1:

       Center              X                  Y                   Z               Mass       
    ------------   -----------------  -----------------  -----------------  -----------------
         C           -0.614460000000    -0.000000000000     0.000000000000    12.000000000000
         C            0.614460000000     0.000000000000     0.000000000000    12.000000000000
         H           -1.689230000000    -0.000000000000     0.000000000000     1.007825032230
         H            1.689230000000     0.000000000000     0.000000000000     1.007825032230

  Running in d2h symmetry.

  Rotational constants: A = ************  B =      1.13802  C =      1.13802 [cm^-1]
  Rotational constants: A = ************  B =  34116.98697  C =  34116.98697 [MHz]
  Nuclear repulsion =   24.323218171379235

  Charge       = 0
  Multiplicity = 1
  Electrons    = 14
  Nalpha       = 7
  Nbeta        = 7

  ==> Algorithm <==

  SCF Algorithm Type is DF.
  DIIS enabled.
  MOM disabled.
  Fractional occupation disabled.
  Guess Type is SAD.
  Energy threshold   = 1.00e-06
  Density threshold  = 1.00e-06
  Integral threshold = 0.00e+00

  ==> Primary Basis <==

  Basis Set: AUG-CC-PVTZ
    Blend: AUG-CC-PVTZ
    Number of shells: 46
    Number of basis function: 138
    Number of Cartesian functions: 160
    Spherical Harmonics?: true
    Max angular momentum: 3

   => Loading Basis Set <=

    Name: (AUG-CC-PVTZ AUX)
    Role: JKFIT
    Keyword: DF_BASIS_SCF
    atoms 1-2 entry C          line   162 file /home/akrom/software/anaconda3/envs/ffpenv/share/psi4/basis/aug-cc-pvtz-jkfit.gbs 
    atoms 3-4 entry H          line    70 file /home/akrom/software/anaconda3/envs/ffpenv/share/psi4/basis/aug-cc-pvtz-jkfit.gbs 

  ==> Pre-Iterations <==

   -------------------------------------------------------
    Irrep   Nso     Nmo     Nalpha   Nbeta   Ndocc  Nsocc
   -------------------------------------------------------
     Ag        30      30       0       0       0       0
     B1g       16      16       0       0       0       0
     B2g       16      16       0       0       0       0
     B3g        7       7       0       0       0       0
     Au         7       7       0       0       0       0
     B1u       16      16       0       0       0       0
     B2u       16      16       0       0       0       0
     B3u       30      30       0       0       0       0
   -------------------------------------------------------
    Total     138     138       7       7       7       0
   -------------------------------------------------------

  ==> Integral Setup <==

  DFHelper Memory: AOs need 0.047 GiB; user supplied 0.366 GiB. Using in-core AOs.

  ==> MemDFJK: Density-Fitted J/K Matrices <==

    J tasked:                   Yes
    K tasked:                   Yes
    wK tasked:                   No
    OpenMP threads:               1
    Memory [MiB]:               375
    Algorithm:                 Core
    Schwarz Cutoff:           1E-12
    Mask sparsity (%):       0.0420
    Fitting Condition:        1E-10

   => Auxiliary Basis Set <=

  Basis Set: (AUG-CC-PVTZ AUX)
    Blend: AUG-CC-PVTZ-JKFIT
    Number of shells: 88
    Number of basis function: 300
    Number of Cartesian functions: 372
    Spherical Harmonics?: true
    Max angular momentum: 4

  Minimum eigenvalue in the overlap matrix is 9.1550632594E-06.
  Using Symmetric Orthogonalization.

  SCF Guess: Superposition of Atomic Densities via on-the-fly atomic UHF.

  ==> Iterations <==

                           Total Energy        Delta E     RMS |[F,P]|

   @DF-RHF iter SAD:   -75.85137118630655   -7.58514e+01   0.00000e+00 
   @DF-RHF iter   1:   -76.79956036564043   -9.48189e-01   5.54849e-03 DIIS
   @DF-RHF iter   2:   -76.84014496003456   -4.05846e-02   1.94973e-03 DIIS
   @DF-RHF iter   3:   -76.84559766635655   -5.45271e-03   2.24846e-04 DIIS
   @DF-RHF iter   4:   -76.84575243485136   -1.54768e-04   2.52926e-05 DIIS
   @DF-RHF iter   5:   -76.84575458183231   -2.14698e-06   4.07950e-06 DIIS
   @DF-RHF iter   6:   -76.84575463810947   -5.62772e-08   7.38342e-07 DIIS
  Energy and wave function converged.


  ==> Post-Iterations <==

    Orbital Energies [Eh]
    ---------------------

    Doubly Occupied:                                                      

       1Ag   -11.253582     1B3u  -11.250330     2Ag    -1.022832  
       2B3u   -0.767056     3Ag    -0.676897     1B1u   -0.405336  
       1B2u   -0.405336  

    Virtual:                                                              

       4Ag     0.030947     3B3u    0.032438     1B1g    0.091836  
       1B2g    0.091836     2B1u    0.096398     2B2u    0.096398  
       5Ag     0.107472     4B3u    0.110719     6Ag     0.143084  
       2B1g    0.185710     2B2g    0.185710     5B3u    0.225361  
       6B3u    0.256536     3B2u    0.275641     3B1u    0.275641  
       7Ag     0.280944     1B3g    0.300265     8Ag     0.300265  
       9Ag     0.377085     3B2g    0.384508     3B1g    0.384508  
       7B3u    0.399556     1Au     0.399556    10Ag     0.412637  
       8B3u    0.412951     4B1g    0.423818     4B2g    0.423818  
       4B2u    0.493020     4B1u    0.493020     9B3u    0.509802  
      10B3u    0.586118     5B2u    0.598105     5B1u    0.598105  
      11Ag     0.658650     5B1g    0.842496     5B2g    0.842496  
      12Ag     0.886636     2B3g    0.893252    13Ag     0.893252  
      11B3u    0.899853     6B1u    0.933761     6B2u    0.933761  
      14Ag     0.981517     3B3g    1.006388    15Ag     1.006388  
      12B3u    1.024714     2Au     1.024714     6B1g    1.027005  
       6B2g    1.027005    13B3u    1.028834     7B1u    1.052092  
       7B2u    1.052092    16Ag     1.137420     8B2u    1.175789  
       8B1u    1.175789    14B3u    1.193962     3Au     1.193962  
      15B3u    1.199054     7B1g    1.293965     7B2g    1.293965  
      16B3u    1.347762     8B1g    1.387562     8B2g    1.387562  
       9B2u    1.574428     9B1u    1.574428     4B3g    1.626891  
      17Ag     1.626891     9B1g    1.763384     9B2g    1.763384  
      18Ag     1.776385    10B2u    1.899739    10B1u    1.899739  
      17B3u    1.931375    18B3u    2.019256     4Au     2.019256  
      19Ag     2.022237    19B3u    2.147064    20Ag     2.206311  
      10B1g    2.344215    10B2g    2.344215    20B3u    2.789274  
      11B1u    2.804535    11B2u    2.804535    21Ag     3.006903  
      21B3u    3.088165     5B3g    3.179935    22Ag     3.179935  
      11B1g    3.194662    11B2g    3.194662    12B2u    3.315517  
      12B1u    3.315517    13B2u    3.369501    13B1u    3.369501  
      22B3u    3.446900     5Au     3.446900    23Ag     3.566193  
       6B3g    3.566193    24Ag     3.595344    12B1g    3.687654  
      12B2g    3.687654    25Ag     3.720713    14B2u    3.782151  
      14B1u    3.782151    13B1g    3.855985    13B2g    3.855985  
      23B3u    3.870621    24B3u    4.086549     6Au     4.086549  
      26Ag     4.146697     7B3g    4.146697    25B3u    4.315781  
      26B3u    4.632697     7Au     4.632697    27Ag     4.637107  
      15B2u    4.746937    15B1u    4.746937    14B1g    4.758672  
      14B2g    4.758672    15B1g    4.979585    15B2g    4.979585  
      27B3u    5.256234    28Ag     5.371842    16B2u    5.768355  
      16B1u    5.768355    28B3u    6.163931    29B3u    6.686620  
      16B1g    6.729166    16B2g    6.729166    29Ag     6.895252  
      30Ag    13.446465    30B3u   18.919518  

    Final Occupation by Irrep:
             Ag   B1g   B2g   B3g    Au   B1u   B2u   B3u 
    DOCC [     3,    0,    0,    0,    0,    1,    1,    2 ]

  @DF-RHF Final Energy:   -76.84575463810947

   => Energetics <=

    Nuclear Repulsion Energy =             24.3232181713792350
    One-Electron Energy =                -150.7751796537559983
    Two-Electron Energy =                  49.6062068442672910
    Total Energy =                        -76.8457546381094687

Computation Completed


Properties will be evaluated at   0.000000,   0.000000,   0.000000 [a0]

Properties computed using the SCF density matrix

  Nuclear Dipole Moment: [e a0]
     X:     0.0000      Y:     0.0000      Z:     0.0000

  Electronic Dipole Moment: [e a0]
     X:     0.0000      Y:     0.0000      Z:     0.0000

  Dipole Moment: [e a0]
     X:     0.0000      Y:     0.0000      Z:     0.0000     Total:     0.0000

  Dipole Moment: [D]
     X:     0.0000      Y:     0.0000      Z:     0.0000     Total:     0.0000


*** tstop() called on atlantis at Tue Apr 19 00:51:19 2022
Module time:
	user time   =       0.70 seconds =       0.01 minutes
	system time =       0.02 seconds =       0.00 minutes
	total time  =          1 seconds =       0.02 minutes
Total time:
	user time   =       0.70 seconds =       0.01 minutes
	system time =       0.02 seconds =       0.00 minutes
	total time  =          1 seconds =       0.02 minutes
gradient() will perform analytic gradient computation.

*** tstart() called on atlantis
*** at Tue Apr 19 00:51:19 2022

   => Loading Basis Set <=

    Name: AUG-CC-PVTZ
    Role: ORBITAL
    Keyword: BASIS
    atoms 1-2 entry C          line   235 file /home/akrom/software/anaconda3/envs/ffpenv/share/psi4/basis/aug-cc-pvtz.gbs 
    atoms 3-4 entry H          line    36 file /home/akrom/software/anaconda3/envs/ffpenv/share/psi4/basis/aug-cc-pvtz.gbs 


         ---------------------------------------------------------
                                   SCF
               by Justin Turney, Rob Parrish, Andy Simmonett
                          and Daniel G. A. Smith
                              RHF Reference
                        1 Threads,    500 MiB Core
         ---------------------------------------------------------

  ==> Geometry <==

    Molecular point group: d2h
    Full point group: D_inf_h

    Geometry (in Angstrom), charge = 0, multiplicity = 1:

       Center              X                  Y                   Z               Mass       
    ------------   -----------------  -----------------  -----------------  -----------------
         C           -0.614460000000    -0.000000000000     0.000000000000    12.000000000000
         C            0.614460000000     0.000000000000     0.000000000000    12.000000000000
         H           -1.689230000000    -0.000000000000     0.000000000000     1.007825032230
         H            1.689230000000     0.000000000000     0.000000000000     1.007825032230

  Running in d2h symmetry.

  Rotational constants: A = ************  B =      1.13802  C =      1.13802 [cm^-1]
  Rotational constants: A = ************  B =  34116.98697  C =  34116.98697 [MHz]
  Nuclear repulsion =   24.323218171379235

  Charge       = 0
  Multiplicity = 1
  Electrons    = 14
  Nalpha       = 7
  Nbeta        = 7

  ==> Algorithm <==

  SCF Algorithm Type is DF.
  DIIS enabled.
  MOM disabled.
  Fractional occupation disabled.
  Guess Type is SAD.
  Energy threshold   = 1.00e-08
  Density threshold  = 1.00e-08
  Integral threshold = 0.00e+00

  ==> Primary Basis <==

  Basis Set: AUG-CC-PVTZ
    Blend: AUG-CC-PVTZ
    Number of shells: 46
    Number of basis function: 138
    Number of Cartesian functions: 160
    Spherical Harmonics?: true
    Max angular momentum: 3

   => Loading Basis Set <=

    Name: (AUG-CC-PVTZ AUX)
    Role: JKFIT
    Keyword: DF_BASIS_SCF
    atoms 1-2 entry C          line   162 file /home/akrom/software/anaconda3/envs/ffpenv/share/psi4/basis/aug-cc-pvtz-jkfit.gbs 
    atoms 3-4 entry H          line    70 file /home/akrom/software/anaconda3/envs/ffpenv/share/psi4/basis/aug-cc-pvtz-jkfit.gbs 

  ==> Pre-Iterations <==

   -------------------------------------------------------
    Irrep   Nso     Nmo     Nalpha   Nbeta   Ndocc  Nsocc
   -------------------------------------------------------
     Ag        30      30       0       0       0       0
     B1g       16      16       0       0       0       0
     B2g       16      16       0       0       0       0
     B3g        7       7       0       0       0       0
     Au         7       7       0       0       0       0
     B1u       16      16       0       0       0       0
     B2u       16      16       0       0       0       0
     B3u       30      30       0       0       0       0
   -------------------------------------------------------
    Total     138     138       7       7       7       0
   -------------------------------------------------------

  ==> Integral Setup <==

  DFHelper Memory: AOs need 0.047 GiB; user supplied 0.366 GiB. Using in-core AOs.

  ==> MemDFJK: Density-Fitted J/K Matrices <==

    J tasked:                   Yes
    K tasked:                   Yes
    wK tasked:                   No
    OpenMP threads:               1
    Memory [MiB]:               375
    Algorithm:                 Core
    Schwarz Cutoff:           1E-12
    Mask sparsity (%):       0.0420
    Fitting Condition:        1E-10

   => Auxiliary Basis Set <=

  Basis Set: (AUG-CC-PVTZ AUX)
    Blend: AUG-CC-PVTZ-JKFIT
    Number of shells: 88
    Number of basis function: 300
    Number of Cartesian functions: 372
    Spherical Harmonics?: true
    Max angular momentum: 4

  Minimum eigenvalue in the overlap matrix is 9.1550632594E-06.
  Using Symmetric Orthogonalization.

  SCF Guess: Superposition of Atomic Densities via on-the-fly atomic UHF.

  ==> Iterations <==

                           Total Energy        Delta E     RMS |[F,P]|

   @DF-RHF iter SAD:   -75.85137118630655   -7.58514e+01   0.00000e+00 
   @DF-RHF iter   1:   -76.79956036564043   -9.48189e-01   5.54849e-03 DIIS
   @DF-RHF iter   2:   -76.84014496003456   -4.05846e-02   1.94973e-03 DIIS
   @DF-RHF iter   3:   -76.84559766635655   -5.45271e-03   2.24846e-04 DIIS
   @DF-RHF iter   4:   -76.84575243485136   -1.54768e-04   2.52926e-05 DIIS
   @DF-RHF iter   5:   -76.84575458183231   -2.14698e-06   4.07950e-06 DIIS
   @DF-RHF iter   6:   -76.84575463810947   -5.62772e-08   7.38342e-07 DIIS
   @DF-RHF iter   7:   -76.84575464015563   -2.04616e-09   1.26571e-07 DIIS
   @DF-RHF iter   8:   -76.84575464023095   -7.53175e-11   1.27431e-08 DIIS
   @DF-RHF iter   9:   -76.84575464023160   -6.53699e-13   1.45199e-09 DIIS
  Energy and wave function converged.


  ==> Post-Iterations <==

    Orbital Energies [Eh]
    ---------------------

    Doubly Occupied:                                                      

       1Ag   -11.253582     1B3u  -11.250330     2Ag    -1.022834  
       2B3u   -0.767057     3Ag    -0.676898     1B1u   -0.405335  
       1B2u   -0.405335  

    Virtual:                                                              

       4Ag     0.030947     3B3u    0.032437     1B1g    0.091836  
       1B2g    0.091836     2B1u    0.096398     2B2u    0.096398  
       5Ag     0.107472     4B3u    0.110718     6Ag     0.143083  
       2B1g    0.185709     2B2g    0.185709     5B3u    0.225360  
       6B3u    0.256536     3B2u    0.275640     3B1u    0.275640  
       7Ag     0.280943     1B3g    0.300265     8Ag     0.300265  
       9Ag     0.377084     3B2g    0.384507     3B1g    0.384507  
       7B3u    0.399556     1Au     0.399556    10Ag     0.412637  
       8B3u    0.412950     4B1g    0.423818     4B2g    0.423818  
       4B2u    0.493019     4B1u    0.493019     9B3u    0.509801  
      10B3u    0.586117     5B2u    0.598104     5B1u    0.598104  
      11Ag     0.658648     5B1g    0.842495     5B2g    0.842495  
      12Ag     0.886636     2B3g    0.893251    13Ag     0.893251  
      11B3u    0.899851     6B1u    0.933760     6B2u    0.933760  
      14Ag     0.981516     3B3g    1.006387    15Ag     1.006387  
      12B3u    1.024713     2Au     1.024713     6B1g    1.027004  
       6B2g    1.027004    13B3u    1.028834     7B1u    1.052091  
       7B2u    1.052091    16Ag     1.137419     8B2u    1.175788  
       8B1u    1.175788    14B3u    1.193961     3Au     1.193961  
      15B3u    1.199053     7B1g    1.293965     7B2g    1.293965  
      16B3u    1.347760     8B1g    1.387561     8B2g    1.387561  
       9B2u    1.574427     9B1u    1.574427     4B3g    1.626890  
      17Ag     1.626890     9B1g    1.763383     9B2g    1.763383  
      18Ag     1.776384    10B2u    1.899737    10B1u    1.899737  
      17B3u    1.931374    18B3u    2.019255     4Au     2.019255  
      19Ag     2.022236    19B3u    2.147063    20Ag     2.206309  
      10B1g    2.344213    10B2g    2.344213    20B3u    2.789273  
      11B1u    2.804534    11B2u    2.804534    21Ag     3.006900  
      21B3u    3.088163     5B3g    3.179933    22Ag     3.179933  
      11B1g    3.194660    11B2g    3.194660    12B2u    3.315516  
      12B1u    3.315516    13B2u    3.369499    13B1u    3.369499  
      22B3u    3.446899     5Au     3.446899    23Ag     3.566191  
       6B3g    3.566191    24Ag     3.595342    12B1g    3.687653  
      12B2g    3.687653    25Ag     3.720712    14B2u    3.782149  
      14B1u    3.782149    13B1g    3.855984    13B2g    3.855984  
      23B3u    3.870619    24B3u    4.086547     6Au     4.086547  
      26Ag     4.146694     7B3g    4.146694    25B3u    4.315780  
      26B3u    4.632695     7Au     4.632695    27Ag     4.637104  
      15B2u    4.746933    15B1u    4.746933    14B1g    4.758669  
      14B2g    4.758669    15B1g    4.979582    15B2g    4.979582  
      27B3u    5.256231    28Ag     5.371839    16B2u    5.768353  
      16B1u    5.768353    28B3u    6.163929    29B3u    6.686617  
      16B1g    6.729164    16B2g    6.729164    29Ag     6.895249  
      30Ag    13.446464    30B3u   18.919517  

    Final Occupation by Irrep:
             Ag   B1g   B2g   B3g    Au   B1u   B2u   B3u 
    DOCC [     3,    0,    0,    0,    0,    1,    1,    2 ]

  @DF-RHF Final Energy:   -76.84575464023160

   => Energetics <=

    Nuclear Repulsion Energy =             24.3232181713792350
    One-Electron Energy =                -150.7752015293806380
    Two-Electron Energy =                  49.6062287177698025
    Total Energy =                        -76.8457546402316041

Computation Completed


Properties will be evaluated at   0.000000,   0.000000,   0.000000 [a0]

Properties computed using the SCF density matrix

  Nuclear Dipole Moment: [e a0]
     X:     0.0000      Y:     0.0000      Z:     0.0000

  Electronic Dipole Moment: [e a0]
     X:     0.0000      Y:     0.0000      Z:     0.0000

  Dipole Moment: [e a0]
     X:     0.0000      Y:     0.0000      Z:     0.0000     Total:     0.0000

  Dipole Moment: [D]
     X:     0.0000      Y:     0.0000      Z:     0.0000     Total:     0.0000


*** tstop() called on atlantis at Tue Apr 19 00:51:20 2022
Module time:
	user time   =       0.73 seconds =       0.01 minutes
	system time =       0.01 seconds =       0.00 minutes
	total time  =          1 seconds =       0.02 minutes
Total time:
	user time   =       1.43 seconds =       0.02 minutes
	system time =       0.03 seconds =       0.00 minutes
	total time  =          2 seconds =       0.03 minutes

*** tstart() called on atlantis
*** at Tue Apr 19 00:51:20 2022


         ------------------------------------------------------------
                                   SCF GRAD                          
                          Rob Parrish, Justin Turney,                
                       Andy Simmonett, and Alex Sokolov              
         ------------------------------------------------------------

  ==> Geometry <==

    Molecular point group: d2h
    Full point group: D_inf_h

    Geometry (in Angstrom), charge = 0, multiplicity = 1:

       Center              X                  Y                   Z               Mass       
    ------------   -----------------  -----------------  -----------------  -----------------
         C           -0.614460000000    -0.000000000000     0.000000000000    12.000000000000
         C            0.614460000000     0.000000000000     0.000000000000    12.000000000000
         H           -1.689230000000    -0.000000000000     0.000000000000     1.007825032230
         H            1.689230000000     0.000000000000     0.000000000000     1.007825032230

  Nuclear repulsion =   24.323218171379235

  ==> Basis Set <==

  Basis Set: AUG-CC-PVTZ
    Blend: AUG-CC-PVTZ
    Number of shells: 46
    Number of basis function: 138
    Number of Cartesian functions: 160
    Spherical Harmonics?: true
    Max angular momentum: 3

  ==> DFJKGrad: Density-Fitted SCF Gradients <==

    Gradient:                    1
    J tasked:                  Yes
    K tasked:                  Yes
    wK tasked:                  No
    OpenMP threads:              1
    Integrals threads:           1
    Memory [MiB]:              375
    Schwarz Cutoff:          0E+00
    Fitting Condition:       1E-10

   => Auxiliary Basis Set <=

  Basis Set: (AUG-CC-PVTZ AUX)
    Blend: AUG-CC-PVTZ-JKFIT
    Number of shells: 88
    Number of basis function: 300
    Number of Cartesian functions: 372
    Spherical Harmonics?: true
    Max angular momentum: 4


  -Total Gradient:
     Atom            X                  Y                   Z
    ------   -----------------  -----------------  -----------------
       1       -0.086335566021    -0.000000000000     0.000000000000
       2        0.086335566021     0.000000000000     0.000000000000
       3       -0.015992145643    -0.000000000000     0.000000000000
       4        0.015992145643     0.000000000000     0.000000000000


*** tstop() called on atlantis at Tue Apr 19 00:51:21 2022
Module time:
	user time   =       0.86 seconds =       0.01 minutes
	system time =       0.02 seconds =       0.00 minutes
	total time  =          1 seconds =       0.02 minutes
Total time:
	user time   =       2.29 seconds =       0.04 minutes
	system time =       0.05 seconds =       0.00 minutes
	total time  =          3 seconds =       0.05 minutes

  Based on options and gradient (rms=3.58E-02), recommend projecting translations and not projecting rotations.
hessian() will perform analytic frequency computation.

*** tstart() called on atlantis
*** at Tue Apr 19 00:51:21 2022

   => Loading Basis Set <=

    Name: AUG-CC-PVTZ
    Role: ORBITAL
    Keyword: BASIS
    atoms 1-2 entry C          line   235 file /home/akrom/software/anaconda3/envs/ffpenv/share/psi4/basis/aug-cc-pvtz.gbs 
    atoms 3-4 entry H          line    36 file /home/akrom/software/anaconda3/envs/ffpenv/share/psi4/basis/aug-cc-pvtz.gbs 


         ---------------------------------------------------------
                                   SCF
               by Justin Turney, Rob Parrish, Andy Simmonett
                          and Daniel G. A. Smith
                              RHF Reference
                        1 Threads,    500 MiB Core
         ---------------------------------------------------------

  ==> Geometry <==

    Molecular point group: d2h
    Full point group: D_inf_h

    Geometry (in Angstrom), charge = 0, multiplicity = 1:

       Center              X                  Y                   Z               Mass       
    ------------   -----------------  -----------------  -----------------  -----------------
         C           -0.614460000000    -0.000000000000     0.000000000000    12.000000000000
         C            0.614460000000     0.000000000000     0.000000000000    12.000000000000
         H           -1.689230000000    -0.000000000000     0.000000000000     1.007825032230
         H            1.689230000000     0.000000000000     0.000000000000     1.007825032230

  Running in d2h symmetry.

  Rotational constants: A = ************  B =      1.13802  C =      1.13802 [cm^-1]
  Rotational constants: A = ************  B =  34116.98697  C =  34116.98697 [MHz]
  Nuclear repulsion =   24.323218171379235

  Charge       = 0
  Multiplicity = 1
  Electrons    = 14
  Nalpha       = 7
  Nbeta        = 7

  ==> Algorithm <==

  SCF Algorithm Type is DF.
  DIIS enabled.
  MOM disabled.
  Fractional occupation disabled.
  Guess Type is SAD.
  Energy threshold   = 1.00e-08
  Density threshold  = 1.00e-08
  Integral threshold = 0.00e+00

  ==> Primary Basis <==

  Basis Set: AUG-CC-PVTZ
    Blend: AUG-CC-PVTZ
    Number of shells: 46
    Number of basis function: 138
    Number of Cartesian functions: 160
    Spherical Harmonics?: true
    Max angular momentum: 3

   => Loading Basis Set <=

    Name: (AUG-CC-PVTZ AUX)
    Role: JKFIT
    Keyword: DF_BASIS_SCF
    atoms 1-2 entry C          line   162 file /home/akrom/software/anaconda3/envs/ffpenv/share/psi4/basis/aug-cc-pvtz-jkfit.gbs 
    atoms 3-4 entry H          line    70 file /home/akrom/software/anaconda3/envs/ffpenv/share/psi4/basis/aug-cc-pvtz-jkfit.gbs 

  ==> Pre-Iterations <==

   -------------------------------------------------------
    Irrep   Nso     Nmo     Nalpha   Nbeta   Ndocc  Nsocc
   -------------------------------------------------------
     Ag        30      30       0       0       0       0
     B1g       16      16       0       0       0       0
     B2g       16      16       0       0       0       0
     B3g        7       7       0       0       0       0
     Au         7       7       0       0       0       0
     B1u       16      16       0       0       0       0
     B2u       16      16       0       0       0       0
     B3u       30      30       0       0       0       0
   -------------------------------------------------------
    Total     138     138       7       7       7       0
   -------------------------------------------------------

  ==> Integral Setup <==

  DFHelper Memory: AOs need 0.047 GiB; user supplied 0.366 GiB. Using in-core AOs.

  ==> MemDFJK: Density-Fitted J/K Matrices <==

    J tasked:                   Yes
    K tasked:                   Yes
    wK tasked:                   No
    OpenMP threads:               1
    Memory [MiB]:               375
    Algorithm:                 Core
    Schwarz Cutoff:           1E-12
    Mask sparsity (%):       0.0420
    Fitting Condition:        1E-10

   => Auxiliary Basis Set <=

  Basis Set: (AUG-CC-PVTZ AUX)
    Blend: AUG-CC-PVTZ-JKFIT
    Number of shells: 88
    Number of basis function: 300
    Number of Cartesian functions: 372
    Spherical Harmonics?: true
    Max angular momentum: 4

  Minimum eigenvalue in the overlap matrix is 9.1550632594E-06.
  Using Symmetric Orthogonalization.

  SCF Guess: Superposition of Atomic Densities via on-the-fly atomic UHF.

  ==> Iterations <==

                           Total Energy        Delta E     RMS |[F,P]|

   @DF-RHF iter SAD:   -75.85137118630655   -7.58514e+01   0.00000e+00 
   @DF-RHF iter   1:   -76.79956036564043   -9.48189e-01   5.54849e-03 DIIS
   @DF-RHF iter   2:   -76.84014496003456   -4.05846e-02   1.94973e-03 DIIS
   @DF-RHF iter   3:   -76.84559766635655   -5.45271e-03   2.24846e-04 DIIS
   @DF-RHF iter   4:   -76.84575243485136   -1.54768e-04   2.52926e-05 DIIS
   @DF-RHF iter   5:   -76.84575458183231   -2.14698e-06   4.07950e-06 DIIS
   @DF-RHF iter   6:   -76.84575463810947   -5.62772e-08   7.38342e-07 DIIS
   @DF-RHF iter   7:   -76.84575464015563   -2.04616e-09   1.26571e-07 DIIS
   @DF-RHF iter   8:   -76.84575464023095   -7.53175e-11   1.27431e-08 DIIS
   @DF-RHF iter   9:   -76.84575464023160   -6.53699e-13   1.45199e-09 DIIS
  Energy and wave function converged.


  ==> Post-Iterations <==

    Orbital Energies [Eh]
    ---------------------

    Doubly Occupied:                                                      

       1Ag   -11.253582     1B3u  -11.250330     2Ag    -1.022834  
       2B3u   -0.767057     3Ag    -0.676898     1B1u   -0.405335  
       1B2u   -0.405335  

    Virtual:                                                              

       4Ag     0.030947     3B3u    0.032437     1B1g    0.091836  
       1B2g    0.091836     2B1u    0.096398     2B2u    0.096398  
       5Ag     0.107472     4B3u    0.110718     6Ag     0.143083  
       2B1g    0.185709     2B2g    0.185709     5B3u    0.225360  
       6B3u    0.256536     3B2u    0.275640     3B1u    0.275640  
       7Ag     0.280943     1B3g    0.300265     8Ag     0.300265  
       9Ag     0.377084     3B2g    0.384507     3B1g    0.384507  
       7B3u    0.399556     1Au     0.399556    10Ag     0.412637  
       8B3u    0.412950     4B1g    0.423818     4B2g    0.423818  
       4B2u    0.493019     4B1u    0.493019     9B3u    0.509801  
      10B3u    0.586117     5B2u    0.598104     5B1u    0.598104  
      11Ag     0.658648     5B1g    0.842495     5B2g    0.842495  
      12Ag     0.886636     2B3g    0.893251    13Ag     0.893251  
      11B3u    0.899851     6B1u    0.933760     6B2u    0.933760  
      14Ag     0.981516     3B3g    1.006387    15Ag     1.006387  
      12B3u    1.024713     2Au     1.024713     6B1g    1.027004  
       6B2g    1.027004    13B3u    1.028834     7B1u    1.052091  
       7B2u    1.052091    16Ag     1.137419     8B2u    1.175788  
       8B1u    1.175788    14B3u    1.193961     3Au     1.193961  
      15B3u    1.199053     7B1g    1.293965     7B2g    1.293965  
      16B3u    1.347760     8B1g    1.387561     8B2g    1.387561  
       9B2u    1.574427     9B1u    1.574427     4B3g    1.626890  
      17Ag     1.626890     9B1g    1.763383     9B2g    1.763383  
      18Ag     1.776384    10B2u    1.899737    10B1u    1.899737  
      17B3u    1.931374    18B3u    2.019255     4Au     2.019255  
      19Ag     2.022236    19B3u    2.147063    20Ag     2.206309  
      10B1g    2.344213    10B2g    2.344213    20B3u    2.789273  
      11B1u    2.804534    11B2u    2.804534    21Ag     3.006900  
      21B3u    3.088163     5B3g    3.179933    22Ag     3.179933  
      11B1g    3.194660    11B2g    3.194660    12B2u    3.315516  
      12B1u    3.315516    13B2u    3.369499    13B1u    3.369499  
      22B3u    3.446899     5Au     3.446899    23Ag     3.566191  
       6B3g    3.566191    24Ag     3.595342    12B1g    3.687653  
      12B2g    3.687653    25Ag     3.720712    14B2u    3.782149  
      14B1u    3.782149    13B1g    3.855984    13B2g    3.855984  
      23B3u    3.870619    24B3u    4.086547     6Au     4.086547  
      26Ag     4.146694     7B3g    4.146694    25B3u    4.315780  
      26B3u    4.632695     7Au     4.632695    27Ag     4.637104  
      15B2u    4.746933    15B1u    4.746933    14B1g    4.758669  
      14B2g    4.758669    15B1g    4.979582    15B2g    4.979582  
      27B3u    5.256231    28Ag     5.371839    16B2u    5.768353  
      16B1u    5.768353    28B3u    6.163929    29B3u    6.686617  
      16B1g    6.729164    16B2g    6.729164    29Ag     6.895249  
      30Ag    13.446464    30B3u   18.919517  

    Final Occupation by Irrep:
             Ag   B1g   B2g   B3g    Au   B1u   B2u   B3u 
    DOCC [     3,    0,    0,    0,    0,    1,    1,    2 ]

  @DF-RHF Final Energy:   -76.84575464023160

   => Energetics <=

    Nuclear Repulsion Energy =             24.3232181713792350
    One-Electron Energy =                -150.7752015293806380
    Two-Electron Energy =                  49.6062287177698025
    Total Energy =                        -76.8457546402316041

Computation Completed


Properties will be evaluated at   0.000000,   0.000000,   0.000000 [a0]

Properties computed using the SCF density matrix

  Nuclear Dipole Moment: [e a0]
     X:     0.0000      Y:     0.0000      Z:     0.0000

  Electronic Dipole Moment: [e a0]
     X:     0.0000      Y:     0.0000      Z:     0.0000

  Dipole Moment: [e a0]
     X:     0.0000      Y:     0.0000      Z:     0.0000     Total:     0.0000

  Dipole Moment: [D]
     X:     0.0000      Y:     0.0000      Z:     0.0000     Total:     0.0000


*** tstop() called on atlantis at Tue Apr 19 00:51:21 2022
Module time:
	user time   =       0.74 seconds =       0.01 minutes
	system time =       0.01 seconds =       0.00 minutes
	total time  =          0 seconds =       0.00 minutes
Total time:
	user time   =       3.03 seconds =       0.05 minutes
	system time =       0.06 seconds =       0.00 minutes
	total time  =          3 seconds =       0.05 minutes

*** tstart() called on atlantis
*** at Tue Apr 19 00:51:21 2022


         ------------------------------------------------------------
                                   SCF HESS                          
                          Rob Parrish, Justin Turney,                
                       Andy Simmonett, and Alex Sokolov              
         ------------------------------------------------------------

  ==> Geometry <==

    Molecular point group: d2h
    Full point group: D_inf_h

    Geometry (in Angstrom), charge = 0, multiplicity = 1:

       Center              X                  Y                   Z               Mass       
    ------------   -----------------  -----------------  -----------------  -----------------
         C           -0.614460000000    -0.000000000000     0.000000000000    12.000000000000
         C            0.614460000000     0.000000000000     0.000000000000    12.000000000000
         H           -1.689230000000    -0.000000000000     0.000000000000     1.007825032230
         H            1.689230000000     0.000000000000     0.000000000000     1.007825032230

  Nuclear repulsion =   24.323218171379235

  ==> Basis Set <==

  Basis Set: AUG-CC-PVTZ
    Blend: AUG-CC-PVTZ
    Number of shells: 46
    Number of basis function: 138
    Number of Cartesian functions: 160
    Spherical Harmonics?: true
    Max angular momentum: 3

  ==> DFJKGrad: Density-Fitted SCF Gradients <==

    Gradient:                    2
    J tasked:                  Yes
    K tasked:                  Yes
    wK tasked:                  No
    OpenMP threads:              1
    Integrals threads:           1
    Memory [MiB]:              375
    Schwarz Cutoff:          0E+00
    Fitting Condition:       1E-10

   => Auxiliary Basis Set <=

  Basis Set: (AUG-CC-PVTZ AUX)
    Blend: AUG-CC-PVTZ-JKFIT
    Number of shells: 88
    Number of basis function: 300
    Number of Cartesian functions: 372
    Spherical Harmonics?: true
    Max angular momentum: 4

  DFHelper Memory: AOs need 0.047 GiB; user supplied 0.439 GiB. Using in-core AOs.

  ==> MemDFJK: Density-Fitted J/K Matrices <==

    J tasked:                   Yes
    K tasked:                   Yes
    wK tasked:                   No
    OpenMP threads:               1
    Memory [MiB]:               450
    Algorithm:                 Core
    Schwarz Cutoff:           1E-12
    Mask sparsity (%):       0.0420
    Fitting Condition:        1E-10

   => Auxiliary Basis Set <=

  Basis Set: (AUG-CC-PVTZ AUX)
    Blend: AUG-CC-PVTZ-JKFIT
    Number of shells: 88
    Number of basis function: 300
    Number of Cartesian functions: 372
    Spherical Harmonics?: true
    Max angular momentum: 4


         ------------------------------------------------------------
                                     CPHF                           
                                  Rob Parrish                       
         ------------------------------------------------------------

  ==> Geometry <==

    Molecular point group: d2h
    Full point group: D_inf_h

    Geometry (in Angstrom), charge = 0, multiplicity = 1:

       Center              X                  Y                   Z               Mass       
    ------------   -----------------  -----------------  -----------------  -----------------
         C           -0.614460000000    -0.000000000000     0.000000000000    12.000000000000
         C            0.614460000000     0.000000000000     0.000000000000    12.000000000000
         H           -1.689230000000    -0.000000000000     0.000000000000     1.007825032230
         H            1.689230000000     0.000000000000     0.000000000000     1.007825032230

  Nuclear repulsion =   24.323218171379235
  Reference energy  =  -76.845754640231604

  ==> Basis Set <==

  Basis Set: AUG-CC-PVTZ
    Blend: AUG-CC-PVTZ
    Number of shells: 46
    Number of basis function: 138
    Number of Cartesian functions: 160
    Spherical Harmonics?: true
    Max angular momentum: 3

  ==> CGRSolver (by Rob Parrish) <==

   Number of roots    =        12
   Preconditioning    =    JACOBI
   Convergence cutoff =     1E-06
   Maximum iterations =       100

  ==> CPHFRHamiltonian (by Rob Parrish) <== 

  ==> MemDFJK: Density-Fitted J/K Matrices <==

    J tasked:                   Yes
    K tasked:                   Yes
    wK tasked:                   No
    OpenMP threads:               1
    Memory [MiB]:               450
    Algorithm:                 Core
    Schwarz Cutoff:           1E-12
    Mask sparsity (%):       0.0420
    Fitting Condition:        1E-10

   => Auxiliary Basis Set <=

  Basis Set: (AUG-CC-PVTZ AUX)
    Blend: AUG-CC-PVTZ-JKFIT
    Number of shells: 88
    Number of basis function: 300
    Number of Cartesian functions: 372
    Spherical Harmonics?: true
    Max angular momentum: 4

  ==> CPHF Iterations <==

  => Iterations <=

             Iter  Converged  Remaining    Residual
  CGR           1          0         12   9.462E-02
  CGR           2          0         12   2.808E-02
  CGR           3          0         12   5.592E-03
  CGR           4          0         12   9.410E-04
  CGR           5          0         12   1.431E-04
  CGR           6          0         12   2.279E-05
  CGR           7          4          8   2.275E-06
  CGR           8         12          0   4.049E-07

    CGRSolver converged.


*** tstop() called on atlantis at Tue Apr 19 01:58:07 2022
Module time:
	user time   =    4004.00 seconds =      66.73 minutes
	system time =       0.16 seconds =       0.00 minutes
	total time  =       4006 seconds =      66.77 minutes
Total time:
	user time   =    4007.03 seconds =      66.78 minutes
	system time =       0.22 seconds =       0.00 minutes
	total time  =       4009 seconds =      66.82 minutes


  ==> Harmonic Vibrational Analysis <==

  non-mass-weighted Hessian:       Symmetric? True   Hermitian? True   Lin Dep Dim?  0 (0)
  projection of translations (True) and rotations (False) removed 3 degrees of freedom (5)
  total projector:                 Symmetric? True   Hermitian? True   Lin Dep Dim?  3 (3)
  mass-weighted Hessian:           Symmetric? True   Hermitian? True   Lin Dep Dim?  0 (0)
  pre-proj  low-frequency mode:    0.0000i [cm^-1]
  pre-proj  low-frequency mode:    0.0356  [cm^-1]
  pre-proj  low-frequency mode:    0.0458  [cm^-1]
  pre-proj  low-frequency mode:  388.2523  [cm^-1]
  pre-proj  low-frequency mode:  388.2523  [cm^-1]
  pre-proj  all modes:['0.0505i' '0.0356' '0.0458' '388.2523' '388.2523' '864.0007' '864.0007'
 '952.5290' '952.5290' '1940.7584' '3359.3427' '3451.4875']
  projected mass-weighted Hessian: Symmetric? True   Hermitian? True   Lin Dep Dim?  3 (3)
  post-proj low-frequency mode:    0.0000i [cm^-1] (TR)
  post-proj low-frequency mode:    0.0000  [cm^-1] (TR)
  post-proj low-frequency mode:    0.0000  [cm^-1] (TR)
  post-proj low-frequency mode:  388.2523  [cm^-1] (V)
  post-proj low-frequency mode:  388.2523  [cm^-1] (V)
  post-proj  all modes:['0.0000i' '0.0000' '0.0000' '388.2523' '388.2523' '864.0007' '864.0007'
 '952.5290' '952.5290' '1940.7584' '3359.3427' '3451.4875']

  Note that "Vibration"s include 2 un-projected rotation-like modes.
  Vibration                       4                   5                   6           
  Freq [cm^-1]                 388.2523            388.2523            864.0007       
  Irrep                                                                               
  Reduced mass [u]              2.1746              2.1746              1.6241        
  Force const [mDyne/A]         0.1931              0.1931              0.7143        
  Turning point v=0 [a0]        0.3776              0.3776              0.2929        
  RMS dev v=0 [a0 u^1/2]        0.3938              0.3938              0.2640        
  IR activ [km/mol]             0.0000              0.0000              0.0000        
  Char temp [K]                558.6086            558.6087           1243.1046       
  ----------------------------------------------------------------------------------
      1   C               -0.00 -0.00  0.23    0.00  0.23  0.00    0.00 -0.17 -0.00   
      2   C                0.00  0.00 -0.23   -0.00 -0.23 -0.00   -0.00  0.17  0.00   
      3   H                0.00 -0.00  0.67    0.00  0.67  0.00   -0.00  0.69  0.01   
      4   H                0.00  0.00 -0.67    0.00 -0.67 -0.00   -0.00 -0.69 -0.01   

  Vibration                       7                   8                   9           
  Freq [cm^-1]                 864.0007            952.5290            952.5290       
  Irrep                                              B1u                 B2u          
  Reduced mass [u]              1.6241              1.0848              1.0848        
  Force const [mDyne/A]         0.7143              0.5799              0.5799        
  Turning point v=0 [a0]        0.2929              0.3413              0.3413        
  RMS dev v=0 [a0 u^1/2]        0.2640              0.2514              0.2514        
  IR activ [km/mol]             0.0000             118.1641            118.1641       
  Char temp [K]               1243.1046           1370.4772           1370.4772       
  ----------------------------------------------------------------------------------
      1   C               -0.00  0.00 -0.17    0.00  0.00 -0.06    0.00 -0.06 -0.00   
      2   C                0.00 -0.00  0.17    0.00  0.00 -0.06    0.00 -0.06 -0.00   
      3   H               -0.00 -0.01  0.69   -0.00 -0.00  0.70   -0.00  0.70  0.00   
      4   H                0.00  0.01 -0.69   -0.00 -0.00  0.70   -0.00  0.70  0.00   

  Vibration                       10                  11                  12          
  Freq [cm^-1]                1940.7584           3359.3427           3451.4875       
  Irrep                           Ag                 B3u                  Ag          
  Reduced mass [u]              4.0463              1.0848              1.2071        
  Force const [mDyne/A]         8.9794              7.2130              8.4724        
  Turning point v=0 [a0]        0.1238              0.1818              0.1700        
  RMS dev v=0 [a0 u^1/2]        0.1761              0.1339              0.1321        
  IR activ [km/mol]             0.0000             114.2494             0.0000        
  Char temp [K]               2792.3193           4833.3462           4965.9220       
  ----------------------------------------------------------------------------------
      1   C                0.37  0.00 -0.00   -0.06 -0.00 -0.00   -0.10 -0.00 -0.00   
      2   C               -0.37 -0.00  0.00   -0.06  0.00  0.00    0.10  0.00  0.00   
      3   H                0.60 -0.00  0.00    0.70  0.00  0.00    0.70  0.00  0.00   
      4   H               -0.60  0.00 -0.00    0.70  0.00  0.00   -0.70 -0.00 -0.00   

  ==> Thermochemistry Components <==

  Entropy, S
    Electronic S            0.000 [cal/(mol K)]        0.000 [J/(mol K)]       0.00000000 [mEh/K] (multiplicity = 1)
    Translational S        35.704 [cal/(mol K)]      149.387 [J/(mol K)]       0.05689862 [mEh/K] (mol. weight = 26.0157 [u], P = 101325.00 [Pa])
    Rotational S           10.952 [cal/(mol K)]       45.824 [J/(mol K)]       0.01745345 [mEh/K] (symmetry no. = 2)
    Vibrational S           2.564 [cal/(mol K)]       10.728 [J/(mol K)]       0.00408609 [mEh/K]
  Total S                  49.221 [cal/(mol K)]      205.939 [J/(mol K)]       0.07843816 [mEh/K]
  Correction S              0.000 [cal/(mol K)]        0.000 [J/(mol K)]       0.00000000 [mEh/K]

  Constant volume heat capacity, Cv
    Electronic Cv           0.000 [cal/(mol K)]        0.000 [J/(mol K)]       0.00000000 [mEh/K]
    Translational Cv        2.981 [cal/(mol K)]       12.472 [J/(mol K)]       0.00475022 [mEh/K]
    Rotational Cv           1.987 [cal/(mol K)]        8.314 [J/(mol K)]       0.00316681 [mEh/K]
    Vibrational Cv          4.972 [cal/(mol K)]       20.803 [J/(mol K)]       0.00792330 [mEh/K]
  Total Cv                  9.940 [cal/(mol K)]       41.589 [J/(mol K)]       0.01584033 [mEh/K]
  Correction Cv             0.000 [cal/(mol K)]        0.000 [J/(mol K)]       0.00000000 [mEh/K]

  Constant pressure heat capacity, Cp
    Electronic Cp           0.000 [cal/(mol K)]        0.000 [J/(mol K)]       0.00000000 [mEh/K]
    Translational Cp        4.968 [cal/(mol K)]       20.786 [J/(mol K)]       0.00791703 [mEh/K]
    Rotational Cp           1.987 [cal/(mol K)]        8.314 [J/(mol K)]       0.00316681 [mEh/K]
    Vibrational Cp          4.972 [cal/(mol K)]       20.803 [J/(mol K)]       0.00792330 [mEh/K]
  Total Cp                 11.927 [cal/(mol K)]       49.903 [J/(mol K)]       0.01900714 [mEh/K]
  Correction Cp             0.000 [cal/(mol K)]        0.000 [J/(mol K)]       0.00000000 [mEh/K]

  ==> Thermochemistry Energy Analysis <==

  Raw electronic energy, E0
  Total E0, Electronic energy at well bottom at 0 [K]                  -76.84575464 [Eh]

  Zero-point energy, ZPE_vib = Sum_i nu_i / 2
    Electronic ZPE          0.000 [kcal/mol]        0.000 [kJ/mol]       0.00000000 [Eh]
    Translational ZPE       0.000 [kcal/mol]        0.000 [kJ/mol]       0.00000000 [Eh]
    Rotational ZPE          0.000 [kcal/mol]        0.000 [kJ/mol]       0.00000000 [Eh]
    Vibrational ZPE        18.815 [kcal/mol]       78.721 [kJ/mol]       0.02998331 [Eh]        6580.576 [cm^-1]
  Correction ZPE           18.815 [kcal/mol]       78.721 [kJ/mol]       0.02998331 [Eh]        6580.576 [cm^-1]
  Total ZPE, Electronic energy at 0 [K]                                -76.81577133 [Eh]

  Thermal Energy, E (includes ZPE)
    Electronic E            0.000 [kcal/mol]        0.000 [kJ/mol]       0.00000000 [Eh]
    Translational E         0.889 [kcal/mol]        3.718 [kJ/mol]       0.00141628 [Eh]
    Rotational E            0.592 [kcal/mol]        2.479 [kJ/mol]       0.00094418 [Eh]
    Vibrational E          19.351 [kcal/mol]       80.965 [kJ/mol]       0.03083808 [Eh]
  Correction E             20.832 [kcal/mol]       87.163 [kJ/mol]       0.03319854 [Eh]
  Total E, Electronic energy at  298.15 [K]                            -76.81255610 [Eh]

  Enthalpy, H_trans = E_trans + k_B * T
    Electronic H            0.000 [kcal/mol]        0.000 [kJ/mol]       0.00000000 [Eh]
    Translational H         1.481 [kcal/mol]        6.197 [kJ/mol]       0.00236046 [Eh]
    Rotational H            0.592 [kcal/mol]        2.479 [kJ/mol]       0.00094418 [Eh]
    Vibrational H          19.351 [kcal/mol]       80.965 [kJ/mol]       0.03083808 [Eh]
  Correction H             21.425 [kcal/mol]       89.642 [kJ/mol]       0.03414273 [Eh]
  Total H, Enthalpy at  298.15 [K]                                     -76.81161191 [Eh]

  Gibbs free energy, G = H - T * S
    Electronic G            0.000 [kcal/mol]        0.000 [kJ/mol]       0.00000000 [Eh]
    Translational G        -9.164 [kcal/mol]      -38.342 [kJ/mol]      -0.01460386 [Eh]
    Rotational G           -2.673 [kcal/mol]      -11.183 [kJ/mol]      -0.00425956 [Eh]
    Vibrational G          18.587 [kcal/mol]       77.767 [kJ/mol]       0.02961981 [Eh]
  Correction G              6.750 [kcal/mol]       28.241 [kJ/mol]       0.01075639 [Eh]
  Total G, Free enthalpy at  298.15 [K]                                -76.83499825 [Eh]

    Psi4 stopped on: Tuesday, 19 April 2022 01:58AM
    Psi4 wall time for execution: 1:06:49.20

*** Psi4 exiting successfully. Buy a developer a beer!
