
    -----------------------------------------------------------------------
          Psi4: An Open-Source Ab Initio Electronic Structure Package
                               Psi4 1.3.2 release

                         Git: Rev {HEAD} ecbda83 


    R. M. Parrish, L. A. Burns, D. G. A. Smith, A. C. Simmonett,
    A. E. DePrince III, E. G. Hohenstein, U. Bozkaya, A. Yu. Sokolov,
    R. Di Remigio, R. M. Richard, J. F. Gonthier, A. M. James,
    H. R. McAlexander, A. Kumar, M. Saitow, X. Wang, B. P. Pritchard,
    P. Verma, H. F. Schaefer III, K. Patkowski, R. A. King, E. F. Valeev,
    F. A. Evangelista, J. M. Turney, T. D. Crawford, and C. D. Sherrill,
    J. Chem. Theory Comput. 13(7) pp 3185--3197 (2017).
    (doi: 10.1021/acs.jctc.7b00174)


                         Additional Contributions by
    P. Kraus, H. Kruse, M. H. Lechner, M. C. Schieber, R. A. Shaw,
    A. Alenaizan, R. Galvelis, Z. L. Glick, S. Lehtola, and J. P. Misiewicz

    -----------------------------------------------------------------------


    Psi4 started on: Tuesday, 19 April 2022 10:15AM

    Process ID: 28210
    Host:       atlantis
    PSIDATADIR: /home/akrom/software/anaconda3/envs/ffpenv/share/psi4
    Memory:     500.0 MiB
    Threads:    1
    
  ==> Input File <==

--------------------------------------------------------------------------
set basis  6-31+G*
molecule {
0 1
   C        0.32153        0.81326        0.00000
   C       -0.86505       -0.12817        0.00000
   C        0.54353       -0.68508        0.00000
   H        0.53795        1.36069       -0.92039
   H        0.53795        1.36069        0.92039
   H       -1.44742       -0.21449        0.92034
   H       -1.44742       -0.21449       -0.92034
   H        0.90937       -1.14629       -0.92037
   H        0.90937       -1.14629        0.92037
}
energy('m06-2x')
frequencies('m06-2x')
--------------------------------------------------------------------------

*** tstart() called on atlantis
*** at Tue Apr 19 10:15:26 2022

   => Loading Basis Set <=

    Name: 6-31+G*
    Role: ORBITAL
    Keyword: BASIS
    atoms 1-3 entry C          line   119 file /home/akrom/software/anaconda3/envs/ffpenv/share/psi4/basis/6-31pgs.gbs 
    atoms 4-9 entry H          line    46 file /home/akrom/software/anaconda3/envs/ffpenv/share/psi4/basis/6-31pgs.gbs 


         ---------------------------------------------------------
                                   SCF
               by Justin Turney, Rob Parrish, Andy Simmonett
                          and Daniel G. A. Smith
                              RKS Reference
                        1 Threads,    500 MiB Core
         ---------------------------------------------------------

  ==> Geometry <==

    Molecular point group: cs
    Full point group: Cs

    Geometry (in Angstrom), charge = 0, multiplicity = 1:

       Center              X                  Y                   Z               Mass       
    ------------   -----------------  -----------------  -----------------  -----------------
         C            0.321531939855     0.813261460475     0.000000000000    12.000000000000
         C           -0.865048060145    -0.128168539525     0.000000000000    12.000000000000
         C            0.543531939855    -0.685078539525     0.000000000000    12.000000000000
         H            0.537951939855     1.360691460475    -0.920390000000     1.007825032230
         H            0.537951939855     1.360691460475     0.920390000000     1.007825032230
         H           -1.447418060145    -0.214488539525     0.920340000000     1.007825032230
         H           -1.447418060145    -0.214488539525    -0.920340000000     1.007825032230
         H            0.909371939855    -1.146288539525    -0.920370000000     1.007825032230
         H            0.909371939855    -1.146288539525     0.920370000000     1.007825032230

  Running in cs symmetry.

  Rotational constants: A =      0.66472  B =      0.66470  C =      0.41647 [cm^-1]
  Rotational constants: A =  19927.70596  B =  19927.20236  C =  12485.44714 [MHz]
  Nuclear repulsion =   75.281464809014025

  Charge       = 0
  Multiplicity = 1
  Electrons    = 24
  Nalpha       = 12
  Nbeta        = 12

  ==> Algorithm <==

  SCF Algorithm Type is DF.
  DIIS enabled.
  MOM disabled.
  Fractional occupation disabled.
  Guess Type is SAD.
  Energy threshold   = 1.00e-06
  Density threshold  = 1.00e-06
  Integral threshold = 0.00e+00

  ==> Primary Basis <==

  Basis Set: 6-31+G*
    Blend: 6-31+G*
    Number of shells: 36
    Number of basis function: 69
    Number of Cartesian functions: 69
    Spherical Harmonics?: false
    Max angular momentum: 2

  ==> DFT Potential <==

   => Composite Functional: M06-2X <= 

    Hybrid M06-2X Meta-GGA XC Functional

    Y. Zhao and D. G. Truhlar,  Theor. Chem. Acc., 120, 215, 2008


    Deriv               =              1
    GGA                 =           TRUE
    Meta                =           TRUE

    Exchange Hybrid     =           TRUE
    MP2 Hybrid          =          FALSE

   => Exchange Functionals <=

    1.0000   XC_HYB_MGGA_X_M06_2X

   => Exact (HF) Exchange <=

    0.5400               HF 

   => Correlation Functionals <=

    1.0000   XC_MGGA_C_M06_2X

   => Molecular Quadrature <=

    Radial Scheme          =       TREUTLER
    Pruning Scheme         =           FLAT
    Nuclear Scheme         =       TREUTLER

    BS radius alpha        =              1
    Pruning alpha          =              1
    Radial Points          =             75
    Spherical Points       =            302
    Total Points           =         203850
    Total Blocks           =           1576
    Max Points             =            256
    Max Functions          =             69

   => Loading Basis Set <=

    Name: (6-31+G* AUX)
    Role: JKFIT
    Keyword: DF_BASIS_SCF
    atoms 1-3 entry C          line   194 file /home/akrom/software/anaconda3/envs/ffpenv/share/psi4/basis/heavy-aug-cc-pvdz-jkfit.gbs 
    atoms 4-9 entry H          line   116 file /home/akrom/software/anaconda3/envs/ffpenv/share/psi4/basis/heavy-aug-cc-pvdz-jkfit.gbs 

  ==> Pre-Iterations <==

   -------------------------------------------------------
    Irrep   Nso     Nmo     Nalpha   Nbeta   Ndocc  Nsocc
   -------------------------------------------------------
     A'        48      48       0       0       0       0
     A"        21      21       0       0       0       0
   -------------------------------------------------------
    Total      69      69      12      12      12       0
   -------------------------------------------------------

  ==> Integral Setup <==

  DFHelper Memory: AOs need 0.019 GiB; user supplied 0.019 GiB. Using in-core AOs.

  ==> MemDFJK: Density-Fitted J/K Matrices <==

    J tasked:                   Yes
    K tasked:                   Yes
    wK tasked:                   No
    OpenMP threads:               1
    Memory [MiB]:                19
    Algorithm:                 Core
    Schwarz Cutoff:           1E-12
    Mask sparsity (%):       0.0000
    Fitting Condition:        1E-10

   => Auxiliary Basis Set <=

  Basis Set: (6-31+G* AUX)
    Blend: HEAVY-AUG-CC-PVDZ-JKFIT
    Number of shells: 138
    Number of basis function: 453
    Number of Cartesian functions: 453
    Spherical Harmonics?: false
    Max angular momentum: 3

  Cached 50.0% of DFT collocation blocks in 0.477 [GiB].

  Minimum eigenvalue in the overlap matrix is 1.9505761385E-04.
  Using Symmetric Orthogonalization.

  SCF Guess: Superposition of Atomic Densities via on-the-fly atomic UHF.

  ==> Iterations <==

                           Total Energy        Delta E     RMS |[F,P]|

   @DF-RKS iter SAD:  -117.38480465401327   -1.17385e+02   0.00000e+00 
   @DF-RKS iter   1:  -117.57185083028330   -1.87046e-01   1.33976e-02 DIIS
   @DF-RKS iter   2:  -117.57876192837280   -6.91110e-03   1.31618e-02 DIIS
   @DF-RKS iter   3:  -117.83337194268617   -2.54610e-01   5.29799e-04 DIIS
   @DF-RKS iter   4:  -117.83380810142255   -4.36159e-04   6.60497e-05 DIIS
   @DF-RKS iter   5:  -117.83381960330705   -1.15019e-05   1.34190e-05 DIIS
   @DF-RKS iter   6:  -117.83382010958130   -5.06274e-07   1.37711e-06 DIIS
   @DF-RKS iter   7:  -117.83382011894673   -9.36544e-09   2.27272e-07 DIIS
  Energy and wave function converged.


  ==> Post-Iterations <==

    Orbital Energies [Eh]
    ---------------------

    Doubly Occupied:                                                      

       1Ap   -10.548910     2Ap   -10.548341     3Ap   -10.548328  
       4Ap    -0.944323     5Ap    -0.678872     6Ap    -0.678854  
       1App   -0.565778     7Ap    -0.528685     2App   -0.425513  
       3App   -0.425483     8Ap    -0.348833     9Ap    -0.348800  

    Virtual:                                                              

      10Ap     0.037460    11Ap     0.037461    12Ap     0.043208  
       4App    0.053166     5App    0.093291     6App    0.093294  
      13Ap     0.098134    14Ap     0.098135    15Ap     0.098993  
      16Ap     0.117534    17Ap     0.171289    18Ap     0.171296  
       7App    0.212893    19Ap     0.227064    20Ap     0.267252  
      21Ap     0.314113    22Ap     0.314139     8App    0.337763  
       9App    0.337791    23Ap     0.370005    24Ap     0.370031  
      25Ap     0.624900    10App    0.687375    26Ap     0.694199  
      27Ap     0.694227    28Ap     0.775895    29Ap     0.775918  
      30Ap     0.817530    11App    0.842032    12App    0.842085  
      31Ap     0.885068    13App    0.982234    32Ap     1.074373  
      14App    1.077291    15App    1.077473    33Ap     1.141383  
      34Ap     1.141563    35Ap     1.331038    36Ap     1.331050  
      37Ap     1.597813    16App    1.859096    17App    1.859118  
      38Ap     1.928238    39Ap     1.928330    18App    1.970134  
      19App    2.052155    40Ap     2.201779    41Ap     2.316720  
      42Ap     2.316800    20App    2.546463    21App    2.546806  
      43Ap     2.561098    44Ap     2.561257    45Ap     2.795825  
      46Ap     4.139725    47Ap     4.424235    48Ap     4.424292  

    Final Occupation by Irrep:
             Ap   App 
    DOCC [     9,    3 ]

  @DF-RKS Final Energy:  -117.83382011894673

   => Energetics <=

    Nuclear Repulsion Energy =             75.2814648090140253
    One-Electron Energy =                -305.7405467820066178
    Two-Electron Energy =                 121.5157222671314230
    DFT Exchange-Correlation Energy =      -8.8904604130855827
    Empirical Dispersion Energy =           0.0000000000000000
    VV10 Nonlocal Energy =                  0.0000000000000000
    Total Energy =                       -117.8338201189467327

Computation Completed


Properties will be evaluated at   0.000000,   0.000000,   0.000000 [a0]

Properties computed using the SCF density matrix

  Nuclear Dipole Moment: [e a0]
     X:    -0.0002      Y:    -0.0002      Z:     0.0000

  Electronic Dipole Moment: [e a0]
     X:     0.0003      Y:    -0.0000      Z:     0.0000

  Dipole Moment: [e a0]
     X:     0.0001      Y:    -0.0002      Z:     0.0000     Total:     0.0002

  Dipole Moment: [D]
     X:     0.0003      Y:    -0.0005      Z:     0.0000     Total:     0.0006


*** tstop() called on atlantis at Tue Apr 19 10:15:34 2022
Module time:
	user time   =       7.97 seconds =       0.13 minutes
	system time =       0.14 seconds =       0.00 minutes
	total time  =          8 seconds =       0.13 minutes
Total time:
	user time   =       7.97 seconds =       0.13 minutes
	system time =       0.14 seconds =       0.00 minutes
	total time  =          8 seconds =       0.13 minutes
gradient() will perform analytic gradient computation.

*** tstart() called on atlantis
*** at Tue Apr 19 10:15:34 2022

   => Loading Basis Set <=

    Name: 6-31+G*
    Role: ORBITAL
    Keyword: BASIS
    atoms 1-3 entry C          line   119 file /home/akrom/software/anaconda3/envs/ffpenv/share/psi4/basis/6-31pgs.gbs 
    atoms 4-9 entry H          line    46 file /home/akrom/software/anaconda3/envs/ffpenv/share/psi4/basis/6-31pgs.gbs 


         ---------------------------------------------------------
                                   SCF
               by Justin Turney, Rob Parrish, Andy Simmonett
                          and Daniel G. A. Smith
                              RKS Reference
                        1 Threads,    500 MiB Core
         ---------------------------------------------------------

  ==> Geometry <==

    Molecular point group: cs
    Full point group: Cs

    Geometry (in Angstrom), charge = 0, multiplicity = 1:

       Center              X                  Y                   Z               Mass       
    ------------   -----------------  -----------------  -----------------  -----------------
         C            0.321531939855     0.813261460475     0.000000000000    12.000000000000
         C           -0.865048060145    -0.128168539525     0.000000000000    12.000000000000
         C            0.543531939855    -0.685078539525     0.000000000000    12.000000000000
         H            0.537951939855     1.360691460475    -0.920390000000     1.007825032230
         H            0.537951939855     1.360691460475     0.920390000000     1.007825032230
         H           -1.447418060145    -0.214488539525     0.920340000000     1.007825032230
         H           -1.447418060145    -0.214488539525    -0.920340000000     1.007825032230
         H            0.909371939855    -1.146288539525    -0.920370000000     1.007825032230
         H            0.909371939855    -1.146288539525     0.920370000000     1.007825032230

  Running in cs symmetry.

  Rotational constants: A =      0.66472  B =      0.66470  C =      0.41647 [cm^-1]
  Rotational constants: A =  19927.70596  B =  19927.20236  C =  12485.44714 [MHz]
  Nuclear repulsion =   75.281464809014025

  Charge       = 0
  Multiplicity = 1
  Electrons    = 24
  Nalpha       = 12
  Nbeta        = 12

  ==> Algorithm <==

  SCF Algorithm Type is DF.
  DIIS enabled.
  MOM disabled.
  Fractional occupation disabled.
  Guess Type is SAD.
  Energy threshold   = 1.00e-08
  Density threshold  = 1.00e-08
  Integral threshold = 0.00e+00

  ==> Primary Basis <==

  Basis Set: 6-31+G*
    Blend: 6-31+G*
    Number of shells: 36
    Number of basis function: 69
    Number of Cartesian functions: 69
    Spherical Harmonics?: false
    Max angular momentum: 2

  ==> DFT Potential <==

   => Composite Functional: M06-2X <= 

    Hybrid M06-2X Meta-GGA XC Functional

    Y. Zhao and D. G. Truhlar,  Theor. Chem. Acc., 120, 215, 2008


    Deriv               =              1
    GGA                 =           TRUE
    Meta                =           TRUE

    Exchange Hybrid     =           TRUE
    MP2 Hybrid          =          FALSE

   => Exchange Functionals <=

    1.0000   XC_HYB_MGGA_X_M06_2X

   => Exact (HF) Exchange <=

    0.5400               HF 

   => Correlation Functionals <=

    1.0000   XC_MGGA_C_M06_2X

   => Molecular Quadrature <=

    Radial Scheme          =       TREUTLER
    Pruning Scheme         =           FLAT
    Nuclear Scheme         =       TREUTLER

    BS radius alpha        =              1
    Pruning alpha          =              1
    Radial Points          =             75
    Spherical Points       =            302
    Total Points           =         203850
    Total Blocks           =           1576
    Max Points             =            256
    Max Functions          =             69

   => Loading Basis Set <=

    Name: (6-31+G* AUX)
    Role: JKFIT
    Keyword: DF_BASIS_SCF
    atoms 1-3 entry C          line   194 file /home/akrom/software/anaconda3/envs/ffpenv/share/psi4/basis/heavy-aug-cc-pvdz-jkfit.gbs 
    atoms 4-9 entry H          line   116 file /home/akrom/software/anaconda3/envs/ffpenv/share/psi4/basis/heavy-aug-cc-pvdz-jkfit.gbs 

  ==> Pre-Iterations <==

   -------------------------------------------------------
    Irrep   Nso     Nmo     Nalpha   Nbeta   Ndocc  Nsocc
   -------------------------------------------------------
     A'        48      48       0       0       0       0
     A"        21      21       0       0       0       0
   -------------------------------------------------------
    Total      69      69      12      12      12       0
   -------------------------------------------------------

  ==> Integral Setup <==

  DFHelper Memory: AOs need 0.019 GiB; user supplied 0.019 GiB. Using in-core AOs.

  ==> MemDFJK: Density-Fitted J/K Matrices <==

    J tasked:                   Yes
    K tasked:                   Yes
    wK tasked:                   No
    OpenMP threads:               1
    Memory [MiB]:                19
    Algorithm:                 Core
    Schwarz Cutoff:           1E-12
    Mask sparsity (%):       0.0000
    Fitting Condition:        1E-10

   => Auxiliary Basis Set <=

  Basis Set: (6-31+G* AUX)
    Blend: HEAVY-AUG-CC-PVDZ-JKFIT
    Number of shells: 138
    Number of basis function: 453
    Number of Cartesian functions: 453
    Spherical Harmonics?: false
    Max angular momentum: 3

  Cached 50.0% of DFT collocation blocks in 0.477 [GiB].

  Minimum eigenvalue in the overlap matrix is 1.9505761385E-04.
  Using Symmetric Orthogonalization.

  SCF Guess: Superposition of Atomic Densities via on-the-fly atomic UHF.

  ==> Iterations <==

                           Total Energy        Delta E     RMS |[F,P]|

   @DF-RKS iter SAD:  -117.38480465419966   -1.17385e+02   0.00000e+00 
   @DF-RKS iter   1:  -117.57185083045923   -1.87046e-01   1.33976e-02 DIIS
   @DF-RKS iter   2:  -117.57876192853311   -6.91110e-03   1.31618e-02 DIIS
   @DF-RKS iter   3:  -117.83337194285195   -2.54610e-01   5.29799e-04 DIIS
   @DF-RKS iter   4:  -117.83380810158849   -4.36159e-04   6.60497e-05 DIIS
   @DF-RKS iter   5:  -117.83381960347339   -1.15019e-05   1.34190e-05 DIIS
   @DF-RKS iter   6:  -117.83382010974717   -5.06274e-07   1.37711e-06 DIIS
   @DF-RKS iter   7:  -117.83382011911252   -9.36535e-09   2.27272e-07 DIIS
   @DF-RKS iter   8:  -117.83382011922555   -1.13033e-10   1.71053e-07 DIIS
   @DF-RKS iter   9:  -117.83382011926625   -4.06999e-11   1.17952e-08 DIIS
   @DF-RKS iter  10:  -117.83382011926672   -4.68958e-13   5.79366e-10 DIIS
  Energy and wave function converged.


  ==> Post-Iterations <==

    Orbital Energies [Eh]
    ---------------------

    Doubly Occupied:                                                      

       1Ap   -10.548910     2Ap   -10.548338     3Ap   -10.548331  
       4Ap    -0.944322     5Ap    -0.678872     6Ap    -0.678855  
       1App   -0.565778     7Ap    -0.528685     2App   -0.425512  
       3App   -0.425484     8Ap    -0.348833     9Ap    -0.348800  

    Virtual:                                                              

      10Ap     0.037460    11Ap     0.037461    12Ap     0.043208  
       4App    0.053166     5App    0.093291     6App    0.093294  
      13Ap     0.098134    14Ap     0.098135    15Ap     0.098993  
      16Ap     0.117534    17Ap     0.171289    18Ap     0.171296  
       7App    0.212893    19Ap     0.227064    20Ap     0.267251  
      21Ap     0.314113    22Ap     0.314139     8App    0.337763  
       9App    0.337791    23Ap     0.370005    24Ap     0.370031  
      25Ap     0.624900    10App    0.687375    26Ap     0.694200  
      27Ap     0.694227    28Ap     0.775895    29Ap     0.775918  
      30Ap     0.817530    11App    0.842032    12App    0.842085  
      31Ap     0.885068    13App    0.982235    32Ap     1.074373  
      14App    1.077291    15App    1.077474    33Ap     1.141382  
      34Ap     1.141564    35Ap     1.331038    36Ap     1.331050  
      37Ap     1.597813    16App    1.859096    17App    1.859119  
      38Ap     1.928239    39Ap     1.928329    18App    1.970134  
      19App    2.052155    40Ap     2.201779    41Ap     2.316719  
      42Ap     2.316801    20App    2.546462    21App    2.546807  
      43Ap     2.561098    44Ap     2.561258    45Ap     2.795826  
      46Ap     4.139725    47Ap     4.424236    48Ap     4.424292  

    Final Occupation by Irrep:
             Ap   App 
    DOCC [     9,    3 ]

  @DF-RKS Final Energy:  -117.83382011926672

   => Energetics <=

    Nuclear Repulsion Energy =             75.2814648090140253
    One-Electron Energy =                -305.7405225274803229
    Two-Electron Energy =                 121.5156970292626113
    DFT Exchange-Correlation Energy =      -8.8904594300630464
    Empirical Dispersion Energy =           0.0000000000000000
    VV10 Nonlocal Energy =                  0.0000000000000000
    Total Energy =                       -117.8338201192667185

Computation Completed


Properties will be evaluated at   0.000000,   0.000000,   0.000000 [a0]

Properties computed using the SCF density matrix

  Nuclear Dipole Moment: [e a0]
     X:    -0.0002      Y:    -0.0002      Z:     0.0000

  Electronic Dipole Moment: [e a0]
     X:     0.0003      Y:    -0.0000      Z:     0.0000

  Dipole Moment: [e a0]
     X:     0.0001      Y:    -0.0002      Z:     0.0000     Total:     0.0002

  Dipole Moment: [D]
     X:     0.0003      Y:    -0.0005      Z:     0.0000     Total:     0.0006


*** tstop() called on atlantis at Tue Apr 19 10:15:44 2022
Module time:
	user time   =      10.43 seconds =       0.17 minutes
	system time =       0.05 seconds =       0.00 minutes
	total time  =         10 seconds =       0.17 minutes
Total time:
	user time   =      18.41 seconds =       0.31 minutes
	system time =       0.19 seconds =       0.00 minutes
	total time  =         18 seconds =       0.30 minutes

*** tstart() called on atlantis
*** at Tue Apr 19 10:15:44 2022


         ------------------------------------------------------------
                                   SCF GRAD                          
                          Rob Parrish, Justin Turney,                
                       Andy Simmonett, and Alex Sokolov              
         ------------------------------------------------------------

  ==> Geometry <==

    Molecular point group: cs
    Full point group: Cs

    Geometry (in Angstrom), charge = 0, multiplicity = 1:

       Center              X                  Y                   Z               Mass       
    ------------   -----------------  -----------------  -----------------  -----------------
         C            0.321531939855     0.813261460475     0.000000000000    12.000000000000
         C           -0.865048060145    -0.128168539525     0.000000000000    12.000000000000
         C            0.543531939855    -0.685078539525     0.000000000000    12.000000000000
         H            0.537951939855     1.360691460475    -0.920390000000     1.007825032230
         H            0.537951939855     1.360691460475     0.920390000000     1.007825032230
         H           -1.447418060145    -0.214488539525     0.920340000000     1.007825032230
         H           -1.447418060145    -0.214488539525    -0.920340000000     1.007825032230
         H            0.909371939855    -1.146288539525    -0.920370000000     1.007825032230
         H            0.909371939855    -1.146288539525     0.920370000000     1.007825032230

  Nuclear repulsion =   75.281464809014025

  ==> Basis Set <==

  Basis Set: 6-31+G*
    Blend: 6-31+G*
    Number of shells: 36
    Number of basis function: 69
    Number of Cartesian functions: 69
    Spherical Harmonics?: false
    Max angular momentum: 2

  ==> DFJKGrad: Density-Fitted SCF Gradients <==

    Gradient:                    1
    J tasked:                  Yes
    K tasked:                  Yes
    wK tasked:                  No
    OpenMP threads:              1
    Integrals threads:           1
    Memory [MiB]:              375
    Schwarz Cutoff:          0E+00
    Fitting Condition:       1E-10

   => Auxiliary Basis Set <=

  Basis Set: (6-31+G* AUX)
    Blend: HEAVY-AUG-CC-PVDZ-JKFIT
    Number of shells: 138
    Number of basis function: 453
    Number of Cartesian functions: 453
    Spherical Harmonics?: false
    Max angular momentum: 3

  ==> DFT Potential <==

   => Composite Functional: M06-2X <= 

    Hybrid M06-2X Meta-GGA XC Functional

    Y. Zhao and D. G. Truhlar,  Theor. Chem. Acc., 120, 215, 2008


    Deriv               =              1
    GGA                 =           TRUE
    Meta                =           TRUE

    Exchange Hybrid     =           TRUE
    MP2 Hybrid          =          FALSE

   => Exchange Functionals <=

    1.0000   XC_HYB_MGGA_X_M06_2X

   => Exact (HF) Exchange <=

    0.5400               HF 

   => Correlation Functionals <=

    1.0000   XC_MGGA_C_M06_2X

   => Molecular Quadrature <=

    Radial Scheme          =       TREUTLER
    Pruning Scheme         =           FLAT
    Nuclear Scheme         =       TREUTLER

    BS radius alpha        =              1
    Pruning alpha          =              1
    Radial Points          =             75
    Spherical Points       =            302
    Total Points           =         203850
    Total Blocks           =           1576
    Max Points             =            256
    Max Functions          =             69


  -Total Gradient:
     Atom            X                  Y                   Z
    ------   -----------------  -----------------  -----------------
       1        0.001863894376     0.004659789164     0.000000000000
       2       -0.004917659302    -0.000701773110     0.000000000000
       3        0.003146579242    -0.003947980538     0.000000000000
       4        0.001001088566     0.002498479676    -0.004626280711
       5        0.001001088566     0.002498479676     0.004626280711
       6       -0.002664282338    -0.000389697934     0.004620695029
       7       -0.002664282338    -0.000389697934    -0.004620695029
       8        0.001715933228    -0.002145603955    -0.004615677401
       9        0.001715933228    -0.002145603955     0.004615677401


*** tstop() called on atlantis at Tue Apr 19 10:15:46 2022
Module time:
	user time   =       1.57 seconds =       0.03 minutes
	system time =       0.01 seconds =       0.00 minutes
	total time  =          2 seconds =       0.03 minutes
Total time:
	user time   =      19.98 seconds =       0.33 minutes
	system time =       0.20 seconds =       0.00 minutes
	total time  =         20 seconds =       0.33 minutes

  Based on options and gradient (rms=3.03E-03), recommend projecting translations and projecting rotations.
hessian() will perform frequency computation by finite difference of analytic gradients.

         ----------------------------------------------------------
                                   FINDIF
                     R. A. King and Jonathon Misiewicz
         ---------------------------------------------------------

  Using finite-differences of gradients to determine vibrational frequencies and 
  normal modes.  Resulting frequencies are only valid at stationary points.
    Generating geometries for use with 3-point formula.
    Displacement size will be 5.00e-03.
    Number of atoms is 9.
    Number of irreps is 2.
    Number of SALCs is 21.
    Translations projected? 1. Rotations projected? 1.
    Index of SALCs per irrep:
     1 :  0  1  2  3  4  5  6  7  8  9  10  11 
     2 :  12  13  14  15  16  17  18  19  20 
    Number of SALCs per irrep:
     Irrep 1: 12
     Irrep 2: 9
    Number of geometries (including reference) is 34.
    Number of displacements per irrep:
      Irrep 1: 24
      Irrep 2: 9

  //>>>>>>>>>>>>>>>>>>>>>>>>>>>>>>>>>>>//
  //    Loading displacement 1 of 34   //
  //<<<<<<<<<<<<<<<<<<<<<<<<<<<<<<<<<<<//
gradient() will perform analytic gradient computation.

*** tstart() called on atlantis
*** at Tue Apr 19 10:15:46 2022

   => Loading Basis Set <=

    Name: 6-31+G*
    Role: ORBITAL
    Keyword: BASIS
    atoms 1-3 entry C          line   119 file /home/akrom/software/anaconda3/envs/ffpenv/share/psi4/basis/6-31pgs.gbs 
    atoms 4-9 entry H          line    46 file /home/akrom/software/anaconda3/envs/ffpenv/share/psi4/basis/6-31pgs.gbs 


         ---------------------------------------------------------
                                   SCF
               by Justin Turney, Rob Parrish, Andy Simmonett
                          and Daniel G. A. Smith
                              RKS Reference
                        1 Threads,    500 MiB Core
         ---------------------------------------------------------

  ==> Geometry <==

    Molecular point group: cs
    Full point group: Cs

    Geometry (in Angstrom), charge = 0, multiplicity = 1:

       Center              X                  Y                   Z               Mass       
    ------------   -----------------  -----------------  -----------------  -----------------
         C            0.321531939855     0.813261460475     0.000000000000    12.000000000000
         C           -0.865048060145    -0.128168539525     0.000000000000    12.000000000000
         C            0.543531939855    -0.685078539525     0.000000000000    12.000000000000
         H            0.537951939855     1.360691460475    -0.920390000000     1.007825032230
         H            0.537951939855     1.360691460475     0.920390000000     1.007825032230
         H           -1.447418060145    -0.214488539525     0.920340000000     1.007825032230
         H           -1.447418060145    -0.214488539525    -0.920340000000     1.007825032230
         H            0.909371939855    -1.146288539525    -0.920370000000     1.007825032230
         H            0.909371939855    -1.146288539525     0.920370000000     1.007825032230

  Running in cs symmetry.

  Rotational constants: A =      0.66472  B =      0.66470  C =      0.41647 [cm^-1]
  Rotational constants: A =  19927.70596  B =  19927.20236  C =  12485.44714 [MHz]
  Nuclear repulsion =   75.281464809014025

  Charge       = 0
  Multiplicity = 1
  Electrons    = 24
  Nalpha       = 12
  Nbeta        = 12

  ==> Algorithm <==

  SCF Algorithm Type is DF.
  DIIS enabled.
  MOM disabled.
  Fractional occupation disabled.
  Guess Type is SAD.
  Energy threshold   = 1.00e-08
  Density threshold  = 1.00e-08
  Integral threshold = 0.00e+00

  ==> Primary Basis <==

  Basis Set: 6-31+G*
    Blend: 6-31+G*
    Number of shells: 36
    Number of basis function: 69
    Number of Cartesian functions: 69
    Spherical Harmonics?: false
    Max angular momentum: 2

  ==> DFT Potential <==

   => Composite Functional: M06-2X <= 

    Hybrid M06-2X Meta-GGA XC Functional

    Y. Zhao and D. G. Truhlar,  Theor. Chem. Acc., 120, 215, 2008


    Deriv               =              1
    GGA                 =           TRUE
    Meta                =           TRUE

    Exchange Hybrid     =           TRUE
    MP2 Hybrid          =          FALSE

   => Exchange Functionals <=

    1.0000   XC_HYB_MGGA_X_M06_2X

   => Exact (HF) Exchange <=

    0.5400               HF 

   => Correlation Functionals <=

    1.0000   XC_MGGA_C_M06_2X

   => Molecular Quadrature <=

    Radial Scheme          =       TREUTLER
    Pruning Scheme         =           FLAT
    Nuclear Scheme         =       TREUTLER

    BS radius alpha        =              1
    Pruning alpha          =              1
    Radial Points          =             75
    Spherical Points       =            302
    Total Points           =         203850
    Total Blocks           =           1576
    Max Points             =            256
    Max Functions          =             69

   => Loading Basis Set <=

    Name: (6-31+G* AUX)
    Role: JKFIT
    Keyword: DF_BASIS_SCF
    atoms 1-3 entry C          line   194 file /home/akrom/software/anaconda3/envs/ffpenv/share/psi4/basis/heavy-aug-cc-pvdz-jkfit.gbs 
    atoms 4-9 entry H          line   116 file /home/akrom/software/anaconda3/envs/ffpenv/share/psi4/basis/heavy-aug-cc-pvdz-jkfit.gbs 

  ==> Pre-Iterations <==

   -------------------------------------------------------
    Irrep   Nso     Nmo     Nalpha   Nbeta   Ndocc  Nsocc
   -------------------------------------------------------
     A'        48      48       0       0       0       0
     A"        21      21       0       0       0       0
   -------------------------------------------------------
    Total      69      69      12      12      12       0
   -------------------------------------------------------

  ==> Integral Setup <==

  DFHelper Memory: AOs need 0.019 GiB; user supplied 0.019 GiB. Using in-core AOs.

  ==> MemDFJK: Density-Fitted J/K Matrices <==

    J tasked:                   Yes
    K tasked:                   Yes
    wK tasked:                   No
    OpenMP threads:               1
    Memory [MiB]:                19
    Algorithm:                 Core
    Schwarz Cutoff:           1E-12
    Mask sparsity (%):       0.0000
    Fitting Condition:        1E-10

   => Auxiliary Basis Set <=

  Basis Set: (6-31+G* AUX)
    Blend: HEAVY-AUG-CC-PVDZ-JKFIT
    Number of shells: 138
    Number of basis function: 453
    Number of Cartesian functions: 453
    Spherical Harmonics?: false
    Max angular momentum: 3

  Cached 50.0% of DFT collocation blocks in 0.477 [GiB].

  Minimum eigenvalue in the overlap matrix is 1.9505761385E-04.
  Using Symmetric Orthogonalization.

  SCF Guess: Superposition of Atomic Densities via on-the-fly atomic UHF.

  ==> Iterations <==

                           Total Energy        Delta E     RMS |[F,P]|

   @DF-RKS iter SAD:  -117.38480465419947   -1.17385e+02   0.00000e+00 
   @DF-RKS iter   1:  -117.57185083045839   -1.87046e-01   1.33976e-02 DIIS
   @DF-RKS iter   2:  -117.57876192853226   -6.91110e-03   1.31618e-02 DIIS
   @DF-RKS iter   3:  -117.83337194285087   -2.54610e-01   5.29799e-04 DIIS
   @DF-RKS iter   4:  -117.83380810158766   -4.36159e-04   6.60497e-05 DIIS
   @DF-RKS iter   5:  -117.83381960347235   -1.15019e-05   1.34190e-05 DIIS
   @DF-RKS iter   6:  -117.83382010974640   -5.06274e-07   1.37711e-06 DIIS
   @DF-RKS iter   7:  -117.83382011911179   -9.36539e-09   2.27272e-07 DIIS
   @DF-RKS iter   8:  -117.83382011922458   -1.12792e-10   1.71053e-07 DIIS
   @DF-RKS iter   9:  -117.83382011926531   -4.07283e-11   1.17952e-08 DIIS
   @DF-RKS iter  10:  -117.83382011926577   -4.54747e-13   5.79366e-10 DIIS
  Energy and wave function converged.


  ==> Post-Iterations <==

    Orbital Energies [Eh]
    ---------------------

    Doubly Occupied:                                                      

       1Ap   -10.548910     2Ap   -10.548338     3Ap   -10.548331  
       4Ap    -0.944322     5Ap    -0.678872     6Ap    -0.678855  
       1App   -0.565778     7Ap    -0.528685     2App   -0.425512  
       3App   -0.425484     8Ap    -0.348833     9Ap    -0.348800  

    Virtual:                                                              

      10Ap     0.037460    11Ap     0.037461    12Ap     0.043208  
       4App    0.053166     5App    0.093291     6App    0.093294  
      13Ap     0.098134    14Ap     0.098135    15Ap     0.098993  
      16Ap     0.117534    17Ap     0.171289    18Ap     0.171296  
       7App    0.212893    19Ap     0.227064    20Ap     0.267251  
      21Ap     0.314113    22Ap     0.314139     8App    0.337763  
       9App    0.337791    23Ap     0.370005    24Ap     0.370031  
      25Ap     0.624900    10App    0.687375    26Ap     0.694200  
      27Ap     0.694227    28Ap     0.775895    29Ap     0.775918  
      30Ap     0.817530    11App    0.842032    12App    0.842085  
      31Ap     0.885068    13App    0.982235    32Ap     1.074373  
      14App    1.077291    15App    1.077474    33Ap     1.141382  
      34Ap     1.141564    35Ap     1.331038    36Ap     1.331050  
      37Ap     1.597813    16App    1.859096    17App    1.859119  
      38Ap     1.928239    39Ap     1.928329    18App    1.970134  
      19App    2.052155    40Ap     2.201779    41Ap     2.316719  
      42Ap     2.316801    20App    2.546462    21App    2.546807  
      43Ap     2.561098    44Ap     2.561258    45Ap     2.795826  
      46Ap     4.139725    47Ap     4.424236    48Ap     4.424292  

    Final Occupation by Irrep:
             Ap   App 
    DOCC [     9,    3 ]

  @DF-RKS Final Energy:  -117.83382011926577

   => Energetics <=

    Nuclear Repulsion Energy =             75.2814648090140253
    One-Electron Energy =                -305.7405225274773102
    Two-Electron Energy =                 121.5156970292603376
    DFT Exchange-Correlation Energy =      -8.8904594300628457
    Empirical Dispersion Energy =           0.0000000000000000
    VV10 Nonlocal Energy =                  0.0000000000000000
    Total Energy =                       -117.8338201192657806

Computation Completed


Properties will be evaluated at   0.000000,   0.000000,   0.000000 [a0]

Properties computed using the SCF density matrix

  Nuclear Dipole Moment: [e a0]
     X:    -0.0002      Y:    -0.0002      Z:     0.0000

  Electronic Dipole Moment: [e a0]
     X:     0.0003      Y:    -0.0000      Z:     0.0000

  Dipole Moment: [e a0]
     X:     0.0001      Y:    -0.0002      Z:     0.0000     Total:     0.0002

  Dipole Moment: [D]
     X:     0.0003      Y:    -0.0005      Z:     0.0000     Total:     0.0006


*** tstop() called on atlantis at Tue Apr 19 10:15:57 2022
Module time:
	user time   =      10.42 seconds =       0.17 minutes
	system time =       0.05 seconds =       0.00 minutes
	total time  =         11 seconds =       0.18 minutes
Total time:
	user time   =      30.69 seconds =       0.51 minutes
	system time =       0.26 seconds =       0.00 minutes
	total time  =         31 seconds =       0.52 minutes

*** tstart() called on atlantis
*** at Tue Apr 19 10:15:57 2022


         ------------------------------------------------------------
                                   SCF GRAD                          
                          Rob Parrish, Justin Turney,                
                       Andy Simmonett, and Alex Sokolov              
         ------------------------------------------------------------

  ==> Geometry <==

    Molecular point group: cs
    Full point group: Cs

    Geometry (in Angstrom), charge = 0, multiplicity = 1:

       Center              X                  Y                   Z               Mass       
    ------------   -----------------  -----------------  -----------------  -----------------
         C            0.321531939855     0.813261460475     0.000000000000    12.000000000000
         C           -0.865048060145    -0.128168539525     0.000000000000    12.000000000000
         C            0.543531939855    -0.685078539525     0.000000000000    12.000000000000
         H            0.537951939855     1.360691460475    -0.920390000000     1.007825032230
         H            0.537951939855     1.360691460475     0.920390000000     1.007825032230
         H           -1.447418060145    -0.214488539525     0.920340000000     1.007825032230
         H           -1.447418060145    -0.214488539525    -0.920340000000     1.007825032230
         H            0.909371939855    -1.146288539525    -0.920370000000     1.007825032230
         H            0.909371939855    -1.146288539525     0.920370000000     1.007825032230

  Nuclear repulsion =   75.281464809014025

  ==> Basis Set <==

  Basis Set: 6-31+G*
    Blend: 6-31+G*
    Number of shells: 36
    Number of basis function: 69
    Number of Cartesian functions: 69
    Spherical Harmonics?: false
    Max angular momentum: 2

  ==> DFJKGrad: Density-Fitted SCF Gradients <==

    Gradient:                    1
    J tasked:                  Yes
    K tasked:                  Yes
    wK tasked:                  No
    OpenMP threads:              1
    Integrals threads:           1
    Memory [MiB]:              375
    Schwarz Cutoff:          0E+00
    Fitting Condition:       1E-10

   => Auxiliary Basis Set <=

  Basis Set: (6-31+G* AUX)
    Blend: HEAVY-AUG-CC-PVDZ-JKFIT
    Number of shells: 138
    Number of basis function: 453
    Number of Cartesian functions: 453
    Spherical Harmonics?: false
    Max angular momentum: 3

  ==> DFT Potential <==

   => Composite Functional: M06-2X <= 

    Hybrid M06-2X Meta-GGA XC Functional

    Y. Zhao and D. G. Truhlar,  Theor. Chem. Acc., 120, 215, 2008


    Deriv               =              1
    GGA                 =           TRUE
    Meta                =           TRUE

    Exchange Hybrid     =           TRUE
    MP2 Hybrid          =          FALSE

   => Exchange Functionals <=

    1.0000   XC_HYB_MGGA_X_M06_2X

   => Exact (HF) Exchange <=

    0.5400               HF 

   => Correlation Functionals <=

    1.0000   XC_MGGA_C_M06_2X

   => Molecular Quadrature <=

    Radial Scheme          =       TREUTLER
    Pruning Scheme         =           FLAT
    Nuclear Scheme         =       TREUTLER

    BS radius alpha        =              1
    Pruning alpha          =              1
    Radial Points          =             75
    Spherical Points       =            302
    Total Points           =         203850
    Total Blocks           =           1576
    Max Points             =            256
    Max Functions          =             69


  -Total Gradient:
     Atom            X                  Y                   Z
    ------   -----------------  -----------------  -----------------
       1        0.001863901310     0.004659802110     0.000000000000
       2       -0.004917681436    -0.000701777776     0.000000000000
       3        0.003146587245    -0.003947994492     0.000000000000
       4        0.001001087127     0.002498478789    -0.004626273520
       5        0.001001087127     0.002498478789     0.004626273520
       6       -0.002664274594    -0.000389697203     0.004620682645
       7       -0.002664274594    -0.000389697203    -0.004620682645
       8        0.001715930522    -0.002145600963    -0.004615667216
       9        0.001715930522    -0.002145600963     0.004615667216


*** tstop() called on atlantis at Tue Apr 19 10:15:58 2022
Module time:
	user time   =       1.58 seconds =       0.03 minutes
	system time =       0.00 seconds =       0.00 minutes
	total time  =          1 seconds =       0.02 minutes
Total time:
	user time   =      32.27 seconds =       0.54 minutes
	system time =       0.26 seconds =       0.00 minutes
	total time  =         32 seconds =       0.53 minutes

  //>>>>>>>>>>>>>>>>>>>>>>>>>>>>>>>>>>>//
  //    Loading displacement 2 of 34   //
  //<<<<<<<<<<<<<<<<<<<<<<<<<<<<<<<<<<<//
gradient() will perform analytic gradient computation.

*** tstart() called on atlantis
*** at Tue Apr 19 10:15:58 2022

   => Loading Basis Set <=

    Name: 6-31+G*
    Role: ORBITAL
    Keyword: BASIS
    atoms 1-3 entry C          line   119 file /home/akrom/software/anaconda3/envs/ffpenv/share/psi4/basis/6-31pgs.gbs 
    atoms 4-9 entry H          line    46 file /home/akrom/software/anaconda3/envs/ffpenv/share/psi4/basis/6-31pgs.gbs 


         ---------------------------------------------------------
                                   SCF
               by Justin Turney, Rob Parrish, Andy Simmonett
                          and Daniel G. A. Smith
                              RKS Reference
                        1 Threads,    500 MiB Core
         ---------------------------------------------------------

  ==> Geometry <==

    Molecular point group: cs
    Full point group: Cs

    Geometry (in Angstrom), charge = 0, multiplicity = 1:

       Center              X                  Y                   Z               Mass       
    ------------   -----------------  -----------------  -----------------  -----------------
         C            0.320981935461     0.813179232929     0.000000000000    12.000000000000
         C           -0.864778117207    -0.127947314912     0.000000000000    12.000000000000
         C            0.543659460418    -0.685217540638     0.000000000000    12.000000000000
         H            0.538602639069     1.360553886373    -0.920390000000     1.007825032230
         H            0.538602639069     1.360553886373     0.920390000000     1.007825032230
         H           -1.447170192407    -0.214118381478     0.920340000000     1.007825032230
         H           -1.447170192407    -0.214118381478    -0.920340000000     1.007825032230
         H            0.909381512053    -1.146521099385    -0.920370000000     1.007825032230
         H            0.909381512053    -1.146521099385     0.920370000000     1.007825032230

  Running in cs symmetry.

  Rotational constants: A =      0.66511  B =      0.66452  C =      0.41655 [cm^-1]
  Rotational constants: A =  19939.46144  B =  19921.88173  C =  12487.97026 [MHz]
  Nuclear repulsion =   75.286659304380962

  Charge       = 0
  Multiplicity = 1
  Electrons    = 24
  Nalpha       = 12
  Nbeta        = 12

  ==> Algorithm <==

  SCF Algorithm Type is DF.
  DIIS enabled.
  MOM disabled.
  Fractional occupation disabled.
  Guess Type is SAD.
  Energy threshold   = 1.00e-08
  Density threshold  = 1.00e-08
  Integral threshold = 0.00e+00

  ==> Primary Basis <==

  Basis Set: 6-31+G*
    Blend: 6-31+G*
    Number of shells: 36
    Number of basis function: 69
    Number of Cartesian functions: 69
    Spherical Harmonics?: false
    Max angular momentum: 2

  ==> DFT Potential <==

   => Composite Functional: M06-2X <= 

    Hybrid M06-2X Meta-GGA XC Functional

    Y. Zhao and D. G. Truhlar,  Theor. Chem. Acc., 120, 215, 2008


    Deriv               =              1
    GGA                 =           TRUE
    Meta                =           TRUE

    Exchange Hybrid     =           TRUE
    MP2 Hybrid          =          FALSE

   => Exchange Functionals <=

    1.0000   XC_HYB_MGGA_X_M06_2X

   => Exact (HF) Exchange <=

    0.5400               HF 

   => Correlation Functionals <=

    1.0000   XC_MGGA_C_M06_2X

   => Molecular Quadrature <=

    Radial Scheme          =       TREUTLER
    Pruning Scheme         =           FLAT
    Nuclear Scheme         =       TREUTLER

    BS radius alpha        =              1
    Pruning alpha          =              1
    Radial Points          =             75
    Spherical Points       =            302
    Total Points           =         203850
    Total Blocks           =           1568
    Max Points             =            256
    Max Functions          =             69

   => Loading Basis Set <=

    Name: (6-31+G* AUX)
    Role: JKFIT
    Keyword: DF_BASIS_SCF
    atoms 1-3 entry C          line   194 file /home/akrom/software/anaconda3/envs/ffpenv/share/psi4/basis/heavy-aug-cc-pvdz-jkfit.gbs 
    atoms 4-9 entry H          line   116 file /home/akrom/software/anaconda3/envs/ffpenv/share/psi4/basis/heavy-aug-cc-pvdz-jkfit.gbs 

  ==> Pre-Iterations <==

   -------------------------------------------------------
    Irrep   Nso     Nmo     Nalpha   Nbeta   Ndocc  Nsocc
   -------------------------------------------------------
     A'        48      48       0       0       0       0
     A"        21      21       0       0       0       0
   -------------------------------------------------------
    Total      69      69      12      12      12       0
   -------------------------------------------------------

  ==> Integral Setup <==

  DFHelper Memory: AOs need 0.019 GiB; user supplied 0.019 GiB. Using in-core AOs.

  ==> MemDFJK: Density-Fitted J/K Matrices <==

    J tasked:                   Yes
    K tasked:                   Yes
    wK tasked:                   No
    OpenMP threads:               1
    Memory [MiB]:                19
    Algorithm:                 Core
    Schwarz Cutoff:           1E-12
    Mask sparsity (%):       0.0000
    Fitting Condition:        1E-10

   => Auxiliary Basis Set <=

  Basis Set: (6-31+G* AUX)
    Blend: HEAVY-AUG-CC-PVDZ-JKFIT
    Number of shells: 138
    Number of basis function: 453
    Number of Cartesian functions: 453
    Spherical Harmonics?: false
    Max angular momentum: 3

  Cached 50.0% of DFT collocation blocks in 0.467 [GiB].

  Minimum eigenvalue in the overlap matrix is 1.9460384568E-04.
  Using Symmetric Orthogonalization.

  SCF Guess: Superposition of Atomic Densities via on-the-fly atomic UHF.

  ==> Iterations <==

                           Total Energy        Delta E     RMS |[F,P]|

   @DF-RKS iter SAD:  -117.38528442490049   -1.17385e+02   0.00000e+00 
   @DF-RKS iter   1:  -117.57170889368854   -1.86424e-01   1.34021e-02 DIIS
   @DF-RKS iter   2:  -117.57851294291019   -6.80405e-03   1.31689e-02 DIIS
   @DF-RKS iter   3:  -117.83338538509304   -2.54872e-01   5.30035e-04 DIIS
   @DF-RKS iter   4:  -117.83382192947242   -4.36544e-04   6.60803e-05 DIIS
   @DF-RKS iter   5:  -117.83383343708118   -1.15076e-05   1.34323e-05 DIIS
   @DF-RKS iter   6:  -117.83383394388454   -5.06803e-07   1.46859e-06 DIIS
   @DF-RKS iter   7:  -117.83383395310841   -9.22387e-09   6.46030e-07 DIIS
   @DF-RKS iter   8:  -117.83383395369189   -5.83483e-10   1.98753e-07 DIIS
   @DF-RKS iter   9:  -117.83383395376130   -6.94058e-11   1.01935e-08 DIIS
   @DF-RKS iter  10:  -117.83383395376160   -2.98428e-13   7.10503e-10 DIIS
  Energy and wave function converged.


  ==> Post-Iterations <==

    Orbital Energies [Eh]
    ---------------------

    Doubly Occupied:                                                      

       1Ap   -10.548899     2Ap   -10.548329     3Ap   -10.548315  
       4Ap    -0.944431     5Ap    -0.678894     6Ap    -0.678801  
       1App   -0.565785     7Ap    -0.528752     2App   -0.425500  
       3App   -0.425383     8Ap    -0.349049     9Ap    -0.348649  

    Virtual:                                                              

      10Ap     0.037460    11Ap     0.037462    12Ap     0.043206  
       4App    0.053157     5App    0.093292     6App    0.093301  
      13Ap     0.098113    14Ap     0.098149    15Ap     0.098998  
      16Ap     0.117553    17Ap     0.171290    18Ap     0.171296  
       7App    0.212829    19Ap     0.227139    20Ap     0.267252  
      21Ap     0.314066    22Ap     0.314338     8App    0.337649  
       9App    0.337882    23Ap     0.370018    24Ap     0.370091  
      25Ap     0.624849    10App    0.687434    26Ap     0.694075  
      27Ap     0.694343    28Ap     0.775865    29Ap     0.776110  
      30Ap     0.817568    11App    0.841791    12App    0.842309  
      31Ap     0.885054    13App    0.982106    32Ap     1.074440  
      14App    1.077203    15App    1.077472    33Ap     1.141433  
      34Ap     1.141662    35Ap     1.331121    36Ap     1.331156  
      37Ap     1.597834    16App    1.859032    17App    1.859095  
      38Ap     1.928386    39Ap     1.928599    18App    1.970108  
      19App    2.052252    40Ap     2.201907    41Ap     2.316524  
      42Ap     2.317360    20App    2.546516    21App    2.547365  
      43Ap     2.561158    44Ap     2.561307    45Ap     2.796036  
      46Ap     4.139877    47Ap     4.424170    48Ap     4.424459  

    Final Occupation by Irrep:
             Ap   App 
    DOCC [     9,    3 ]

  @DF-RKS Final Energy:  -117.83383395376160

   => Energetics <=

    Nuclear Repulsion Energy =             75.2866593043809615
    One-Electron Energy =                -305.7507828845926952
    Two-Electron Energy =                 121.5208041941240538
    DFT Exchange-Correlation Energy =      -8.8905145676739359
    Empirical Dispersion Energy =           0.0000000000000000
    VV10 Nonlocal Energy =                  0.0000000000000000
    Total Energy =                       -117.8338339537615980

Computation Completed


Properties will be evaluated at   0.000000,   0.000000,   0.000000 [a0]

Properties computed using the SCF density matrix

  Nuclear Dipole Moment: [e a0]
     X:     0.0015      Y:    -0.0002      Z:     0.0000

  Electronic Dipole Moment: [e a0]
     X:    -0.0016      Y:     0.0003      Z:     0.0000

  Dipole Moment: [e a0]
     X:    -0.0001      Y:     0.0001      Z:     0.0000     Total:     0.0002

  Dipole Moment: [D]
     X:    -0.0002      Y:     0.0003      Z:     0.0000     Total:     0.0004


*** tstop() called on atlantis at Tue Apr 19 10:16:09 2022
Module time:
	user time   =      10.56 seconds =       0.18 minutes
	system time =       0.05 seconds =       0.00 minutes
	total time  =         11 seconds =       0.18 minutes
Total time:
	user time   =      42.84 seconds =       0.71 minutes
	system time =       0.31 seconds =       0.01 minutes
	total time  =         43 seconds =       0.72 minutes

*** tstart() called on atlantis
*** at Tue Apr 19 10:16:09 2022


         ------------------------------------------------------------
                                   SCF GRAD                          
                          Rob Parrish, Justin Turney,                
                       Andy Simmonett, and Alex Sokolov              
         ------------------------------------------------------------

  ==> Geometry <==

    Molecular point group: cs
    Full point group: Cs

    Geometry (in Angstrom), charge = 0, multiplicity = 1:

       Center              X                  Y                   Z               Mass       
    ------------   -----------------  -----------------  -----------------  -----------------
         C            0.320981935461     0.813179232929     0.000000000000    12.000000000000
         C           -0.864778117207    -0.127947314912     0.000000000000    12.000000000000
         C            0.543659460418    -0.685217540638     0.000000000000    12.000000000000
         H            0.538602639069     1.360553886373    -0.920390000000     1.007825032230
         H            0.538602639069     1.360553886373     0.920390000000     1.007825032230
         H           -1.447170192407    -0.214118381478     0.920340000000     1.007825032230
         H           -1.447170192407    -0.214118381478    -0.920340000000     1.007825032230
         H            0.909381512053    -1.146521099385    -0.920370000000     1.007825032230
         H            0.909381512053    -1.146521099385     0.920370000000     1.007825032230

  Nuclear repulsion =   75.286659304380962

  ==> Basis Set <==

  Basis Set: 6-31+G*
    Blend: 6-31+G*
    Number of shells: 36
    Number of basis function: 69
    Number of Cartesian functions: 69
    Spherical Harmonics?: false
    Max angular momentum: 2

  ==> DFJKGrad: Density-Fitted SCF Gradients <==

    Gradient:                    1
    J tasked:                  Yes
    K tasked:                  Yes
    wK tasked:                  No
    OpenMP threads:              1
    Integrals threads:           1
    Memory [MiB]:              375
    Schwarz Cutoff:          0E+00
    Fitting Condition:       1E-10

   => Auxiliary Basis Set <=

  Basis Set: (6-31+G* AUX)
    Blend: HEAVY-AUG-CC-PVDZ-JKFIT
    Number of shells: 138
    Number of basis function: 453
    Number of Cartesian functions: 453
    Spherical Harmonics?: false
    Max angular momentum: 3

  ==> DFT Potential <==

   => Composite Functional: M06-2X <= 

    Hybrid M06-2X Meta-GGA XC Functional

    Y. Zhao and D. G. Truhlar,  Theor. Chem. Acc., 120, 215, 2008


    Deriv               =              1
    GGA                 =           TRUE
    Meta                =           TRUE

    Exchange Hybrid     =           TRUE
    MP2 Hybrid          =          FALSE

   => Exchange Functionals <=

    1.0000   XC_HYB_MGGA_X_M06_2X

   => Exact (HF) Exchange <=

    0.5400               HF 

   => Correlation Functionals <=

    1.0000   XC_MGGA_C_M06_2X

   => Molecular Quadrature <=

    Radial Scheme          =       TREUTLER
    Pruning Scheme         =           FLAT
    Nuclear Scheme         =       TREUTLER

    BS radius alpha        =              1
    Pruning alpha          =              1
    Radial Points          =             75
    Spherical Points       =            302
    Total Points           =         203850
    Total Blocks           =           1568
    Max Points             =            256
    Max Functions          =             69


  -Total Gradient:
     Atom            X                  Y                   Z
    ------   -----------------  -----------------  -----------------
       1        0.001293056106     0.004404265776     0.000000000000
       2       -0.004622235450    -0.000570817783     0.000000000000
       3        0.003166129365    -0.003891234743     0.000000000000
       4        0.001105802736     0.002578255911    -0.004715268289
       5        0.001105802736     0.002578255911     0.004715268289
       6       -0.002636106755    -0.000373591507     0.004635780971
       7       -0.002636106755    -0.000373591507    -0.004635780971
       8        0.001686882974    -0.002115107973    -0.004640868533
       9        0.001686882974    -0.002115107973     0.004640868533


*** tstop() called on atlantis at Tue Apr 19 10:16:11 2022
Module time:
	user time   =       1.58 seconds =       0.03 minutes
	system time =       0.01 seconds =       0.00 minutes
	total time  =          2 seconds =       0.03 minutes
Total time:
	user time   =      44.42 seconds =       0.74 minutes
	system time =       0.32 seconds =       0.01 minutes
	total time  =         45 seconds =       0.75 minutes

  //>>>>>>>>>>>>>>>>>>>>>>>>>>>>>>>>>>>//
  //    Loading displacement 3 of 34   //
  //<<<<<<<<<<<<<<<<<<<<<<<<<<<<<<<<<<<//
gradient() will perform analytic gradient computation.

*** tstart() called on atlantis
*** at Tue Apr 19 10:16:11 2022

   => Loading Basis Set <=

    Name: 6-31+G*
    Role: ORBITAL
    Keyword: BASIS
    atoms 1-3 entry C          line   119 file /home/akrom/software/anaconda3/envs/ffpenv/share/psi4/basis/6-31pgs.gbs 
    atoms 4-9 entry H          line    46 file /home/akrom/software/anaconda3/envs/ffpenv/share/psi4/basis/6-31pgs.gbs 


         ---------------------------------------------------------
                                   SCF
               by Justin Turney, Rob Parrish, Andy Simmonett
                          and Daniel G. A. Smith
                              RKS Reference
                        1 Threads,    500 MiB Core
         ---------------------------------------------------------

  ==> Geometry <==

    Molecular point group: cs
    Full point group: Cs

    Geometry (in Angstrom), charge = 0, multiplicity = 1:

       Center              X                  Y                   Z               Mass       
    ------------   -----------------  -----------------  -----------------  -----------------
         C            0.322081944250     0.813343688021     0.000000000000    12.000000000000
         C           -0.865318003082    -0.128389764139     0.000000000000    12.000000000000
         C            0.543404419293    -0.684939538412     0.000000000000    12.000000000000
         H            0.537301240642     1.360829034576    -0.920390000000     1.007825032230
         H            0.537301240642     1.360829034576     0.920390000000     1.007825032230
         H           -1.447665927882    -0.214858697572     0.920340000000     1.007825032230
         H           -1.447665927882    -0.214858697572    -0.920340000000     1.007825032230
         H            0.909362367658    -1.146055979665    -0.920370000000     1.007825032230
         H            0.909362367658    -1.146055979665     0.920370000000     1.007825032230

  Running in cs symmetry.

  Rotational constants: A =      0.66489  B =      0.66431  C =      0.41639 [cm^-1]
  Rotational constants: A =  19932.94970  B =  19915.53021  C =  12482.92073 [MHz]
  Nuclear repulsion =   75.276267816162189

  Charge       = 0
  Multiplicity = 1
  Electrons    = 24
  Nalpha       = 12
  Nbeta        = 12

  ==> Algorithm <==

  SCF Algorithm Type is DF.
  DIIS enabled.
  MOM disabled.
  Fractional occupation disabled.
  Guess Type is SAD.
  Energy threshold   = 1.00e-08
  Density threshold  = 1.00e-08
  Integral threshold = 0.00e+00

  ==> Primary Basis <==

  Basis Set: 6-31+G*
    Blend: 6-31+G*
    Number of shells: 36
    Number of basis function: 69
    Number of Cartesian functions: 69
    Spherical Harmonics?: false
    Max angular momentum: 2

  ==> DFT Potential <==

   => Composite Functional: M06-2X <= 

    Hybrid M06-2X Meta-GGA XC Functional

    Y. Zhao and D. G. Truhlar,  Theor. Chem. Acc., 120, 215, 2008


    Deriv               =              1
    GGA                 =           TRUE
    Meta                =           TRUE

    Exchange Hybrid     =           TRUE
    MP2 Hybrid          =          FALSE

   => Exchange Functionals <=

    1.0000   XC_HYB_MGGA_X_M06_2X

   => Exact (HF) Exchange <=

    0.5400               HF 

   => Correlation Functionals <=

    1.0000   XC_MGGA_C_M06_2X

   => Molecular Quadrature <=

    Radial Scheme          =       TREUTLER
    Pruning Scheme         =           FLAT
    Nuclear Scheme         =       TREUTLER

    BS radius alpha        =              1
    Pruning alpha          =              1
    Radial Points          =             75
    Spherical Points       =            302
    Total Points           =         203850
    Total Blocks           =           1573
    Max Points             =            256
    Max Functions          =             69

   => Loading Basis Set <=

    Name: (6-31+G* AUX)
    Role: JKFIT
    Keyword: DF_BASIS_SCF
    atoms 1-3 entry C          line   194 file /home/akrom/software/anaconda3/envs/ffpenv/share/psi4/basis/heavy-aug-cc-pvdz-jkfit.gbs 
    atoms 4-9 entry H          line   116 file /home/akrom/software/anaconda3/envs/ffpenv/share/psi4/basis/heavy-aug-cc-pvdz-jkfit.gbs 

  ==> Pre-Iterations <==

   -------------------------------------------------------
    Irrep   Nso     Nmo     Nalpha   Nbeta   Ndocc  Nsocc
   -------------------------------------------------------
     A'        48      48       0       0       0       0
     A"        21      21       0       0       0       0
   -------------------------------------------------------
    Total      69      69      12      12      12       0
   -------------------------------------------------------

  ==> Integral Setup <==

  DFHelper Memory: AOs need 0.019 GiB; user supplied 0.019 GiB. Using in-core AOs.

  ==> MemDFJK: Density-Fitted J/K Matrices <==

    J tasked:                   Yes
    K tasked:                   Yes
    wK tasked:                   No
    OpenMP threads:               1
    Memory [MiB]:                19
    Algorithm:                 Core
    Schwarz Cutoff:           1E-12
    Mask sparsity (%):       0.0000
    Fitting Condition:        1E-10

   => Auxiliary Basis Set <=

  Basis Set: (6-31+G* AUX)
    Blend: HEAVY-AUG-CC-PVDZ-JKFIT
    Number of shells: 138
    Number of basis function: 453
    Number of Cartesian functions: 453
    Spherical Harmonics?: false
    Max angular momentum: 3

  Cached 50.0% of DFT collocation blocks in 0.455 [GiB].

  Minimum eigenvalue in the overlap matrix is 1.9494032464E-04.
  Using Symmetric Orthogonalization.

  SCF Guess: Superposition of Atomic Densities via on-the-fly atomic UHF.

  ==> Iterations <==

                           Total Energy        Delta E     RMS |[F,P]|

   @DF-RKS iter SAD:  -117.38434789963227   -1.17384e+02   0.00000e+00 
   @DF-RKS iter   1:  -117.57202021594144   -1.87672e-01   1.33935e-02 DIIS
   @DF-RKS iter   2:  -117.57902576237929   -7.00555e-03   1.31555e-02 DIIS
   @DF-RKS iter   3:  -117.83338357757370   -2.54358e-01   5.29816e-04 DIIS
   @DF-RKS iter   4:  -117.83381953588113   -4.35958e-04   6.60982e-05 DIIS
   @DF-RKS iter   5:  -117.83383105024105   -1.15144e-05   1.34180e-05 DIIS
   @DF-RKS iter   6:  -117.83383155657170   -5.06331e-07   1.41874e-06 DIIS
   @DF-RKS iter   7:  -117.83383156585413   -9.28243e-09   4.69168e-07 DIIS
   @DF-RKS iter   8:  -117.83383156615996   -3.05832e-10   2.22335e-07 DIIS
   @DF-RKS iter   9:  -117.83383156623765   -7.76907e-11   1.03278e-08 DIIS
   @DF-RKS iter  10:  -117.83383156623809   -4.40536e-13   6.77693e-10 DIIS
  Energy and wave function converged.


  ==> Post-Iterations <==

    Orbital Energies [Eh]
    ---------------------

    Doubly Occupied:                                                      

       1Ap   -10.548922     2Ap   -10.548356     3Ap   -10.548338  
       4Ap    -0.944231     5Ap    -0.678926     6Ap    -0.678850  
       1App   -0.565768     7Ap    -0.528654     2App   -0.425603  
       3App   -0.425484     8Ap    -0.348978     9Ap    -0.348583  

    Virtual:                                                              

      10Ap     0.037459    11Ap     0.037464    12Ap     0.043212  
       4App    0.053176     5App    0.093282     6App    0.093294  
      13Ap     0.098119    14Ap     0.098158    15Ap     0.098991  
      16Ap     0.117519    17Ap     0.171290    18Ap     0.171300  
       7App    0.212935    19Ap     0.226998    20Ap     0.267272  
      21Ap     0.313929    22Ap     0.314229     8App    0.337671  
       9App    0.337938    23Ap     0.369953    24Ap     0.370033  
      25Ap     0.624995    10App    0.687297    26Ap     0.694096  
      27Ap     0.694357    28Ap     0.775707    29Ap     0.775958  
      30Ap     0.817503    11App    0.841785    12App    0.842327  
      31Ap     0.885119    13App    0.982387    32Ap     1.074504  
      14App    1.077249    15App    1.077664    33Ap     1.141503  
      34Ap     1.141685    35Ap     1.330905    36Ap     1.331018  
      37Ap     1.597864    16App    1.859022    17App    1.859174  
      38Ap     1.927967    39Ap     1.928187    18App    1.970416  
      19App    2.051879    40Ap     2.201717    41Ap     2.316284  
      42Ap     2.317258    20App    2.546029    21App    2.547291  
      43Ap     2.561060    44Ap     2.561306    45Ap     2.795586  
      46Ap     4.139649    47Ap     4.424171    48Ap     4.424353  

    Final Occupation by Irrep:
             Ap   App 
    DOCC [     9,    3 ]

  @DF-RKS Final Energy:  -117.83383156623809

   => Energetics <=

    Nuclear Repulsion Energy =             75.2762678161621892
    One-Electron Energy =                -305.7302726367341847
    Two-Electron Energy =                 121.5106048088339747
    DFT Exchange-Correlation Energy =      -8.8904315545000880
    Empirical Dispersion Energy =           0.0000000000000000
    VV10 Nonlocal Energy =                  0.0000000000000000
    Total Energy =                       -117.8338315662380893

Computation Completed


Properties will be evaluated at   0.000000,   0.000000,   0.000000 [a0]

Properties computed using the SCF density matrix

  Nuclear Dipole Moment: [e a0]
     X:    -0.0019      Y:    -0.0002      Z:     0.0000

  Electronic Dipole Moment: [e a0]
     X:     0.0021      Y:    -0.0002      Z:     0.0000

  Dipole Moment: [e a0]
     X:     0.0002      Y:    -0.0003      Z:     0.0000     Total:     0.0004

  Dipole Moment: [D]
     X:     0.0005      Y:    -0.0009      Z:     0.0000     Total:     0.0010


*** tstop() called on atlantis at Tue Apr 19 10:16:21 2022
Module time:
	user time   =      10.51 seconds =       0.18 minutes
	system time =       0.04 seconds =       0.00 minutes
	total time  =         10 seconds =       0.17 minutes
Total time:
	user time   =      54.94 seconds =       0.92 minutes
	system time =       0.36 seconds =       0.01 minutes
	total time  =         55 seconds =       0.92 minutes

*** tstart() called on atlantis
*** at Tue Apr 19 10:16:21 2022


         ------------------------------------------------------------
                                   SCF GRAD                          
                          Rob Parrish, Justin Turney,                
                       Andy Simmonett, and Alex Sokolov              
         ------------------------------------------------------------

  ==> Geometry <==

    Molecular point group: cs
    Full point group: Cs

    Geometry (in Angstrom), charge = 0, multiplicity = 1:

       Center              X                  Y                   Z               Mass       
    ------------   -----------------  -----------------  -----------------  -----------------
         C            0.322081944250     0.813343688021     0.000000000000    12.000000000000
         C           -0.865318003082    -0.128389764139     0.000000000000    12.000000000000
         C            0.543404419293    -0.684939538412     0.000000000000    12.000000000000
         H            0.537301240642     1.360829034576    -0.920390000000     1.007825032230
         H            0.537301240642     1.360829034576     0.920390000000     1.007825032230
         H           -1.447665927882    -0.214858697572     0.920340000000     1.007825032230
         H           -1.447665927882    -0.214858697572    -0.920340000000     1.007825032230
         H            0.909362367658    -1.146055979665    -0.920370000000     1.007825032230
         H            0.909362367658    -1.146055979665     0.920370000000     1.007825032230

  Nuclear repulsion =   75.276267816162189

  ==> Basis Set <==

  Basis Set: 6-31+G*
    Blend: 6-31+G*
    Number of shells: 36
    Number of basis function: 69
    Number of Cartesian functions: 69
    Spherical Harmonics?: false
    Max angular momentum: 2

  ==> DFJKGrad: Density-Fitted SCF Gradients <==

    Gradient:                    1
    J tasked:                  Yes
    K tasked:                  Yes
    wK tasked:                  No
    OpenMP threads:              1
    Integrals threads:           1
    Memory [MiB]:              375
    Schwarz Cutoff:          0E+00
    Fitting Condition:       1E-10

   => Auxiliary Basis Set <=

  Basis Set: (6-31+G* AUX)
    Blend: HEAVY-AUG-CC-PVDZ-JKFIT
    Number of shells: 138
    Number of basis function: 453
    Number of Cartesian functions: 453
    Spherical Harmonics?: false
    Max angular momentum: 3

  ==> DFT Potential <==

   => Composite Functional: M06-2X <= 

    Hybrid M06-2X Meta-GGA XC Functional

    Y. Zhao and D. G. Truhlar,  Theor. Chem. Acc., 120, 215, 2008


    Deriv               =              1
    GGA                 =           TRUE
    Meta                =           TRUE

    Exchange Hybrid     =           TRUE
    MP2 Hybrid          =          FALSE

   => Exchange Functionals <=

    1.0000   XC_HYB_MGGA_X_M06_2X

   => Exact (HF) Exchange <=

    0.5400               HF 

   => Correlation Functionals <=

    1.0000   XC_MGGA_C_M06_2X

   => Molecular Quadrature <=

    Radial Scheme          =       TREUTLER
    Pruning Scheme         =           FLAT
    Nuclear Scheme         =       TREUTLER

    BS radius alpha        =              1
    Pruning alpha          =              1
    Radial Points          =             75
    Spherical Points       =            302
    Total Points           =         203850
    Total Blocks           =           1573
    Max Points             =            256
    Max Functions          =             69


  -Total Gradient:
     Atom            X                  Y                   Z
    ------   -----------------  -----------------  -----------------
       1        0.002400154685     0.004945578967     0.000000000000
       2       -0.005201448387    -0.000874021667     0.000000000000
       3        0.003078193645    -0.003865226978     0.000000000000
       4        0.000901563593     0.002443045230    -0.004533446532
       5        0.000901563593     0.002443045230     0.004533446532
       6       -0.002673230115    -0.000418899525     0.004624960602
       7       -0.002673230115    -0.000418899525    -0.004624960602
       8        0.001677742729    -0.002076541975    -0.004654069550
       9        0.001677742729    -0.002076541975     0.004654069550


*** tstop() called on atlantis at Tue Apr 19 10:16:23 2022
Module time:
	user time   =       1.57 seconds =       0.03 minutes
	system time =       0.01 seconds =       0.00 minutes
	total time  =          2 seconds =       0.03 minutes
Total time:
	user time   =      56.51 seconds =       0.94 minutes
	system time =       0.37 seconds =       0.01 minutes
	total time  =         57 seconds =       0.95 minutes

  //>>>>>>>>>>>>>>>>>>>>>>>>>>>>>>>>>>>//
  //    Loading displacement 4 of 34   //
  //<<<<<<<<<<<<<<<<<<<<<<<<<<<<<<<<<<<//
gradient() will perform analytic gradient computation.

*** tstart() called on atlantis
*** at Tue Apr 19 10:16:23 2022

   => Loading Basis Set <=

    Name: 6-31+G*
    Role: ORBITAL
    Keyword: BASIS
    atoms 1-3 entry C          line   119 file /home/akrom/software/anaconda3/envs/ffpenv/share/psi4/basis/6-31pgs.gbs 
    atoms 4-9 entry H          line    46 file /home/akrom/software/anaconda3/envs/ffpenv/share/psi4/basis/6-31pgs.gbs 


         ---------------------------------------------------------
                                   SCF
               by Justin Turney, Rob Parrish, Andy Simmonett
                          and Daniel G. A. Smith
                              RKS Reference
                        1 Threads,    500 MiB Core
         ---------------------------------------------------------

  ==> Geometry <==

    Molecular point group: cs
    Full point group: Cs

    Geometry (in Angstrom), charge = 0, multiplicity = 1:

       Center              X                  Y                   Z               Mass       
    ------------   -----------------  -----------------  -----------------  -----------------
         C            0.321531939855     0.812635159068     0.000000000000    12.000000000000
         C           -0.865072120902    -0.128008550426     0.000000000000    12.000000000000
         C            0.543576026536    -0.684746186637     0.000000000000    12.000000000000
         H            0.537745691682     1.361023130555    -0.920390000000     1.007825032230
         H            0.537745691682     1.361023130555     0.920390000000     1.007825032230
         H           -1.447431558178    -0.214399813329     0.920340000000     1.007825032230
         H           -1.447431558178    -0.214399813329    -0.920340000000     1.007825032230
         H            0.909472463446    -1.145911419873    -0.920370000000     1.007825032230
         H            0.909472463446    -1.145911419873     0.920370000000     1.007825032230

  Running in cs symmetry.

  Rotational constants: A =      0.66518  B =      0.66468  C =      0.41665 [cm^-1]
  Rotational constants: A =  19941.69418  B =  19926.66026  C =  12490.72376 [MHz]
  Nuclear repulsion =   75.292327113354389

  Charge       = 0
  Multiplicity = 1
  Electrons    = 24
  Nalpha       = 12
  Nbeta        = 12

  ==> Algorithm <==

  SCF Algorithm Type is DF.
  DIIS enabled.
  MOM disabled.
  Fractional occupation disabled.
  Guess Type is SAD.
  Energy threshold   = 1.00e-08
  Density threshold  = 1.00e-08
  Integral threshold = 0.00e+00

  ==> Primary Basis <==

  Basis Set: 6-31+G*
    Blend: 6-31+G*
    Number of shells: 36
    Number of basis function: 69
    Number of Cartesian functions: 69
    Spherical Harmonics?: false
    Max angular momentum: 2

  ==> DFT Potential <==

   => Composite Functional: M06-2X <= 

    Hybrid M06-2X Meta-GGA XC Functional

    Y. Zhao and D. G. Truhlar,  Theor. Chem. Acc., 120, 215, 2008


    Deriv               =              1
    GGA                 =           TRUE
    Meta                =           TRUE

    Exchange Hybrid     =           TRUE
    MP2 Hybrid          =          FALSE

   => Exchange Functionals <=

    1.0000   XC_HYB_MGGA_X_M06_2X

   => Exact (HF) Exchange <=

    0.5400               HF 

   => Correlation Functionals <=

    1.0000   XC_MGGA_C_M06_2X

   => Molecular Quadrature <=

    Radial Scheme          =       TREUTLER
    Pruning Scheme         =           FLAT
    Nuclear Scheme         =       TREUTLER

    BS radius alpha        =              1
    Pruning alpha          =              1
    Radial Points          =             75
    Spherical Points       =            302
    Total Points           =         203850
    Total Blocks           =           1577
    Max Points             =            256
    Max Functions          =             69

   => Loading Basis Set <=

    Name: (6-31+G* AUX)
    Role: JKFIT
    Keyword: DF_BASIS_SCF
    atoms 1-3 entry C          line   194 file /home/akrom/software/anaconda3/envs/ffpenv/share/psi4/basis/heavy-aug-cc-pvdz-jkfit.gbs 
    atoms 4-9 entry H          line   116 file /home/akrom/software/anaconda3/envs/ffpenv/share/psi4/basis/heavy-aug-cc-pvdz-jkfit.gbs 

  ==> Pre-Iterations <==

   -------------------------------------------------------
    Irrep   Nso     Nmo     Nalpha   Nbeta   Ndocc  Nsocc
   -------------------------------------------------------
     A'        48      48       0       0       0       0
     A"        21      21       0       0       0       0
   -------------------------------------------------------
    Total      69      69      12      12      12       0
   -------------------------------------------------------

  ==> Integral Setup <==

  DFHelper Memory: AOs need 0.019 GiB; user supplied 0.019 GiB. Using in-core AOs.

  ==> MemDFJK: Density-Fitted J/K Matrices <==

    J tasked:                   Yes
    K tasked:                   Yes
    wK tasked:                   No
    OpenMP threads:               1
    Memory [MiB]:                19
    Algorithm:                 Core
    Schwarz Cutoff:           1E-12
    Mask sparsity (%):       0.0000
    Fitting Condition:        1E-10

   => Auxiliary Basis Set <=

  Basis Set: (6-31+G* AUX)
    Blend: HEAVY-AUG-CC-PVDZ-JKFIT
    Number of shells: 138
    Number of basis function: 453
    Number of Cartesian functions: 453
    Spherical Harmonics?: false
    Max angular momentum: 3

  Cached 50.0% of DFT collocation blocks in 0.468 [GiB].

  Minimum eigenvalue in the overlap matrix is 1.9447573854E-04.
  Using Symmetric Orthogonalization.

  SCF Guess: Superposition of Atomic Densities via on-the-fly atomic UHF.

  ==> Iterations <==

                           Total Energy        Delta E     RMS |[F,P]|

   @DF-RKS iter SAD:  -117.38579302554948   -1.17386e+02   0.00000e+00 
   @DF-RKS iter   1:  -117.57153038109948   -1.85737e-01   1.34064e-02 DIIS
   @DF-RKS iter   2:  -117.57822795394462   -6.69757e-03   1.31758e-02 DIIS
   @DF-RKS iter   3:  -117.83337650249204   -2.55149e-01   5.30016e-04 DIIS
   @DF-RKS iter   4:  -117.83381325970811   -4.36757e-04   6.60474e-05 DIIS
   @DF-RKS iter   5:  -117.83382475862388   -1.14989e-05   1.34608e-05 DIIS
   @DF-RKS iter   6:  -117.83382526545597   -5.06832e-07   1.67765e-06 DIIS
   @DF-RKS iter   7:  -117.83382527451185   -9.05588e-09   1.10314e-06 DIIS
   @DF-RKS iter   8:  -117.83382527621212   -1.70027e-09   1.47389e-07 DIIS
   @DF-RKS iter   9:  -117.83382527626357   -5.14433e-11   1.01058e-08 DIIS
   @DF-RKS iter  10:  -117.83382527626385   -2.84217e-13   6.63297e-10 DIIS
  Energy and wave function converged.


  ==> Post-Iterations <==

    Orbital Energies [Eh]
    ---------------------

    Doubly Occupied:                                                      

       1Ap   -10.548888     2Ap   -10.548324     3Ap   -10.548295  
       4Ap    -0.944534     5Ap    -0.678904     6Ap    -0.678739  
       1App   -0.565794     7Ap    -0.528791     2App   -0.425504  
       3App   -0.425277     8Ap    -0.349032     9Ap    -0.348748  

    Virtual:                                                              

      10Ap     0.037456    11Ap     0.037462    12Ap     0.043201  
       4App    0.053144     5App    0.093292     6App    0.093311  
      13Ap     0.098111    14Ap     0.098140    15Ap     0.098994  
      16Ap     0.117569    17Ap     0.171285    18Ap     0.171293  
       7App    0.212781    19Ap     0.227213    20Ap     0.267229  
      21Ap     0.314125    22Ap     0.314383     8App    0.337652  
[...]

    Exchange Hybrid     =           TRUE
    MP2 Hybrid          =          FALSE

   => Exchange Functionals <=

    1.0000   XC_HYB_MGGA_X_M06_2X

   => Exact (HF) Exchange <=

    0.5400               HF 

   => Correlation Functionals <=

    1.0000   XC_MGGA_C_M06_2X

   => Molecular Quadrature <=

    Radial Scheme          =       TREUTLER
    Pruning Scheme         =           FLAT
    Nuclear Scheme         =       TREUTLER

    BS radius alpha        =              1
    Pruning alpha          =              1
    Radial Points          =             75
    Spherical Points       =            302
    Total Points           =         203850
    Total Blocks           =           1569
    Max Points             =            256
    Max Functions          =             69


  -Total Gradient:
     Atom            X                  Y                   Z
    ------   -----------------  -----------------  -----------------
       1        0.001862249038     0.004660508658     0.000005933171
       2       -0.004918283752    -0.000703355104     0.000452102862
       3        0.003147224321    -0.003951385065    -0.001259714361
       4        0.000998008534     0.002492393041    -0.004627505544
       5        0.001002283313     0.002505294387     0.004624466795
       6       -0.002487537983    -0.000385755398     0.004335990401
       7       -0.002841269099    -0.000394477298    -0.004903850480
       8        0.001351083615    -0.001783140488    -0.003927991201
       9        0.002079544643    -0.002508130529     0.005298785671


*** tstop() called on atlantis at Tue Apr 19 10:22:31 2022
Module time:
	user time   =       1.58 seconds =       0.03 minutes
	system time =       0.01 seconds =       0.00 minutes
	total time  =          1 seconds =       0.02 minutes
Total time:
	user time   =     423.38 seconds =       7.06 minutes
	system time =       1.56 seconds =       0.03 minutes
	total time  =        425 seconds =       7.08 minutes

         ----------------------------------------------------------
                                   FINDIF
                     R. A. King and Jonathon Misiewicz
         ---------------------------------------------------------

  Computing second-derivative from gradients using projected, 
  symmetry-adapted, cartesian coordinates.

  34 gradients passed in, including the reference geometry.
  Generating complete list of displacements from unique ones.

    Operation 2 takes plus displacements of irrep A" to minus ones.

-------------------------------------------------------------


  ==> Harmonic Vibrational Analysis <==

  non-mass-weighted Hessian:       Symmetric? True   Hermitian? True   Lin Dep Dim?  6 (0)
  projection of translations (True) and rotations (True) removed 6 degrees of freedom (6)
  total projector:                 Symmetric? True   Hermitian? True   Lin Dep Dim?  6 (6)
  mass-weighted Hessian:           Symmetric? True   Hermitian? True   Lin Dep Dim?  6 (0)
  pre-proj  low-frequency mode:    0.0000i [cm^-1]
  pre-proj  low-frequency mode:    0.0000i [cm^-1]
  pre-proj  low-frequency mode:    0.0000i [cm^-1]
  pre-proj  low-frequency mode:    0.0000i [cm^-1]
  pre-proj  low-frequency mode:    0.0000  [cm^-1]
  pre-proj  low-frequency mode:    0.0000  [cm^-1]
  pre-proj  all modes:['0.0000i' '0.0000i' '0.0000i' '0.0000i' '0.0000' '0.0000' '781.2811'
 '784.3251' '892.8311' '900.2837' '903.8253' '1071.7239' '1079.0939'
 '1111.3141' '1172.2634' '1214.1437' '1226.8970' '1228.7792' '1487.6398'
 '1502.2785' '1551.9063' '3114.2721' '3117.7126' '3122.9928' '3193.9964'
 '3194.6861' '3212.4563']
  projected mass-weighted Hessian: Symmetric? True   Hermitian? True   Lin Dep Dim?  6 (6)
  post-proj low-frequency mode:    0.0000i [cm^-1] (TR)
  post-proj low-frequency mode:    0.0000i [cm^-1] (TR)
  post-proj low-frequency mode:    0.0000i [cm^-1] (TR)
  post-proj low-frequency mode:    0.0000i [cm^-1] (TR)
  post-proj low-frequency mode:    0.0000  [cm^-1] (TR)
  post-proj low-frequency mode:    0.0000  [cm^-1] (TR)
  post-proj  all modes:['0.0000i' '0.0000i' '0.0000i' '0.0000i' '0.0000' '0.0000' '781.2811'
 '784.3251' '892.8311' '900.2837' '903.8253' '1071.7239' '1079.0939'
 '1111.3141' '1172.2634' '1214.1437' '1226.8970' '1228.7792' '1487.6398'
 '1502.2785' '1551.9063' '3114.2721' '3117.7126' '3122.9928' '3193.9964'
 '3194.6861' '3212.4563']

  Vibration                       7                   8                   9           
  Freq [cm^-1]                 781.2811            784.3251            892.8311       
  Irrep                          App                 App                 App          
  Reduced mass [u]              1.0217              1.0224              1.0440        
  Force const [mDyne/A]         0.3674              0.3706              0.4903        
  Turning point v=0 [a0]        0.3884              0.3875              0.3594        
  RMS dev v=0 [a0 u^1/2]        0.2776              0.2770              0.2597        
  Char temp [K]               1124.0896           1128.4692           1284.5851       
  ----------------------------------------------------------------------------------
      1   C                0.00 -0.00 -0.00   -0.00 -0.00  0.03    0.00  0.00 -0.03   
      2   C               -0.00 -0.00 -0.02   -0.00  0.00 -0.02    0.00 -0.00 -0.03   
      3   C               -0.00  0.00  0.03    0.00  0.00 -0.01   -0.00 -0.00 -0.03   
      4   H                0.43 -0.11  0.03   -0.05 -0.32 -0.18    0.12  0.34  0.20   
      5   H               -0.43  0.11  0.03    0.05  0.32 -0.18   -0.12 -0.34  0.20   
      6   H                0.22  0.32  0.14    0.25 -0.31  0.11    0.35  0.04  0.19   
      7   H               -0.22 -0.32  0.14   -0.25  0.31  0.11   -0.35 -0.04  0.19   
      8   H               -0.06  0.32 -0.16    0.39  0.17  0.06    0.22 -0.29  0.20   
      9   H                0.06 -0.32 -0.16   -0.39 -0.17  0.06   -0.22  0.29  0.20   

  Vibration                       10                  11                  12          
  Freq [cm^-1]                 900.2837            903.8253           1071.7239       
  Irrep                           Ap                  Ap                  Ap          
  Reduced mass [u]              3.5435              3.8059              1.2839        
  Force const [mDyne/A]         1.6922              1.8318              0.8689        
  Turning point v=0 [a0]        0.1943              0.1871              0.2958        
  RMS dev v=0 [a0 u^1/2]        0.2586              0.2581              0.2370        
  Char temp [K]               1295.3078           1300.4033           1541.9721       
  ----------------------------------------------------------------------------------
      1   C               -0.04  0.28  0.00    0.28  0.07  0.00   -0.06  0.05  0.00   
      2   C                0.27 -0.09  0.00   -0.11 -0.26  0.00    0.03 -0.05  0.00   
      3   C               -0.19 -0.17  0.00   -0.21  0.21  0.00   -0.08 -0.09  0.00   
      4   H               -0.14  0.29 -0.02    0.39  0.03 -0.00    0.26 -0.08 -0.00   
      5   H               -0.14  0.29  0.02    0.39  0.03  0.00    0.26 -0.08  0.00   
      6   H                0.24 -0.15 -0.03   -0.07 -0.38  0.01   -0.05  0.32 -0.02   
      7   H                0.24 -0.15  0.03   -0.07 -0.38 -0.01   -0.05  0.32  0.02   
      8   H               -0.34 -0.28 -0.00   -0.09  0.26  0.03    0.45  0.33  0.00   
      9   H               -0.34 -0.28  0.00   -0.09  0.26 -0.03    0.45  0.33 -0.00   

  Vibration                       13                  14                  15          
  Freq [cm^-1]                1079.0939           1111.3141           1172.2634       
  Irrep                           Ap                  Ap                 App          
  Reduced mass [u]              1.3060              1.3680              1.0081        
  Force const [mDyne/A]         0.8960              0.9954              0.8162        
  Turning point v=0 [a0]        0.2923              0.2814              0.3192        
  RMS dev v=0 [a0 u^1/2]        0.2362              0.2327              0.2266        
  Char temp [K]               1552.5759           1598.9336           1686.6261       
  ----------------------------------------------------------------------------------
      1   C                0.05 -0.03  0.00   -0.13  0.04 -0.00    0.00  0.00  0.00   
      2   C                0.02 -0.14  0.00    0.02 -0.06  0.00   -0.00  0.00 -0.00   
      3   C                0.01  0.07  0.00    0.07  0.07  0.00    0.00 -0.00  0.00   
      4   H               -0.29  0.07 -0.02    0.53 -0.24 -0.01   -0.39  0.14 -0.00   
      5   H               -0.29  0.07  0.02    0.53 -0.24  0.01    0.39 -0.14 -0.00   
      6   H               -0.04  0.60  0.03    0.02  0.12  0.01   -0.05  0.41  0.00   
      7   H               -0.04  0.60 -0.03    0.02  0.12 -0.01    0.05 -0.41  0.00   
      8   H               -0.15 -0.08  0.01   -0.31 -0.18 -0.02    0.31  0.25 -0.00   
      9   H               -0.15 -0.08 -0.01   -0.31 -0.18  0.02   -0.31 -0.25 -0.00   

  Vibration                       16                  17                  18          
  Freq [cm^-1]                1214.1437           1226.8970           1228.7792       
  Irrep                           Ap                 App                 App          
  Reduced mass [u]              2.6462              1.4464              1.4489        
  Force const [mDyne/A]         2.2983              1.2828              1.2890        
  Turning point v=0 [a0]        0.1936              0.2605              0.2600        
  RMS dev v=0 [a0 u^1/2]        0.2227              0.2215              0.2213        
  Char temp [K]               1746.8825           1765.2316           1767.9397       
  ----------------------------------------------------------------------------------
      1   C               -0.07 -0.20  0.00   -0.00 -0.00 -0.11    0.00  0.00 -0.12   
      2   C                0.22  0.06 -0.00    0.00  0.00  0.16   -0.00 -0.00 -0.03   
      3   C               -0.17  0.15  0.00   -0.00  0.00 -0.05    0.00 -0.00  0.16   
      4   H               -0.15 -0.34 -0.07    0.36  0.15  0.06   -0.13  0.37  0.06   
      5   H               -0.15 -0.34  0.07   -0.36 -0.15  0.06    0.13 -0.37  0.06   
      6   H                0.36 -0.06  0.05   -0.37 -0.12 -0.08    0.14 -0.36  0.02   
      7   H                0.36 -0.06 -0.05    0.37  0.12 -0.08   -0.14  0.36  0.02   
      8   H               -0.13  0.36 -0.06    0.38  0.14  0.03   -0.14  0.38 -0.08   
      9   H               -0.13  0.36  0.06   -0.38 -0.14  0.03    0.14 -0.38 -0.08   

  Vibration                       19                  20                  21          
  Freq [cm^-1]                1487.6398           1502.2785           1551.9063       
  Irrep                           Ap                  Ap                  Ap          
  Reduced mass [u]              1.0974              1.0890              1.3239        
  Force const [mDyne/A]         1.4309              1.4480              1.8786        
  Turning point v=0 [a0]        0.2716              0.2713              0.2421        
  RMS dev v=0 [a0 u^1/2]        0.2012              0.2002              0.1970        
  Char temp [K]               2140.3824           2161.4442           2232.8477       
  ----------------------------------------------------------------------------------
      1   C               -0.03 -0.07  0.00   -0.01  0.00  0.00   -0.04 -0.09  0.00   
      2   C               -0.02 -0.01  0.00   -0.06 -0.00 -0.00    0.10  0.01 -0.00   
      3   C                0.01 -0.03 -0.00   -0.04  0.04  0.00   -0.06  0.08  0.00   
      4   H                0.17  0.45  0.34    0.02  0.01  0.01    0.11  0.26  0.24   
      5   H                0.17  0.45 -0.34    0.02  0.01 -0.01    0.11  0.26 -0.24   
      6   H                0.21  0.04  0.14    0.42  0.04  0.29   -0.32 -0.03 -0.26   
      7   H                0.21  0.04 -0.14    0.42  0.04 -0.29   -0.32 -0.03  0.26   
      8   H               -0.14  0.19 -0.17    0.25 -0.31  0.28    0.18 -0.27  0.26   
      9   H               -0.14  0.19  0.17    0.25 -0.31 -0.28    0.18 -0.27 -0.26   

  Vibration                       22                  23                  24          
  Freq [cm^-1]                3114.2721           3117.7126           3122.9928       
  Irrep                           Ap                  Ap                  Ap          
  Reduced mass [u]              1.0501              1.0507              1.0631        
  Force const [mDyne/A]         6.0007              6.0171              6.1088        
  Turning point v=0 [a0]        0.1919              0.1917              0.1904        
  RMS dev v=0 [a0 u^1/2]        0.1390              0.1390              0.1388        
  Char temp [K]               4480.7442           4485.6943           4493.2913       
  ----------------------------------------------------------------------------------
      1   C                0.02  0.04  0.00    0.00  0.01  0.00    0.02  0.04  0.00   
      2   C                0.01  0.00 -0.00    0.05  0.01 -0.00   -0.04 -0.01  0.00   
      3   C               -0.02  0.03  0.00    0.02 -0.02 -0.00    0.03 -0.03 -0.00   
      4   H               -0.10 -0.26  0.45   -0.03 -0.08  0.14   -0.08 -0.21  0.38   
      5   H               -0.10 -0.26 -0.45   -0.03 -0.08 -0.14   -0.08 -0.21 -0.38   
      6   H               -0.05 -0.01  0.09   -0.31 -0.04  0.52    0.18  0.03 -0.29   
      7   H               -0.05 -0.01 -0.09   -0.31 -0.04 -0.52    0.18  0.03  0.29   
      8   H                0.15 -0.18 -0.39   -0.11  0.13  0.27   -0.14  0.17  0.37   
      9   H                0.15 -0.18  0.39   -0.11  0.13 -0.27   -0.14  0.17 -0.37   

  Vibration                       25                  26                  27          
  Freq [cm^-1]                3193.9964           3194.6861           3212.4563       
  Irrep                          App                 App                 App          
  Reduced mass [u]              1.1211              1.1208              1.1162        
  Force const [mDyne/A]         6.7384              6.7398              6.7868        
  Turning point v=0 [a0]        0.1834              0.1834              0.1832        
  RMS dev v=0 [a0 u^1/2]        0.1373              0.1373              0.1369        
  Char temp [K]               4595.4497           4596.4420           4622.0094       
  ----------------------------------------------------------------------------------
      1   C               -0.00 -0.00  0.02    0.00 -0.00 -0.08   -0.00 -0.00 -0.06   
      2   C               -0.00  0.00  0.06    0.00 -0.00  0.06   -0.00 -0.00 -0.06   
      3   C               -0.00  0.00 -0.08    0.00  0.00  0.02   -0.00  0.00 -0.06   
      4   H                0.03  0.07 -0.12   -0.11 -0.28  0.47   -0.08 -0.21  0.35   
      5   H               -0.03 -0.07 -0.12    0.11  0.28  0.47    0.08  0.21  0.35   
      6   H                0.21  0.03 -0.34    0.22  0.03 -0.35   -0.22 -0.03  0.34   
      7   H               -0.21 -0.03 -0.34   -0.22 -0.03 -0.35    0.22  0.03  0.34   
      8   H               -0.19  0.24  0.47    0.05 -0.06 -0.12   -0.13  0.17  0.33   
      9   H                0.19 -0.24  0.47   -0.05  0.06 -0.12    0.13 -0.17  0.33   

  ==> Thermochemistry Components <==

  Entropy, S
    Electronic S            0.000 [cal/(mol K)]        0.000 [J/(mol K)]       0.00000000 [mEh/K] (multiplicity = 1)
    Translational S        37.135 [cal/(mol K)]      155.375 [J/(mol K)]       0.05917914 [mEh/K] (mol. weight = 42.0470 [u], P = 101325.00 [Pa])
    Rotational S           21.699 [cal/(mol K)]       90.789 [J/(mol K)]       0.03457982 [mEh/K] (symmetry no. = 1)
    Vibrational S           1.254 [cal/(mol K)]        5.248 [J/(mol K)]       0.00199868 [mEh/K]
  Total S                  60.089 [cal/(mol K)]      251.412 [J/(mol K)]       0.09575764 [mEh/K]
  Correction S              0.000 [cal/(mol K)]        0.000 [J/(mol K)]       0.00000000 [mEh/K]

  Constant volume heat capacity, Cv
    Electronic Cv           0.000 [cal/(mol K)]        0.000 [J/(mol K)]       0.00000000 [mEh/K]
    Translational Cv        2.981 [cal/(mol K)]       12.472 [J/(mol K)]       0.00475022 [mEh/K]
    Rotational Cv           2.981 [cal/(mol K)]       12.472 [J/(mol K)]       0.00475022 [mEh/K]
    Vibrational Cv          4.747 [cal/(mol K)]       19.862 [J/(mol K)]       0.00756502 [mEh/K]
  Total Cv                 10.709 [cal/(mol K)]       44.805 [J/(mol K)]       0.01706545 [mEh/K]
  Correction Cv             0.000 [cal/(mol K)]        0.000 [J/(mol K)]       0.00000000 [mEh/K]

  Constant pressure heat capacity, Cp
    Electronic Cp           0.000 [cal/(mol K)]        0.000 [J/(mol K)]       0.00000000 [mEh/K]
    Translational Cp        4.968 [cal/(mol K)]       20.786 [J/(mol K)]       0.00791703 [mEh/K]
    Rotational Cp           2.981 [cal/(mol K)]       12.472 [J/(mol K)]       0.00475022 [mEh/K]
    Vibrational Cp          4.747 [cal/(mol K)]       19.862 [J/(mol K)]       0.00756502 [mEh/K]
  Total Cp                 12.696 [cal/(mol K)]       53.120 [J/(mol K)]       0.02023226 [mEh/K]
  Correction Cp             0.000 [cal/(mol K)]        0.000 [J/(mol K)]       0.00000000 [mEh/K]

  ==> Thermochemistry Energy Analysis <==

  Raw electronic energy, E0
  Total E0, Electronic energy at well bottom at 0 [K]                 -117.83382012 [Eh]

  Zero-point energy, ZPE_vib = Sum_i nu_i / 2
    Electronic ZPE          0.000 [kcal/mol]        0.000 [kJ/mol]       0.00000000 [Eh]
    Translational ZPE       0.000 [kcal/mol]        0.000 [kJ/mol]       0.00000000 [Eh]
    Rotational ZPE          0.000 [kcal/mol]        0.000 [kJ/mol]       0.00000000 [Eh]
    Vibrational ZPE        51.271 [kcal/mol]      214.519 [kJ/mol]       0.08170580 [Eh]       17932.351 [cm^-1]
  Correction ZPE           51.271 [kcal/mol]      214.519 [kJ/mol]       0.08170580 [Eh]       17932.351 [cm^-1]
  Total ZPE, Electronic energy at 0 [K]                               -117.75211432 [Eh]

  Thermal Energy, E (includes ZPE)
    Electronic E            0.000 [kcal/mol]        0.000 [kJ/mol]       0.00000000 [Eh]
    Translational E         0.889 [kcal/mol]        3.718 [kJ/mol]       0.00141628 [Eh]
    Rotational E            0.889 [kcal/mol]        3.718 [kJ/mol]       0.00141628 [Eh]
    Vibrational E          51.577 [kcal/mol]      215.797 [kJ/mol]       0.08219279 [Eh]
  Correction E             53.354 [kcal/mol]      223.234 [kJ/mol]       0.08502534 [Eh]
  Total E, Electronic energy at  298.15 [K]                           -117.74879478 [Eh]

  Enthalpy, H_trans = E_trans + k_B * T
    Electronic H            0.000 [kcal/mol]        0.000 [kJ/mol]       0.00000000 [Eh]
    Translational H         1.481 [kcal/mol]        6.197 [kJ/mol]       0.00236046 [Eh]
    Rotational H            0.889 [kcal/mol]        3.718 [kJ/mol]       0.00141628 [Eh]
    Vibrational H          51.577 [kcal/mol]      215.797 [kJ/mol]       0.08219279 [Eh]
  Correction H             53.947 [kcal/mol]      225.713 [kJ/mol]       0.08596953 [Eh]
  Total H, Enthalpy at  298.15 [K]                                    -117.74785059 [Eh]

  Gibbs free energy, G = H - T * S
    Electronic G            0.000 [kcal/mol]        0.000 [kJ/mol]       0.00000000 [Eh]
    Translational G        -9.591 [kcal/mol]      -40.128 [kJ/mol]      -0.01528380 [Eh]
    Rotational G           -5.581 [kcal/mol]      -23.350 [kJ/mol]      -0.00889370 [Eh]
    Vibrational G          51.203 [kcal/mol]      214.233 [kJ/mol]       0.08159688 [Eh]
  Correction G             36.031 [kcal/mol]      150.755 [kJ/mol]       0.05741939 [Eh]
  Total G, Free enthalpy at  298.15 [K]                               -117.77640073 [Eh]

    Psi4 stopped on: Tuesday, 19 April 2022 10:22AM
    Psi4 wall time for execution: 0:07:05.70

*** Psi4 exiting successfully. Buy a developer a beer!
