
    -----------------------------------------------------------------------
          Psi4: An Open-Source Ab Initio Electronic Structure Package
                               Psi4 1.3.2 release

                         Git: Rev {HEAD} ecbda83 


    R. M. Parrish, L. A. Burns, D. G. A. Smith, A. C. Simmonett,
    A. E. DePrince III, E. G. Hohenstein, U. Bozkaya, A. Yu. Sokolov,
    R. Di Remigio, R. M. Richard, J. F. Gonthier, A. M. James,
    H. R. McAlexander, A. Kumar, M. Saitow, X. Wang, B. P. Pritchard,
    P. Verma, H. F. Schaefer III, K. Patkowski, R. A. King, E. F. Valeev,
    F. A. Evangelista, J. M. Turney, T. D. Crawford, and C. D. Sherrill,
    J. Chem. Theory Comput. 13(7) pp 3185--3197 (2017).
    (doi: 10.1021/acs.jctc.7b00174)


                         Additional Contributions by
    P. Kraus, H. Kruse, M. H. Lechner, M. C. Schieber, R. A. Shaw,
    A. Alenaizan, R. Galvelis, Z. L. Glick, S. Lehtola, and J. P. Misiewicz

    -----------------------------------------------------------------------


    Psi4 started on: Tuesday, 19 April 2022 12:19AM

    Process ID: 25383
    Host:       atlantis
    PSIDATADIR: /home/akrom/software/anaconda3/envs/ffpenv/share/psi4
    Memory:     500.0 MiB
    Threads:    1
    
  ==> Input File <==

--------------------------------------------------------------------------
set basis  6-31G
molecule {
0 1
   O        0.00000        0.00000       -0.06797
   H        0.74903        0.00000        0.53936
   H       -0.74903        0.00000        0.53936
}
energy('CCSD')
frequencies('CCSD')


--------------------------------------------------------------------------

*** tstart() called on atlantis
*** at Tue Apr 19 00:19:51 2022

   => Loading Basis Set <=

    Name: 6-31G
    Role: ORBITAL
    Keyword: BASIS
    atoms 1   entry O          line   117 file /home/akrom/software/anaconda3/envs/ffpenv/share/psi4/basis/6-31g.gbs 
    atoms 2-3 entry H          line    26 file /home/akrom/software/anaconda3/envs/ffpenv/share/psi4/basis/6-31g.gbs 


         ---------------------------------------------------------
                                   SCF
               by Justin Turney, Rob Parrish, Andy Simmonett
                          and Daniel G. A. Smith
                              RHF Reference
                        1 Threads,    500 MiB Core
         ---------------------------------------------------------

  ==> Geometry <==

    Molecular point group: c2v
    Full point group: C2v

    Geometry (in Angstrom), charge = 0, multiplicity = 1:

       Center              X                  Y                   Z               Mass       
    ------------   -----------------  -----------------  -----------------  -----------------
         O            0.000000000000     0.000000000000    -0.067969259994    15.994914619570
         H            0.749030000000     0.000000000000     0.539360740006     1.007825032230
         H           -0.749030000000    -0.000000000000     0.539360740006     1.007825032230

  Running in c2v symmetry.

  Rotational constants: A =     25.53156  B =     14.90675  C =      9.41168 [cm^-1]
  Rotational constants: A = 765416.81232  B = 446893.08836  C = 282155.15104 [MHz]
  Nuclear repulsion =    9.133433460995141

  Charge       = 0
  Multiplicity = 1
  Electrons    = 10
  Nalpha       = 5
  Nbeta        = 5

  ==> Algorithm <==

  SCF Algorithm Type is PK.
  DIIS enabled.
  MOM disabled.
  Fractional occupation disabled.
  Guess Type is SAD.
  Energy threshold   = 1.00e-08
  Density threshold  = 1.00e-08
  Integral threshold = 0.00e+00

  ==> Primary Basis <==

  Basis Set: 6-31G
    Blend: 6-31G
    Number of shells: 9
    Number of basis function: 13
    Number of Cartesian functions: 13
    Spherical Harmonics?: false
    Max angular momentum: 1

  ==> Pre-Iterations <==

   -------------------------------------------------------
    Irrep   Nso     Nmo     Nalpha   Nbeta   Ndocc  Nsocc
   -------------------------------------------------------
     A1         7       7       0       0       0       0
     A2         0       0       0       0       0       0
     B1         4       4       0       0       0       0
     B2         2       2       0       0       0       0
   -------------------------------------------------------
    Total      13      13       5       5       5       0
   -------------------------------------------------------

  ==> Integral Setup <==

  Using in-core PK algorithm.
   Calculation information:
      Number of atoms:                   3
      Number of AO shells:               9
      Number of primitives:             22
      Number of atomic orbitals:        13
      Number of basis functions:        13

      Integral cutoff                 1.00e-12
      Number of threads:                 1

  Performing in-core PK
  Using 8372 doubles for integral storage.
  We computed 1035 shell quartets total.
  Whereas there are 1035 unique shell quartets.

  ==> DiskJK: Disk-Based J/K Matrices <==

    J tasked:                  Yes
    K tasked:                  Yes
    wK tasked:                  No
    Memory [MiB]:              375
    Schwarz Cutoff:          1E-12

    OpenMP threads:              1

  Minimum eigenvalue in the overlap matrix is 6.8079150050E-02.
  Using Symmetric Orthogonalization.

  SCF Guess: Superposition of Atomic Densities via on-the-fly atomic UHF.

  ==> Iterations <==

                        Total Energy        Delta E     RMS |[F,P]|

   @RHF iter SAD:   -75.51720869773845   -7.55172e+01   0.00000e+00 
   @RHF iter   1:   -75.90765988314385   -3.90451e-01   4.88689e-02 DIIS
   @RHF iter   2:   -75.96279360010050   -5.51337e-02   2.86720e-02 DIIS
   @RHF iter   3:   -75.98232559305833   -1.95320e-02   2.33987e-03 DIIS
   @RHF iter   4:   -75.98265568370780   -3.30091e-04   4.28353e-04 DIIS
   @RHF iter   5:   -75.98266694783256   -1.12641e-05   5.91051e-05 DIIS
   @RHF iter   6:   -75.98266723948248   -2.91650e-07   9.64209e-06 DIIS
   @RHF iter   7:   -75.98266724765297   -8.17049e-09   1.99056e-06 DIIS
   @RHF iter   8:   -75.98266724805083   -3.97861e-10   4.18335e-07 DIIS
   @RHF iter   9:   -75.98266724806487   -1.40403e-11   4.09984e-08 DIIS
   @RHF iter  10:   -75.98266724806510   -2.27374e-13   3.54705e-09 DIIS
  Energy and wave function converged.


  ==> Post-Iterations <==

    Orbital Energies [Eh]
    ---------------------

    Doubly Occupied:                                                      

       1A1   -20.563714     2A1    -1.355547     1B1    -0.701683  
       3A1    -0.564609     1B2    -0.502279  

    Virtual:                                                              

       4A1     0.201419     2B1     0.297419     3B1     1.041022  
       2B2     1.163470     5A1     1.185822     6A1     1.222993  
       4B1     1.374819     7A1     1.704680  

    Final Occupation by Irrep:
             A1    A2    B1    B2 
    DOCC [     3,    0,    1,    1 ]

  @RHF Final Energy:   -75.98266724806510

   => Energetics <=

    Nuclear Repulsion Energy =              9.1334334609951409
    One-Electron Energy =                -122.8565379423109647
    Two-Electron Energy =                  37.7404372332507236
    Total Energy =                        -75.9826672480650984

Computation Completed


Properties will be evaluated at   0.000000,   0.000000,   0.000000 [a0]

Properties computed using the SCF density matrix

  Nuclear Dipole Moment: [e a0]
     X:     0.0000      Y:     0.0000      Z:     1.0109

  Electronic Dipole Moment: [e a0]
     X:     0.0000      Y:     0.0000      Z:     0.0419

  Dipole Moment: [e a0]
     X:     0.0000      Y:     0.0000      Z:     1.0529     Total:     1.0529

  Dipole Moment: [D]
     X:     0.0000      Y:     0.0000      Z:     2.6761     Total:     2.6761


*** tstop() called on atlantis at Tue Apr 19 00:19:51 2022
Module time:
	user time   =       0.22 seconds =       0.00 minutes
	system time =       0.00 seconds =       0.00 minutes
	total time  =          0 seconds =       0.00 minutes
Total time:
	user time   =       0.22 seconds =       0.00 minutes
	system time =       0.00 seconds =       0.00 minutes
	total time  =          0 seconds =       0.00 minutes
 MINTS: Wrapper to libmints.
   by Justin Turney

   Calculation information:
      Number of threads:                 1
      Number of atoms:                   3
      Number of AO shells:               9
      Number of SO shells:               7
      Number of primitives:             22
      Number of atomic orbitals:        13
      Number of basis functions:        13

      Number of irreps:                  4
      Integral cutoff                 0.00e+00
      Number of functions per irrep: [   7    0    4    2 ]

 OEINTS: Overlap, kinetic, potential, dipole, and quadrupole integrals
         stored in file 35.

      Computing two-electron integrals...done
      Computed 1270 non-zero two-electron integrals.
        Stored in file 33.


*** tstart() called on atlantis
*** at Tue Apr 19 00:19:51 2022


	Wfn Parameters:
	--------------------
	Wavefunction         = CCSD
	Number of irreps     = 4
	Number of MOs        = 13
	Number of active MOs = 13
	AO-Basis             = NONE
	Semicanonical        = false
	Reference            = RHF
	Print Level          = 1

	IRREP	# MOs	# FZDC	# DOCC	# SOCC	# VIRT	# FZVR
	-----	-----	------	------	------	------	------
	 A1	   7	    0	    3	    0	    4	    0
	 A2	   0	    0	    0	    0	    0	    0
	 B1	   4	    0	    1	    0	    3	    0
	 B2	   2	    0	    1	    0	    1	    0
	Transforming integrals...
	IWL integrals will be deleted.
	(OO|OO)...
	Presorting SO-basis two-electron integrals.
	Sorting File: SO Ints (nn|nn) nbuckets = 1
	Transforming the one-electron integrals and constructing Fock matrices
	Starting first half-transformation.
	Sorting half-transformed integrals.
	First half integral transformation complete.
	Starting second half-transformation.
	Two-electron integral transformation complete.
	(OO|OV)...
	Starting second half-transformation.
	Two-electron integral transformation complete.
	(OO|VV)...
	Starting second half-transformation.
	Two-electron integral transformation complete.
	(OV|OO)...
	Starting first half-transformation.
	Sorting half-transformed integrals.
	First half integral transformation complete.
	Starting second half-transformation.
	Two-electron integral transformation complete.
	(OV|OV)...
	Starting second half-transformation.
	Two-electron integral transformation complete.
	(OV|VV)...
	Starting second half-transformation.
	Two-electron integral transformation complete.
	(VV|OO)...
	Starting first half-transformation.
	Sorting half-transformed integrals.
	First half integral transformation complete.
	Starting second half-transformation.
	Two-electron integral transformation complete.
	(VV|OV)...
	Starting second half-transformation.
	Two-electron integral transformation complete.
	(VV|VV)...
	Starting second half-transformation.
	Two-electron integral transformation complete.
	Frozen core energy     =      0.00000000000000

	Size of irrep 0 of <ab|cd> integrals:      0.001 (MW) /      0.005 (MB)
	Size of irrep 1 of <ab|cd> integrals:      0.000 (MW) /      0.000 (MB)
	Size of irrep 2 of <ab|cd> integrals:      0.001 (MW) /      0.005 (MB)
	Size of irrep 3 of <ab|cd> integrals:      0.000 (MW) /      0.001 (MB)
	Total:                                     0.001 (MW) /      0.011 (MB)

	Size of irrep 0 of <ia|bc> integrals:      0.000 (MW) /      0.003 (MB)
	Size of irrep 1 of <ia|bc> integrals:      0.000 (MW) /      0.000 (MB)
	Size of irrep 2 of <ia|bc> integrals:      0.000 (MW) /      0.002 (MB)
	Size of irrep 3 of <ia|bc> integrals:      0.000 (MW) /      0.000 (MB)
	Total:                                     0.001 (MW) /      0.006 (MB)

	Size of irrep 0 of tijab amplitudes:       0.000 (MW) /      0.002 (MB)
	Size of irrep 1 of tijab amplitudes:       0.000 (MW) /      0.000 (MB)
	Size of irrep 2 of tijab amplitudes:       0.000 (MW) /      0.001 (MB)
	Size of irrep 3 of tijab amplitudes:       0.000 (MW) /      0.000 (MB)
	Total:                                     0.000 (MW) /      0.004 (MB)

	Nuclear Rep. energy          =      9.13343346099514
	SCF energy                   =    -75.98266724806510
	One-electron energy          =   -122.85653794526664
	Two-electron energy          =     37.74043723620643
	Reference energy             =    -75.98266724806508

*** tstop() called on atlantis at Tue Apr 19 00:19:51 2022
Module time:
	user time   =       0.00 seconds =       0.00 minutes
	system time =       0.01 seconds =       0.00 minutes
	total time  =          0 seconds =       0.00 minutes
Total time:
	user time   =       0.23 seconds =       0.00 minutes
	system time =       0.01 seconds =       0.00 minutes
	total time  =          0 seconds =       0.00 minutes
            **************************
            *                        *
            *        CCENERGY        *
            *                        *
            **************************

    Nuclear Rep. energy (wfn)     =    9.133433460995141
    SCF energy          (wfn)     =  -75.982667248065098
    Reference energy    (file100) =  -75.982667248065084

    Input parameters:
    -----------------
    Wave function   =     CCSD
    Reference wfn   =     RHF
    Brueckner       =     No
    Memory (Mbytes) =     524.3
    Maxiter         =     50
    R_Convergence   =     1.0e-07
    E_Convergence   =     1.0e-06
    Restart         =     Yes
    DIIS            =     Yes
    AO Basis        =     NONE
    ABCD            =     NEW
    Cache Level     =     2
    Cache Type      =     LOW
    Print Level     =     1
    Num. of threads =     1
    # Amps to Print =     10
    Print MP2 Amps? =     No
    Analyze T2 Amps =     No
    Print Pair Ener =     No
    Local CC        =     No
    SCS-MP2         =     False
    SCSN-MP2        =     False
    SCS-CCSD        =     False

MP2 correlation energy -0.1296359154476167
                Solving CC Amplitude Equations
                ------------------------------
  Iter             Energy              RMS        T1Diag      D1Diag    New D1Diag    D2Diag
  ----     ---------------------    ---------   ----------  ----------  ----------   --------
     0        -0.129635915447617    0.000e+00    0.000000    0.000000    0.000000    0.100349
     1        -0.131809906078796    2.805e-02    0.004642    0.009556    0.009556    0.109513
     2        -0.135645603019957    1.056e-02    0.005620    0.011530    0.011530    0.116684
     3        -0.136154525120150    2.566e-03    0.006062    0.012543    0.012543    0.118291
     4        -0.136184520072500    6.176e-04    0.006094    0.012791    0.012791    0.118509
     5        -0.136196310879102    1.760e-04    0.006121    0.012934    0.012934    0.118546
     6        -0.136192759938578    5.118e-05    0.006130    0.012984    0.012984    0.118533
     7        -0.136192231951137    1.186e-05    0.006133    0.012997    0.012997    0.118530
     8        -0.136192207795798    2.401e-06    0.006133    0.012999    0.012999    0.118530
     9        -0.136192146343281    5.659e-07    0.006133    0.012999    0.012999    0.118530
    10        -0.136192154044794    9.413e-08    0.006133    0.012999    0.012999    0.118530

    Iterations converged.


    Largest TIA Amplitudes:
              2   0         0.0109362466
              3   6         0.0088117112
              3   4        -0.0078516524
              4   7        -0.0060928188
              2   3        -0.0057201989
              1   2        -0.0044069533
              1   0        -0.0035006063
              3   5        -0.0029469031
              1   1         0.0023356962
              1   3         0.0011867061

    Largest TIjAb Amplitudes:
      4   4   7   7        -0.0533449981
      3   3   4   4        -0.0437596738
      2   2   2   2        -0.0291917318
      3   3   5   5        -0.0278900196
      3   3   6   6        -0.0276226547
      2   2   1   1        -0.0275197457
      3   4   6   7        -0.0264513899
      4   3   7   6        -0.0264513899
      3   3   4   6        -0.0263214495
      3   3   6   4        -0.0263214495

    SCF energy       (wfn)                    =  -75.982667248065098
    Reference energy (file100)                =  -75.982667248065084

    Opposite-spin MP2 correlation energy      =   -0.099352114689764
    Same-spin MP2 correlation energy          =   -0.030283800757852
    MP2 correlation energy                    =   -0.129635915447617
      * MP2 total energy                      =  -76.112303163512706

    Opposite-spin CCSD correlation energy     =   -0.112011265009837
    Same-spin CCSD correlation energy         =   -0.024180889034957
    CCSD correlation energy                   =   -0.136192154044794
      * CCSD total energy                     =  -76.118859402109877

gradient() will perform analytic gradient computation.

*** tstart() called on atlantis
*** at Tue Apr 19 00:19:52 2022

   => Loading Basis Set <=

    Name: 6-31G
    Role: ORBITAL
    Keyword: BASIS
    atoms 1   entry O          line   117 file /home/akrom/software/anaconda3/envs/ffpenv/share/psi4/basis/6-31g.gbs 
    atoms 2-3 entry H          line    26 file /home/akrom/software/anaconda3/envs/ffpenv/share/psi4/basis/6-31g.gbs 


         ---------------------------------------------------------
                                   SCF
               by Justin Turney, Rob Parrish, Andy Simmonett
                          and Daniel G. A. Smith
                              RHF Reference
                        1 Threads,    500 MiB Core
         ---------------------------------------------------------

  ==> Geometry <==

    Molecular point group: c2v
    Full point group: C2v

    Geometry (in Angstrom), charge = 0, multiplicity = 1:

       Center              X                  Y                   Z               Mass       
    ------------   -----------------  -----------------  -----------------  -----------------
         O            0.000000000000     0.000000000000    -0.067969259994    15.994914619570
         H            0.749030000000     0.000000000000     0.539360740006     1.007825032230
         H           -0.749030000000    -0.000000000000     0.539360740006     1.007825032230

  Running in c2v symmetry.

  Rotational constants: A =     25.53156  B =     14.90675  C =      9.41168 [cm^-1]
  Rotational constants: A = 765416.81232  B = 446893.08836  C = 282155.15104 [MHz]
  Nuclear repulsion =    9.133433460995141

  Charge       = 0
  Multiplicity = 1
  Electrons    = 10
  Nalpha       = 5
  Nbeta        = 5

  ==> Algorithm <==

  SCF Algorithm Type is PK.
  DIIS enabled.
  MOM disabled.
  Fractional occupation disabled.
  Guess Type is SAD.
  Energy threshold   = 1.00e-10
  Density threshold  = 1.00e-10
  Integral threshold = 0.00e+00

  ==> Primary Basis <==

  Basis Set: 6-31G
    Blend: 6-31G
    Number of shells: 9
    Number of basis function: 13
    Number of Cartesian functions: 13
    Spherical Harmonics?: false
    Max angular momentum: 1

  ==> Pre-Iterations <==

   -------------------------------------------------------
    Irrep   Nso     Nmo     Nalpha   Nbeta   Ndocc  Nsocc
   -------------------------------------------------------
     A1         7       7       0       0       0       0
     A2         0       0       0       0       0       0
     B1         4       4       0       0       0       0
     B2         2       2       0       0       0       0
   -------------------------------------------------------
    Total      13      13       5       5       5       0
   -------------------------------------------------------

  ==> Integral Setup <==

  Using in-core PK algorithm.
   Calculation information:
      Number of atoms:                   3
      Number of AO shells:               9
      Number of primitives:             22
      Number of atomic orbitals:        13
      Number of basis functions:        13

      Integral cutoff                 1.00e-12
      Number of threads:                 1

  Performing in-core PK
  Using 8372 doubles for integral storage.
  We computed 1035 shell quartets total.
  Whereas there are 1035 unique shell quartets.

  ==> DiskJK: Disk-Based J/K Matrices <==

    J tasked:                  Yes
    K tasked:                  Yes
    wK tasked:                  No
    Memory [MiB]:              375
    Schwarz Cutoff:          1E-12

    OpenMP threads:              1

  Minimum eigenvalue in the overlap matrix is 6.8079150050E-02.
  Using Symmetric Orthogonalization.

  SCF Guess: Superposition of Atomic Densities via on-the-fly atomic UHF.

  ==> Iterations <==

                        Total Energy        Delta E     RMS |[F,P]|

   @RHF iter SAD:   -75.51720869773845   -7.55172e+01   0.00000e+00 
   @RHF iter   1:   -75.90765988314385   -3.90451e-01   4.88689e-02 DIIS
   @RHF iter   2:   -75.96279360010050   -5.51337e-02   2.86720e-02 DIIS
   @RHF iter   3:   -75.98232559305833   -1.95320e-02   2.33987e-03 DIIS
   @RHF iter   4:   -75.98265568370780   -3.30091e-04   4.28353e-04 DIIS
   @RHF iter   5:   -75.98266694783256   -1.12641e-05   5.91051e-05 DIIS
   @RHF iter   6:   -75.98266723948248   -2.91650e-07   9.64209e-06 DIIS
   @RHF iter   7:   -75.98266724765297   -8.17049e-09   1.99056e-06 DIIS
   @RHF iter   8:   -75.98266724805083   -3.97861e-10   4.18335e-07 DIIS
   @RHF iter   9:   -75.98266724806487   -1.40403e-11   4.09984e-08 DIIS
   @RHF iter  10:   -75.98266724806510   -2.27374e-13   3.54705e-09 DIIS
   @RHF iter  11:   -75.98266724806506    4.26326e-14   1.50900e-10 DIIS
   @RHF iter  12:   -75.98266724806507   -1.42109e-14   2.54756e-11 DIIS
  Energy and wave function converged.


  ==> Post-Iterations <==

    Orbital Energies [Eh]
    ---------------------

    Doubly Occupied:                                                      

       1A1   -20.563714     2A1    -1.355547     1B1    -0.701683  
       3A1    -0.564609     1B2    -0.502279  

    Virtual:                                                              

       4A1     0.201419     2B1     0.297419     3B1     1.041022  
       2B2     1.163470     5A1     1.185822     6A1     1.222993  
       4B1     1.374819     7A1     1.704680  

    Final Occupation by Irrep:
             A1    A2    B1    B2 
    DOCC [     3,    0,    1,    1 ]

  @RHF Final Energy:   -75.98266724806507

   => Energetics <=

    Nuclear Repulsion Energy =              9.1334334609951409
    One-Electron Energy =                -122.8565379442491832
    Two-Electron Energy =                  37.7404372351889776
    Total Energy =                        -75.9826672480650700

Computation Completed


Properties will be evaluated at   0.000000,   0.000000,   0.000000 [a0]

Properties computed using the SCF density matrix

  Nuclear Dipole Moment: [e a0]
     X:     0.0000      Y:     0.0000      Z:     1.0109

  Electronic Dipole Moment: [e a0]
     X:     0.0000      Y:     0.0000      Z:     0.0419

  Dipole Moment: [e a0]
     X:     0.0000      Y:     0.0000      Z:     1.0529     Total:     1.0529

  Dipole Moment: [D]
     X:     0.0000      Y:     0.0000      Z:     2.6761     Total:     2.6761


*** tstop() called on atlantis at Tue Apr 19 00:19:52 2022
Module time:
	user time   =       0.20 seconds =       0.00 minutes
	system time =       0.01 seconds =       0.00 minutes
	total time  =          0 seconds =       0.00 minutes
Total time:
	user time   =       0.45 seconds =       0.01 minutes
	system time =       0.06 seconds =       0.00 minutes
	total time  =          1 seconds =       0.02 minutes
 MINTS: Wrapper to libmints.
   by Justin Turney

   Calculation information:
      Number of threads:                 1
      Number of atoms:                   3
      Number of AO shells:               9
      Number of SO shells:               7
      Number of primitives:             22
      Number of atomic orbitals:        13
      Number of basis functions:        13

      Number of irreps:                  4
      Integral cutoff                 0.00e+00
      Number of functions per irrep: [   7    0    4    2 ]

 OEINTS: Overlap, kinetic, potential, dipole, and quadrupole integrals
         stored in file 35.

      Computing two-electron integrals...done
      Computed 1270 non-zero two-electron integrals.
        Stored in file 33.


*** tstart() called on atlantis
*** at Tue Apr 19 00:19:52 2022


	Wfn Parameters:
	--------------------
	Wavefunction         = CCSD
	Number of irreps     = 4
	Number of MOs        = 13
	Number of active MOs = 13
	AO-Basis             = NONE
	Semicanonical        = false
	Reference            = RHF
	Print Level          = 1

	IRREP	# MOs	# FZDC	# DOCC	# SOCC	# VIRT	# FZVR
	-----	-----	------	------	------	------	------
	 A1	   7	    0	    3	    0	    4	    0
	 A2	   0	    0	    0	    0	    0	    0
	 B1	   4	    0	    1	    0	    3	    0
	 B2	   2	    0	    1	    0	    1	    0
	Transforming integrals...
	IWL integrals will be deleted.
	(OO|OO)...
	Presorting SO-basis two-electron integrals.
	Sorting File: SO Ints (nn|nn) nbuckets = 1
	Transforming the one-electron integrals and constructing Fock matrices
	Starting first half-transformation.
	Sorting half-transformed integrals.
	First half integral transformation complete.
	Starting second half-transformation.
	Two-electron integral transformation complete.
	(OO|OV)...
	Starting second half-transformation.
	Two-electron integral transformation complete.
	(OO|VV)...
	Starting second half-transformation.
	Two-electron integral transformation complete.
	(OV|OO)...
	Starting first half-transformation.
	Sorting half-transformed integrals.
	First half integral transformation complete.
	Starting second half-transformation.
	Two-electron integral transformation complete.
	(OV|OV)...
	Starting second half-transformation.
	Two-electron integral transformation complete.
	(OV|VV)...
	Starting second half-transformation.
	Two-electron integral transformation complete.
	(VV|OO)...
	Starting first half-transformation.
	Sorting half-transformed integrals.
	First half integral transformation complete.
	Starting second half-transformation.
	Two-electron integral transformation complete.
	(VV|OV)...
	Starting second half-transformation.
	Two-electron integral transformation complete.
	(VV|VV)...
	Starting second half-transformation.
	Two-electron integral transformation complete.
	Frozen core energy     =      0.00000000000000

	Size of irrep 0 of <ab|cd> integrals:      0.001 (MW) /      0.005 (MB)
	Size of irrep 1 of <ab|cd> integrals:      0.000 (MW) /      0.000 (MB)
	Size of irrep 2 of <ab|cd> integrals:      0.001 (MW) /      0.005 (MB)
	Size of irrep 3 of <ab|cd> integrals:      0.000 (MW) /      0.001 (MB)
	Total:                                     0.001 (MW) /      0.011 (MB)

	Size of irrep 0 of <ia|bc> integrals:      0.000 (MW) /      0.003 (MB)
	Size of irrep 1 of <ia|bc> integrals:      0.000 (MW) /      0.000 (MB)
	Size of irrep 2 of <ia|bc> integrals:      0.000 (MW) /      0.002 (MB)
	Size of irrep 3 of <ia|bc> integrals:      0.000 (MW) /      0.000 (MB)
	Total:                                     0.001 (MW) /      0.006 (MB)

	Size of irrep 0 of tijab amplitudes:       0.000 (MW) /      0.002 (MB)
	Size of irrep 1 of tijab amplitudes:       0.000 (MW) /      0.000 (MB)
	Size of irrep 2 of tijab amplitudes:       0.000 (MW) /      0.001 (MB)
	Size of irrep 3 of tijab amplitudes:       0.000 (MW) /      0.000 (MB)
	Total:                                     0.000 (MW) /      0.004 (MB)

	Nuclear Rep. energy          =      9.13343346099514
	SCF energy                   =    -75.98266724806507
	One-electron energy          =   -122.85653794413682
	Two-electron energy          =     37.74043723507667
	Reference energy             =    -75.98266724806501

*** tstop() called on atlantis at Tue Apr 19 00:19:52 2022
Module time:
	user time   =       0.00 seconds =       0.00 minutes
	system time =       0.01 seconds =       0.00 minutes
	total time  =          0 seconds =       0.00 minutes
Total time:
	user time   =       0.46 seconds =       0.01 minutes
	system time =       0.07 seconds =       0.00 minutes
	total time  =          1 seconds =       0.02 minutes
            **************************
            *                        *
            *        CCENERGY        *
            *                        *
            **************************

    Nuclear Rep. energy (wfn)     =    9.133433460995141
    SCF energy          (wfn)     =  -75.982667248065070
    Reference energy    (file100) =  -75.982667248065013

    Input parameters:
    -----------------
    Wave function   =     CCSD
    Reference wfn   =     RHF
    Brueckner       =     No
    Memory (Mbytes) =     524.3
    Maxiter         =     50
    R_Convergence   =     1.0e-07
    E_Convergence   =     1.0e-08
    Restart         =     Yes
    DIIS            =     Yes
    AO Basis        =     NONE
    ABCD            =     NEW
    Cache Level     =     2
    Cache Type      =     LOW
    Print Level     =     1
    Num. of threads =     1
    # Amps to Print =     10
    Print MP2 Amps? =     No
    Analyze T2 Amps =     No
    Print Pair Ener =     No
    Local CC        =     No
    SCS-MP2         =     False
    SCSN-MP2        =     False
    SCS-CCSD        =     False

    Using old T1 amplitudes.
    Using old T2 amplitudes.

MP2 correlation energy -0.1296359155010265
                Solving CC Amplitude Equations
                ------------------------------
  Iter             Energy              RMS        T1Diag      D1Diag    New D1Diag    D2Diag
  ----     ---------------------    ---------   ----------  ----------  ----------   --------
     0        -0.136192154043268    0.000e+00    0.006133    0.012999    0.012999    0.118530
     1        -0.136192155365099    3.913e-08    0.006133    0.012999    0.012999    0.118530
     2        -0.136192155968087    1.759e-08    0.006133    0.012999    0.012999    0.118530

    Iterations converged.


    Largest TIA Amplitudes:
              2   0         0.0109362679
              3   6         0.0088117152
              3   4        -0.0078516538
              4   7        -0.0060928198
              2   3        -0.0057201984
              1   2        -0.0044069536
              1   0        -0.0035005984
              3   5        -0.0029468999
              1   1         0.0023357010
              1   3         0.0011867058

    Largest TIjAb Amplitudes:
      4   4   7   7        -0.0533450008
      3   3   4   4        -0.0437596719
      2   2   2   2        -0.0291917298
      3   3   5   5        -0.0278900183
      3   3   6   6        -0.0276226532
      2   2   1   1        -0.0275197460
      3   4   6   7        -0.0264513912
      4   3   7   6        -0.0264513912
      3   3   4   6        -0.0263214488
      3   3   6   4        -0.0263214488

    SCF energy       (wfn)                    =  -75.982667248065070
    Reference energy (file100)                =  -75.982667248065013

    Opposite-spin MP2 correlation energy      =   -0.099352114731490
    Same-spin MP2 correlation energy          =   -0.030283800769537
    MP2 correlation energy                    =   -0.129635915501027
      * MP2 total energy                      =  -76.112303163566040

    Opposite-spin CCSD correlation energy     =   -0.112011268497220
    Same-spin CCSD correlation energy         =   -0.024180887470867
    CCSD correlation energy                   =   -0.136192155968087
      * CCSD total energy                     =  -76.118859404033103


			**************************
			*                        *
			*         CCHBAR         *
			*                        *
			**************************


			**************************
			*        CCLAMBDA        *
			**************************


	Nuclear Rep. energy (wfn)     =    9.133433460995141
	Reference           (wfn)     =                    0
	SCF energy          (wfn)     =  -75.982667248065070
	Reference energy    (CC_INFO) =  -75.982667248065013
	CCSD energy         (CC_INFO) =   -0.136192155968087
	Total CCSD energy   (CC_INFO) =  -76.118859404033103

	Input parameters:
	-----------------
	Maxiter           =     50
	Convergence       = 1.0e-07
	Restart           =     No
	Cache Level       =     2
	Model III         =     No
	DIIS              =     Yes
	AO Basis          =     No
	ABCD              =     NEW
	Local CC          =     No
	Parameters for left-handed eigenvectors:
	    Irr   Root  Ground-State?    EOM energy        R0
	  1   0     0        Yes       0.0000000000   1.0000000000
	Labels for eigenvector 1:
	LIA 0 -1, Lia 0 -1, LIJAB 0 -1, Lijab 0 -1, LIjAb 0 -1, 2LIjAb - LIjbA 0 -1
	Symmetry of left-hand state: A1
	Symmetry of left-hand eigenvector: A1

	          Solving Lambda Equations
	          ------------------------
	Iter     PseudoEnergy or Norm         RMS  
	----     ---------------------     --------
	   0        -0.136215961889368    0.000e+00
	   1        -0.136206755378749    6.130e-03
	   2        -0.135949986698592    1.201e-03
	   3        -0.135887250413521    5.291e-04
	   4        -0.135883746097770    1.504e-04
	   5        -0.135885706246620    4.459e-05
	   6        -0.135885857324927    1.019e-05
	   7        -0.135885882609136    1.762e-06
	   8        -0.135885897965458    2.437e-07
	   9        -0.135885899283573    4.436e-08

	Largest LIA Amplitudes:
	          3   6         0.0079473940
	          2   0         0.0077472705
	          2   3        -0.0051029966
	          3   4        -0.0050104041
	          4   7        -0.0041119506
	          1   2        -0.0035934000
	          3   5        -0.0033779162
	          1   0        -0.0023775969
	          1   1         0.0021577571
	          1   3         0.0014679410

	Largest LIjAb Amplitudes:
	  4   4   7   7        -0.0535518087
	  3   3   4   4        -0.0430605989
	  2   2   2   2        -0.0290138415
	  2   2   1   1        -0.0274655232
	  3   3   6   6        -0.0274477040
	  3   3   5   5        -0.0273292961
	  3   4   6   7        -0.0264614634
	  4   3   7   6        -0.0264614634
	  3   3   4   6        -0.0261959954
	  3   3   6   4        -0.0261959954

	Iterations converged.

	Overlap <L|e^T> =        0.95501210027

			**************************
			*                        *
			*        CCDENSITY       *
			*                        *
			**************************


	Input parameters:
	-----------------
	Wave function    =   CCSD
	Reference wfn    =   RHF
	Dertype          = 1
	Tolerance        = 1.0e-14
	Cache Level      = 2
	AO Basis         = No
	OPDM Only        = No
	Relax OPDM       = Yes
	Compute Xi       = No
	Use Zeta         = No
	Xi connected     = Yes
	Compute NO       = No

	Nuclear Rep. energy (wfn)     =    9.133433460995141
	SCF energy          (wfn)     =  -75.982667248065070
	Reference energy    (file100) =  -75.982667248065013
	CCSD energy         (CC_INFO) =   -0.136192155968087
	Total CCSD energy   (CC_INFO) =  -76.118859404033103
	Number of States = 1

	Ground?  State     EOM Energy       R0
	  Yes     0 A1    0.0000000000   1.00000000

	Virial Theorem Data:
	--------------------
	Kinetic energy (ref)   =   75.972993334251484
	Kinetic energy (corr)  =    0.105529209484478
	Kinetic energy (total) =   76.078522543735957
	-V/T (ref)             =    2.000127333587753
	-V/T (corr)            =    2.290563594983796
	-V/T (total)           =    2.000530200363368
  Cartesian Displacement SALCs
  By SALC:
  Number of SALCs: 3, nirreps: A1
  Project out translations: False
  Project out rotations: False
	irrep = 0, ncomponent = 1
		0: atom 0, direction z, coef 1.000000
	irrep = 0, ncomponent = 2
		0: atom 1, direction x, coef 0.707107
		1: atom 2, direction x, coef -0.707107
	irrep = 0, ncomponent = 2
		0: atom 1, direction z, coef 0.707107
		1: atom 2, direction z, coef 0.707107

  By Atomic Center:
  Number of atomic centers: 3
   Atomic Center 0:
	x component, size = 0
	y component, size = 0
	z component, size = 1
		0: salc 0, irrep 0, coef 1.000000
   Atomic Center 1:
	x component, size = 1
		0: salc 1, irrep 0, coef 0.707107
	y component, size = 0
	z component, size = 1
		0: salc 2, irrep 0, coef 0.707107
   Atomic Center 2:
	x component, size = 1
		0: salc 1, irrep 0, coef -0.707107
	y component, size = 0
	z component, size = 1
		0: salc 2, irrep 0, coef 0.707107

    Molecular point group: c2v
    Full point group: C2v

    Geometry (in Bohr), charge = 0, multiplicity = 1:

       Center              X                  Y                   Z       
    ------------   -----------------  -----------------  -----------------
         O            0.000000000000     0.000000000000    -0.128443286339
         H            1.415461559752     0.000000000000     1.019244081436
         H           -1.415461559752    -0.000000000000     1.019244081436

	Presorting MO-basis TPDM.
	Sorting File: MO TPDM (AA|AA) nbuckets = 1
	Starting first half-transformation.
	Sorting half-transformed TPDM.
	First half integral transformation complete.


  -Nuclear Repulsion Energy 1st Derivatives:
     Atom            X                  Y                   Z
    ------   -----------------  -----------------  -----------------
       1        0.000000000000     0.000000000000     3.034559410088
       2       -1.996065495508    -0.000000000000    -1.517279705044
       3        1.996065495508     0.000000000000    -1.517279705044


  -Core Hamiltonian Gradient:
     Atom            X                  Y                   Z
    ------   -----------------  -----------------  -----------------
       1        0.000000000000    -0.000000000000    -6.435106330951
       2        3.900709181926     0.000000000000     3.217553165476
       3       -3.900709181926    -0.000000000000     3.217553165476


  -Lagrangian contribution to gradient:
     Atom            X                  Y                   Z
    ------   -----------------  -----------------  -----------------
       1        0.000000000000     0.000000000000     0.385567593654
       2       -0.194740877153    -0.000000000000    -0.192783796827
       3        0.194740877153     0.000000000000    -0.192783796827


  -Two-electron contribution to gradient:
     Atom            X                  Y                   Z
    ------   -----------------  -----------------  -----------------
       1        0.000000000000     0.000000000000     3.014400971978
       2       -1.731630458188    -0.000000000000    -1.507200485989
       3        1.731630458188     0.000000000000    -1.507200485989


  -Total gradient:
     Atom            X                  Y                   Z
    ------   -----------------  -----------------  -----------------
       1        0.000000000000    -0.000000000000    -0.000578355231
       2       -0.021727648922    -0.000000000000     0.000289177615
       3        0.021727648922     0.000000000000     0.000289177615


  Based on options and gradient (rms=1.02E-02), recommend projecting translations and not projecting rotations.
hessian() will perform frequency computation by finite difference of analytic gradients.

         ----------------------------------------------------------
                                   FINDIF
                     R. A. King and Jonathon Misiewicz
         ---------------------------------------------------------

  Using finite-differences of gradients to determine vibrational frequencies and 
  normal modes.  Resulting frequencies are only valid at stationary points.
    Generating geometries for use with 3-point formula.
    Displacement size will be 5.00e-03.
    Number of atoms is 3.
    Number of irreps is 4.
    Number of SALCs is 6.
    Translations projected? 1. Rotations projected? 0.
    Index of SALCs per irrep:
     1 :  0  1 
     2 :  2 
     3 :  3  4 
     4 :  5 
    Number of SALCs per irrep:
     Irrep 1: 2
     Irrep 2: 1
     Irrep 3: 2
     Irrep 4: 1
    Number of geometries (including reference) is 9.
    Number of displacements per irrep:
      Irrep 1: 4
      Irrep 2: 1
      Irrep 3: 2
      Irrep 4: 1

  //>>>>>>>>>>>>>>>>>>>>>>>>>>>>>>>>>>>//
  //    Loading displacement 1 of 9    //
  //<<<<<<<<<<<<<<<<<<<<<<<<<<<<<<<<<<<//
gradient() will perform analytic gradient computation.

*** tstart() called on atlantis
*** at Tue Apr 19 00:19:52 2022

   => Loading Basis Set <=

    Name: 6-31G
    Role: ORBITAL
    Keyword: BASIS
    atoms 1   entry O          line   117 file /home/akrom/software/anaconda3/envs/ffpenv/share/psi4/basis/6-31g.gbs 
    atoms 2-3 entry H          line    26 file /home/akrom/software/anaconda3/envs/ffpenv/share/psi4/basis/6-31g.gbs 


         ---------------------------------------------------------
                                   SCF
               by Justin Turney, Rob Parrish, Andy Simmonett
                          and Daniel G. A. Smith
                              RHF Reference
                        1 Threads,    500 MiB Core
         ---------------------------------------------------------

  ==> Geometry <==

    Molecular point group: c2v
    Full point group: C2v

    Geometry (in Angstrom), charge = 0, multiplicity = 1:

       Center              X                  Y                   Z               Mass       
    ------------   -----------------  -----------------  -----------------  -----------------
         O            0.000000000000     0.000000000000    -0.067969259994    15.994914619570
         H            0.749030000000     0.000000000000     0.539360740006     1.007825032230
         H           -0.749030000000    -0.000000000000     0.539360740006     1.007825032230

  Running in c2v symmetry.

  Rotational constants: A =     25.53156  B =     14.90675  C =      9.41168 [cm^-1]
  Rotational constants: A = 765416.81232  B = 446893.08836  C = 282155.15104 [MHz]
  Nuclear repulsion =    9.133433460995141

  Charge       = 0
  Multiplicity = 1
  Electrons    = 10
  Nalpha       = 5
  Nbeta        = 5

  ==> Algorithm <==

  SCF Algorithm Type is PK.
  DIIS enabled.
  MOM disabled.
  Fractional occupation disabled.
  Guess Type is SAD.
  Energy threshold   = 1.00e-10
  Density threshold  = 1.00e-10
  Integral threshold = 0.00e+00

  ==> Primary Basis <==

  Basis Set: 6-31G
    Blend: 6-31G
    Number of shells: 9
    Number of basis function: 13
    Number of Cartesian functions: 13
    Spherical Harmonics?: false
    Max angular momentum: 1

  ==> Pre-Iterations <==

   -------------------------------------------------------
    Irrep   Nso     Nmo     Nalpha   Nbeta   Ndocc  Nsocc
   -------------------------------------------------------
     A1         7       7       0       0       0       0
     A2         0       0       0       0       0       0
     B1         4       4       0       0       0       0
     B2         2       2       0       0       0       0
   -------------------------------------------------------
    Total      13      13       5       5       5       0
   -------------------------------------------------------

  ==> Integral Setup <==

  Using in-core PK algorithm.
   Calculation information:
      Number of atoms:                   3
      Number of AO shells:               9
      Number of primitives:             22
      Number of atomic orbitals:        13
      Number of basis functions:        13

      Integral cutoff                 1.00e-12
      Number of threads:                 1

  Performing in-core PK
  Using 8372 doubles for integral storage.
  We computed 1035 shell quartets total.
  Whereas there are 1035 unique shell quartets.

  ==> DiskJK: Disk-Based J/K Matrices <==

    J tasked:                  Yes
    K tasked:                  Yes
    wK tasked:                  No
    Memory [MiB]:              375
    Schwarz Cutoff:          1E-12

    OpenMP threads:              1

  Minimum eigenvalue in the overlap matrix is 6.8079150050E-02.
  Using Symmetric Orthogonalization.

  SCF Guess: Superposition of Atomic Densities via on-the-fly atomic UHF.

  ==> Iterations <==

                        Total Energy        Delta E     RMS |[F,P]|

   @RHF iter SAD:   -75.51720869773844   -7.55172e+01   0.00000e+00 
   @RHF iter   1:   -75.90765988314386   -3.90451e-01   4.88689e-02 DIIS
   @RHF iter   2:   -75.96279360010055   -5.51337e-02   2.86720e-02 DIIS
   @RHF iter   3:   -75.98232559305826   -1.95320e-02   2.33987e-03 DIIS
   @RHF iter   4:   -75.98265568370786   -3.30091e-04   4.28353e-04 DIIS
   @RHF iter   5:   -75.98266694783246   -1.12641e-05   5.91051e-05 DIIS
   @RHF iter   6:   -75.98266723948257   -2.91650e-07   9.64209e-06 DIIS
   @RHF iter   7:   -75.98266724765297   -8.17040e-09   1.99056e-06 DIIS
   @RHF iter   8:   -75.98266724805080   -3.97833e-10   4.18335e-07 DIIS
   @RHF iter   9:   -75.98266724806490   -1.40972e-11   4.09984e-08 DIIS
   @RHF iter  10:   -75.98266724806511   -2.13163e-13   3.54705e-09 DIIS
   @RHF iter  11:   -75.98266724806506    5.68434e-14   1.50900e-10 DIIS
   @RHF iter  12:   -75.98266724806506    0.00000e+00   2.54758e-11 DIIS
  Energy and wave function converged.


  ==> Post-Iterations <==

    Orbital Energies [Eh]
    ---------------------

    Doubly Occupied:                                                      

       1A1   -20.563714     2A1    -1.355547     1B1    -0.701683  
       3A1    -0.564609     1B2    -0.502279  

    Virtual:                                                              

       4A1     0.201419     2B1     0.297419     3B1     1.041022  
       2B2     1.163470     5A1     1.185822     6A1     1.222993  
       4B1     1.374819     7A1     1.704680  

    Final Occupation by Irrep:
             A1    A2    B1    B2 
    DOCC [     3,    0,    1,    1 ]

  @RHF Final Energy:   -75.98266724806506

   => Energetics <=

    Nuclear Repulsion Energy =              9.1334334609951409
    One-Electron Energy =                -122.8565379442491263
    Two-Electron Energy =                  37.7404372351889421
    Total Energy =                        -75.9826672480650416

Computation Completed


Properties will be evaluated at   0.000000,   0.000000,   0.000000 [a0]

Properties computed using the SCF density matrix

  Nuclear Dipole Moment: [e a0]
     X:     0.0000      Y:     0.0000      Z:     1.0109

  Electronic Dipole Moment: [e a0]
     X:     0.0000      Y:     0.0000      Z:     0.0419

  Dipole Moment: [e a0]
     X:     0.0000      Y:     0.0000      Z:     1.0529     Total:     1.0529

  Dipole Moment: [D]
     X:     0.0000      Y:     0.0000      Z:     2.6761     Total:     2.6761


*** tstop() called on atlantis at Tue Apr 19 00:19:52 2022
Module time:
	user time   =       0.20 seconds =       0.00 minutes
	system time =       0.00 seconds =       0.00 minutes
	total time  =          0 seconds =       0.00 minutes
Total time:
	user time   =       0.98 seconds =       0.02 minutes
	system time =       0.11 seconds =       0.00 minutes
	total time  =          1 seconds =       0.02 minutes
 MINTS: Wrapper to libmints.
   by Justin Turney

   Calculation information:
      Number of threads:                 1
      Number of atoms:                   3
      Number of AO shells:               9
      Number of SO shells:               7
      Number of primitives:             22
      Number of atomic orbitals:        13
      Number of basis functions:        13

      Number of irreps:                  4
      Integral cutoff                 0.00e+00
      Number of functions per irrep: [   7    0    4    2 ]

 OEINTS: Overlap, kinetic, potential, dipole, and quadrupole integrals
         stored in file 35.

      Computing two-electron integrals...done
      Computed 1270 non-zero two-electron integrals.
        Stored in file 33.


*** tstart() called on atlantis
*** at Tue Apr 19 00:19:52 2022


	Wfn Parameters:
	--------------------
	Wavefunction         = CCSD
	Number of irreps     = 4
	Number of MOs        = 13
	Number of active MOs = 13
	AO-Basis             = NONE
	Semicanonical        = false
	Reference            = RHF
	Print Level          = 1

	IRREP	# MOs	# FZDC	# DOCC	# SOCC	# VIRT	# FZVR
	-----	-----	------	------	------	------	------
	 A1	   7	    0	    3	    0	    4	    0
	 A2	   0	    0	    0	    0	    0	    0
	 B1	   4	    0	    1	    0	    3	    0
	 B2	   2	    0	    1	    0	    1	    0
	Transforming integrals...
	IWL integrals will be deleted.
	(OO|OO)...
	Presorting SO-basis two-electron integrals.
	Sorting File: SO Ints (nn|nn) nbuckets = 1
	Transforming the one-electron integrals and constructing Fock matrices
	Starting first half-transformation.
	Sorting half-transformed integrals.
	First half integral transformation complete.
	Starting second half-transformation.
	Two-electron integral transformation complete.
	(OO|OV)...
	Starting second half-transformation.
	Two-electron integral transformation complete.
	(OO|VV)...
	Starting second half-transformation.
	Two-electron integral transformation complete.
	(OV|OO)...
	Starting first half-transformation.
	Sorting half-transformed integrals.
	First half integral transformation complete.
	Starting second half-transformation.
	Two-electron integral transformation complete.
	(OV|OV)...
	Starting second half-transformation.
	Two-electron integral transformation complete.
	(OV|VV)...
	Starting second half-transformation.
	Two-electron integral transformation complete.
	(VV|OO)...
	Starting first half-transformation.
	Sorting half-transformed integrals.
	First half integral transformation complete.
	Starting second half-transformation.
	Two-electron integral transformation complete.
	(VV|OV)...
	Starting second half-transformation.
	Two-electron integral transformation complete.
	(VV|VV)...
	Starting second half-transformation.
	Two-electron integral transformation complete.
	Frozen core energy     =      0.00000000000000

	Size of irrep 0 of <ab|cd> integrals:      0.001 (MW) /      0.005 (MB)
	Size of irrep 1 of <ab|cd> integrals:      0.000 (MW) /      0.000 (MB)
	Size of irrep 2 of <ab|cd> integrals:      0.001 (MW) /      0.005 (MB)
	Size of irrep 3 of <ab|cd> integrals:      0.000 (MW) /      0.001 (MB)
	Total:                                     0.001 (MW) /      0.011 (MB)

	Size of irrep 0 of <ia|bc> integrals:      0.000 (MW) /      0.003 (MB)
	Size of irrep 1 of <ia|bc> integrals:      0.000 (MW) /      0.000 (MB)
	Size of irrep 2 of <ia|bc> integrals:      0.000 (MW) /      0.002 (MB)
	Size of irrep 3 of <ia|bc> integrals:      0.000 (MW) /      0.000 (MB)
	Total:                                     0.001 (MW) /      0.006 (MB)

	Size of irrep 0 of tijab amplitudes:       0.000 (MW) /      0.002 (MB)
	Size of irrep 1 of tijab amplitudes:       0.000 (MW) /      0.000 (MB)
	Size of irrep 2 of tijab amplitudes:       0.000 (MW) /      0.001 (MB)
	Size of irrep 3 of tijab amplitudes:       0.000 (MW) /      0.000 (MB)
	Total:                                     0.000 (MW) /      0.004 (MB)

	Nuclear Rep. energy          =      9.13343346099514
	SCF energy                   =    -75.98266724806506
	One-electron energy          =   -122.85653794413690
	Two-electron energy          =     37.74043723507674
	Reference energy             =    -75.98266724806503

*** tstop() called on atlantis at Tue Apr 19 00:19:52 2022
Module time:
	user time   =       0.00 seconds =       0.00 minutes
	system time =       0.00 seconds =       0.00 minutes
	total time  =          0 seconds =       0.00 minutes
Total time:
	user time   =       0.99 seconds =       0.02 minutes
	system time =       0.11 seconds =       0.00 minutes
	total time  =          1 seconds =       0.02 minutes
            **************************
            *                        *
            *        CCENERGY        *
            *                        *
            **************************

    Nuclear Rep. energy (wfn)     =    9.133433460995141
    SCF energy          (wfn)     =  -75.982667248065056
    Reference energy    (file100) =  -75.982667248065027

    Input parameters:
    -----------------
    Wave function   =     CCSD
    Reference wfn   =     RHF
    Brueckner       =     No
    Memory (Mbytes) =     524.3
    Maxiter         =     50
    R_Convergence   =     1.0e-07
    E_Convergence   =     1.0e-08
    Restart         =     Yes
    DIIS            =     Yes
    AO Basis        =     NONE
    ABCD            =     NEW
    Cache Level     =     2
    Cache Type      =     LOW
    Print Level     =     1
    Num. of threads =     1
    # Amps to Print =     10
    Print MP2 Amps? =     No
    Analyze T2 Amps =     No
    Print Pair Ener =     No
    Local CC        =     No
    SCS-MP2         =     False
    SCSN-MP2        =     False
    SCS-CCSD        =     False

MP2 correlation energy -0.1296359155010264
                Solving CC Amplitude Equations
                ------------------------------
  Iter             Energy              RMS        T1Diag      D1Diag    New D1Diag    D2Diag
  ----     ---------------------    ---------   ----------  ----------  ----------   --------
     0        -0.129635915501026    0.000e+00    0.000000    0.000000    0.000000    0.100349
     1        -0.131809906140001    2.805e-02    0.004642    0.009556    0.009556    0.109513
     2        -0.135645603088492    1.056e-02    0.005620    0.011530    0.011530    0.116684
     3        -0.136154525189312    2.566e-03    0.006062    0.012543    0.012543    0.118291
     4        -0.136184520141877    6.176e-04    0.006094    0.012791    0.012791    0.118509
     5        -0.136196310948514    1.760e-04    0.006121    0.012934    0.012934    0.118546
     6        -0.136192760007969    5.118e-05    0.006130    0.012984    0.012984    0.118533
     7        -0.136192232020527    1.186e-05    0.006133    0.012997    0.012997    0.118530
     8        -0.136192207865187    2.401e-06    0.006133    0.012999    0.012999    0.118530
     9        -0.136192146412670    5.659e-07    0.006133    0.012999    0.012999    0.118530
    10        -0.136192158005903    9.413e-08    0.006133    0.012999    0.012999    0.118530
    11        -0.136192156560242    1.874e-08    0.006133    0.012999    0.012999    0.118530
    12        -0.136192156498531    2.737e-09    0.006133    0.012999    0.012999    0.118530

    Iterations converged.


    Largest TIA Amplitudes:
              2   0         0.0109362787
              3   6         0.0088117161
              3   4        -0.0078516534
              4   7        -0.0060928194
              2   3        -0.0057201980
              1   2        -0.0044069535
              1   0        -0.0035005964
              3   5        -0.0029468993
              1   1         0.0023357017
              1   3         0.0011867059

    Largest TIjAb Amplitudes:
      4   4   7   7        -0.0533450014
      3   3   4   4        -0.0437596708
      2   2   2   2        -0.0291917294
      3   3   5   5        -0.0278900179
      3   3   6   6        -0.0276226530
      2   2   1   1        -0.0275197458
      3   4   6   7        -0.0264513914
      4   3   7   6        -0.0264513914
      3   3   4   6        -0.0263214485
      3   3   6   4        -0.0263214485

    SCF energy       (wfn)                    =  -75.982667248065056
    Reference energy (file100)                =  -75.982667248065027

    Opposite-spin MP2 correlation energy      =   -0.099352114731490
    Same-spin MP2 correlation energy          =   -0.030283800769536
    MP2 correlation energy                    =   -0.129635915501026
      * MP2 total energy                      =  -76.112303163566054

    Opposite-spin CCSD correlation energy     =   -0.112011269246249
    Same-spin CCSD correlation energy         =   -0.024180887252283
    CCSD correlation energy                   =   -0.136192156498531
      * CCSD total energy                     =  -76.118859404563565


			**************************
			*                        *
			*         CCHBAR         *
			*                        *
			**************************


			**************************
			*        CCLAMBDA        *
			**************************


	Nuclear Rep. energy (wfn)     =    9.133433460995141
	Reference           (wfn)     =                    0
	SCF energy          (wfn)     =  -75.982667248065056
	Reference energy    (CC_INFO) =  -75.982667248065027
	CCSD energy         (CC_INFO) =   -0.136192156498531
	Total CCSD energy   (CC_INFO) =  -76.118859404563565

	Input parameters:
	-----------------
	Maxiter           =     50
	Convergence       = 1.0e-07
	Restart           =     No
	Cache Level       =     2
	Model III         =     No
	DIIS              =     Yes
	AO Basis          =     No
	ABCD              =     NEW
	Local CC          =     No
	Parameters for left-handed eigenvectors:
	    Irr   Root  Ground-State?    EOM energy        R0
	  1   0     0        Yes       0.0000000000   1.0000000000
	Labels for eigenvector 1:
	LIA 0 -1, Lia 0 -1, LIJAB 0 -1, Lijab 0 -1, LIjAb 0 -1, 2LIjAb - LIjbA 0 -1
	Symmetry of left-hand state: A1
	Symmetry of left-hand eigenvector: A1

	          Solving Lambda Equations
	          ------------------------
	Iter     PseudoEnergy or Norm         RMS  
	----     ---------------------     --------
	   0        -0.136215962430036    4.436e-08
	   1        -0.136206755570032    6.130e-03
	   2        -0.135949986695161    1.201e-03
	   3        -0.135887250327464    5.291e-04
	   4        -0.135883746040940    1.504e-04
	   5        -0.135885706207861    4.459e-05
	   6        -0.135885857288275    1.019e-05
	   7        -0.135885882572521    1.762e-06
	   8        -0.135885897928779    2.437e-07
	   9        -0.135885899246882    4.436e-08

	Largest LIA Amplitudes:
	          3   6         0.0079473940
	          2   0         0.0077472702
	          2   3        -0.0051029966
	          3   4        -0.0050104039
	          4   7        -0.0041119505
	          1   2        -0.0035933999
	          3   5        -0.0033779161
	          1   0        -0.0023775968
	          1   1         0.0021577571
	          1   3         0.0014679411

	Largest LIjAb Amplitudes:
	  4   4   7   7        -0.0535518087
	  3   3   4   4        -0.0430605988
	  2   2   2   2        -0.0290138415
	  2   2   1   1        -0.0274655231
	  3   3   6   6        -0.0274477040
	  3   3   5   5        -0.0273292960
	  3   4   6   7        -0.0264614634
	  4   3   7   6        -0.0264614634
	  3   3   4   6        -0.0261959953
	  3   3   6   4        -0.0261959953

	Iterations converged.

	Overlap <L|e^T> =        0.95501209969

			**************************
			*                        *
			*        CCDENSITY       *
			*                        *
			**************************


	Input parameters:
	-----------------
	Wave function    =   CCSD
	Reference wfn    =   RHF
	Dertype          = 1
	Tolerance        = 1.0e-14
	Cache Level      = 2
	AO Basis         = No
	OPDM Only        = No
	Relax OPDM       = Yes
	Compute Xi       = No
	Use Zeta         = No
	Xi connected     = Yes
	Compute NO       = No

	Nuclear Rep. energy (wfn)     =    9.133433460995141
	SCF energy          (wfn)     =  -75.982667248065056
	Reference energy    (file100) =  -75.982667248065027
	CCSD energy         (CC_INFO) =   -0.136192156498531
	Total CCSD energy   (CC_INFO) =  -76.118859404563565
	Number of States = 1

	Ground?  State     EOM Energy       R0
	  Yes     0 A1    0.0000000000   1.00000000

	Virial Theorem Data:
	--------------------
	Kinetic energy (ref)   =   75.972993334251555
	Kinetic energy (corr)  =    0.105529216626888
	Kinetic energy (total) =   76.078522550878446
	-V/T (ref)             =    2.000127333587751
	-V/T (corr)            =    2.290563512662627
	-V/T (total)           =    2.000530200276407
  Cartesian Displacement SALCs
  By SALC:
  Number of SALCs: 3, nirreps: A1
  Project out translations: False
  Project out rotations: False
	irrep = 0, ncomponent = 1
		0: atom 0, direction z, coef 1.000000
	irrep = 0, ncomponent = 2
		0: atom 1, direction x, coef 0.707107
		1: atom 2, direction x, coef -0.707107
	irrep = 0, ncomponent = 2
		0: atom 1, direction z, coef 0.707107
		1: atom 2, direction z, coef 0.707107

  By Atomic Center:
  Number of atomic centers: 3
   Atomic Center 0:
	x component, size = 0
	y component, size = 0
	z component, size = 1
		0: salc 0, irrep 0, coef 1.000000
   Atomic Center 1:
	x component, size = 1
		0: salc 1, irrep 0, coef 0.707107
	y component, size = 0
	z component, size = 1
		0: salc 2, irrep 0, coef 0.707107
   Atomic Center 2:
	x component, size = 1
		0: salc 1, irrep 0, coef -0.707107
	y component, size = 0
	z component, size = 1
		0: salc 2, irrep 0, coef 0.707107

    Molecular point group: c2v
    Full point group: C2v

    Geometry (in Bohr), charge = 0, multiplicity = 1:

       Center              X                  Y                   Z       
    ------------   -----------------  -----------------  -----------------
         O            0.000000000000     0.000000000000    -0.128443286339
         H            1.415461559752     0.000000000000     1.019244081436
         H           -1.415461559752    -0.000000000000     1.019244081436

	Presorting MO-basis TPDM.
	Sorting File: MO TPDM (AA|AA) nbuckets = 1
	Starting first half-transformation.
	Sorting half-transformed TPDM.
	First half integral transformation complete.


  -Nuclear Repulsion Energy 1st Derivatives:
     Atom            X                  Y                   Z
    ------   -----------------  -----------------  -----------------
       1        0.000000000000     0.000000000000     3.034559410088
       2       -1.996065495508    -0.000000000000    -1.517279705044
       3        1.996065495508     0.000000000000    -1.517279705044


  -Core Hamiltonian Gradient:
     Atom            X                  Y                   Z
    ------   -----------------  -----------------  -----------------
       1        0.000000000000    -0.000000000000    -6.435106314858
       2        3.900709177159     0.000000000000     3.217553157429
       3       -3.900709177159    -0.000000000000     3.217553157429


  -Lagrangian contribution to gradient:
     Atom            X                  Y                   Z
    ------   -----------------  -----------------  -----------------
       1        0.000000000000     0.000000000000     0.385567592837
       2       -0.194740876891    -0.000000000000    -0.192783796418
       3        0.194740876891     0.000000000000    -0.192783796418


  -Two-electron contribution to gradient:
     Atom            X                  Y                   Z
    ------   -----------------  -----------------  -----------------
       1        0.000000000000     0.000000000000     3.014400957679
       2       -1.731630453964    -0.000000000000    -1.507200478839
       3        1.731630453964     0.000000000000    -1.507200478839


  -Total gradient:
     Atom            X                  Y                   Z
    ------   -----------------  -----------------  -----------------
       1        0.000000000000    -0.000000000000    -0.000578354254
       2       -0.021727649203    -0.000000000000     0.000289177127
       3        0.021727649203     0.000000000000     0.000289177127


  //>>>>>>>>>>>>>>>>>>>>>>>>>>>>>>>>>>>//
  //    Loading displacement 2 of 9    //
  //<<<<<<<<<<<<<<<<<<<<<<<<<<<<<<<<<<<//
gradient() will perform analytic gradient computation.

*** tstart() called on atlantis
*** at Tue Apr 19 00:19:53 2022

   => Loading Basis Set <=

    Name: 6-31G
    Role: ORBITAL
    Keyword: BASIS
    atoms 1   entry O          line   117 file /home/akrom/software/anaconda3/envs/ffpenv/share/psi4/basis/6-31g.gbs 
    atoms 2-3 entry H          line    26 file /home/akrom/software/anaconda3/envs/ffpenv/share/psi4/basis/6-31g.gbs 


         ---------------------------------------------------------
                                   SCF
               by Justin Turney, Rob Parrish, Andy Simmonett
                          and Daniel G. A. Smith
                              RHF Reference
                        1 Threads,    500 MiB Core
         ---------------------------------------------------------

  ==> Geometry <==

    Molecular point group: c2v
    Full point group: C2v

    Geometry (in Angstrom), charge = 0, multiplicity = 1:

       Center              X                  Y                   Z               Mass       
    ------------   -----------------  -----------------  -----------------  -----------------
         O            0.000000000000     0.000000000000    -0.068190581735    15.994914619570
         H            0.749030000000     0.000000000000     0.541117008324     1.007825032230
         H           -0.749030000000    -0.000000000000     0.541117008324     1.007825032230

  Running in c2v symmetry.

  Rotational constants: A =     25.36609  B =     14.90675  C =      9.38911 [cm^-1]
  Rotational constants: A = 760456.34809  B = 446893.08836  C = 281478.31580 [MHz]
  Nuclear repulsion =    9.122096529799810

  Charge       = 0
  Multiplicity = 1
  Electrons    = 10
  Nalpha       = 5
  Nbeta        = 5

  ==> Algorithm <==

  SCF Algorithm Type is PK.
  DIIS enabled.
  MOM disabled.
  Fractional occupation disabled.
  Guess Type is SAD.
  Energy threshold   = 1.00e-10
  Density threshold  = 1.00e-10
  Integral threshold = 0.00e+00

  ==> Primary Basis <==

  Basis Set: 6-31G
    Blend: 6-31G
    Number of shells: 9
    Number of basis function: 13
    Number of Cartesian functions: 13
    Spherical Harmonics?: false
    Max angular momentum: 1

  ==> Pre-Iterations <==

   -------------------------------------------------------
    Irrep   Nso     Nmo     Nalpha   Nbeta   Ndocc  Nsocc
   -------------------------------------------------------
     A1         7       7       0       0       0       0
     A2         0       0       0       0       0       0
     B1         4       4       0       0       0       0
     B2         2       2       0       0       0       0
   -------------------------------------------------------
    Total      13      13       5       5       5       0
   -------------------------------------------------------

  ==> Integral Setup <==

  Using in-core PK algorithm.
   Calculation information:
      Number of atoms:                   3
      Number of AO shells:               9
      Number of primitives:             22
      Number of atomic orbitals:        13
      Number of basis functions:        13

      Integral cutoff                 1.00e-12
      Number of threads:                 1

  Performing in-core PK
  Using 8372 doubles for integral storage.
  We computed 1035 shell quartets total.
  Whereas there are 1035 unique shell quartets.

  ==> DiskJK: Disk-Based J/K Matrices <==

    J tasked:                  Yes
    K tasked:                  Yes
    wK tasked:                  No
    Memory [MiB]:              375
    Schwarz Cutoff:          1E-12

    OpenMP threads:              1

  Minimum eigenvalue in the overlap matrix is 6.8210874795E-02.
  Using Symmetric Orthogonalization.

  SCF Guess: Superposition of Atomic Densities via on-the-fly atomic UHF.

  ==> Iterations <==

                        Total Energy        Delta E     RMS |[F,P]|

   @RHF iter SAD:   -75.51554395015259   -7.55155e+01   0.00000e+00 
   @RHF iter   1:   -75.90739355791477   -3.91850e-01   4.88697e-02 DIIS
   @RHF iter   2:   -75.96257374382419   -5.51802e-02   2.87277e-02 DIIS
   @RHF iter   3:   -75.98218454416394   -1.96108e-02   2.34336e-03 DIIS
   @RHF iter   4:   -75.98251646916127   -3.31925e-04   4.30766e-04 DIIS
   @RHF iter   5:   -75.98252784282153   -1.13737e-05   5.91590e-05 DIIS
   @RHF iter   6:   -75.98252813415937   -2.91338e-07   9.60514e-06 DIIS
   @RHF iter   7:   -75.98252814222263   -8.06327e-09   1.98501e-06 DIIS
   @RHF iter   8:   -75.98252814261848   -3.95843e-10   4.20893e-07 DIIS
   @RHF iter   9:   -75.98252814263293   -1.44524e-11   4.13144e-08 DIIS
   @RHF iter  10:   -75.98252814263307   -1.42109e-13   3.55264e-09 DIIS
   @RHF iter  11:   -75.98252814263309   -1.42109e-14   1.52200e-10 DIIS
   @RHF iter  12:   -75.98252814263296    1.27898e-13   2.56725e-11 DIIS
  Energy and wave function converged.


  ==> Post-Iterations <==

    Orbital Energies [Eh]
    ---------------------

    Doubly Occupied:                                                      

       1A1   -20.564099     2A1    -1.355092     1B1    -0.700676  
       3A1    -0.564778     1B2    -0.502306  

    Virtual:                                                              

       4A1     0.201079     2B1     0.297024     3B1     1.039647  
       2B2     1.163398     5A1     1.184737     6A1     1.223441  
       4B1     1.374244     7A1     1.705288  

    Final Occupation by Irrep:
             A1    A2    B1    B2 
    DOCC [     3,    0,    1,    1 ]

  @RHF Final Energy:   -75.98252814263296

   => Energetics <=

    Nuclear Repulsion Energy =              9.1220965297998102
    One-Electron Energy =                -122.8353467943415609
    Two-Electron Energy =                  37.7307221219087978
    Total Energy =                        -75.9825281426329582

Computation Completed


Properties will be evaluated at   0.000000,   0.000000,   0.000000 [a0]

Properties computed using the SCF density matrix

  Nuclear Dipole Moment: [e a0]
     X:     0.0000      Y:     0.0000      Z:     1.0142

  Electronic Dipole Moment: [e a0]
     X:     0.0000      Y:     0.0000      Z:     0.0400

  Dipole Moment: [e a0]
     X:     0.0000      Y:     0.0000      Z:     1.0542     Total:     1.0542

  Dipole Moment: [D]
     X:     0.0000      Y:     0.0000      Z:     2.6796     Total:     2.6796


*** tstop() called on atlantis at Tue Apr 19 00:19:53 2022
Module time:
	user time   =       0.20 seconds =       0.00 minutes
	system time =       0.00 seconds =       0.00 minutes
	total time  =          0 seconds =       0.00 minutes
Total time:
	user time   =       1.25 seconds =       0.02 minutes
	system time =       0.19 seconds =       0.00 minutes
	total time  =          2 seconds =       0.03 minutes
 MINTS: Wrapper to libmints.
   by Justin Turney

   Calculation information:
      Number of threads:                 1
      Number of atoms:                   3
      Number of AO shells:               9
      Number of SO shells:               7
      Number of primitives:             22
      Number of atomic orbitals:        13
      Number of basis functions:        13

      Number of irreps:                  4
      Integral cutoff                 0.00e+00
      Number of functions per irrep: [   7    0    4    2 ]

 OEINTS: Overlap, kinetic, potential, dipole, and quadrupole integrals
         stored in file 35.

      Computing two-electron integrals...done
      Computed 1270 non-zero two-electron integrals.
        Stored in file 33.


*** tstart() called on atlantis
*** at Tue Apr 19 00:19:53 2022


	Wfn Parameters:
	--------------------
	Wavefunction         = CCSD
	Number of irreps     = 4
	Number of MOs        = 13
	Number of active MOs = 13
	AO-Basis             = NONE
	Semicanonical        = false
	Reference            = RHF
	Print Level          = 1

	IRREP	# MOs	# FZDC	# DOCC	# SOCC	# VIRT	# FZVR
	-----	-----	------	------	------	------	------
	 A1	   7	    0	    3	    0	    4	    0
	 A2	   0	    0	    0	    0	    0	    0
	 B1	   4	    0	    1	    0	    3	    0
	 B2	   2	    0	    1	    0	    1	    0
	Transforming integrals...
	IWL integrals will be deleted.
	(OO|OO)...
	Presorting SO-basis two-electron integrals.
	Sorting File: SO Ints (nn|nn) nbuckets = 1
	Transforming the one-electron integrals and constructing Fock matrices
	Starting first half-transformation.
	Sorting half-transformed integrals.
	First half integral transformation complete.
	Starting second half-transformation.
	Two-electron integral transformation complete.
	(OO|OV)...
	Starting second half-transformation.
	Two-electron integral transformation complete.
	(OO|VV)...
	Starting second half-transformation.
	Two-electron integral transformation complete.
	(OV|OO)...
	Starting first half-transformation.
	Sorting half-transformed integrals.
	First half integral transformation complete.
	Starting second half-transformation.
	Two-electron integral transformation complete.
	(OV|OV)...
	Starting second half-transformation.
	Two-electron integral transformation complete.
	(OV|VV)...
	Starting second half-transformation.
	Two-electron integral transformation complete.
	(VV|OO)...
	Starting first half-transformation.
	Sorting half-transformed integrals.
	First half integral transformation complete.
	Starting second half-transformation.
	Two-electron integral transformation complete.
	(VV|OV)...
	Starting second half-transformation.
	Two-electron integral transformation complete.
	(VV|VV)...
	Starting second half-transformation.
	Two-electron integral transformation complete.
	Frozen core energy     =      0.00000000000000

	Size of irrep 0 of <ab|cd> integrals:      0.001 (MW) /      0.005 (MB)
	Size of irrep 1 of <ab|cd> integrals:      0.000 (MW) /      0.000 (MB)
	Size of irrep 2 of <ab|cd> integrals:      0.001 (MW) /      0.005 (MB)
	Size of irrep 3 of <ab|cd> integrals:      0.000 (MW) /      0.001 (MB)
	Total:                                     0.001 (MW) /      0.011 (MB)

	Size of irrep 0 of <ia|bc> integrals:      0.000 (MW) /      0.003 (MB)
	Size of irrep 1 of <ia|bc> integrals:      0.000 (MW) /      0.000 (MB)
	Size of irrep 2 of <ia|bc> integrals:      0.000 (MW) /      0.002 (MB)
	Size of irrep 3 of <ia|bc> integrals:      0.000 (MW) /      0.000 (MB)
	Total:                                     0.001 (MW) /      0.006 (MB)

	Size of irrep 0 of tijab amplitudes:       0.000 (MW) /      0.002 (MB)
	Size of irrep 1 of tijab amplitudes:       0.000 (MW) /      0.000 (MB)
	Size of irrep 2 of tijab amplitudes:       0.000 (MW) /      0.001 (MB)
	Size of irrep 3 of tijab amplitudes:       0.000 (MW) /      0.000 (MB)
	Total:                                     0.000 (MW) /      0.004 (MB)

	Nuclear Rep. energy          =      9.12209652979981
	SCF energy                   =    -75.98252814263296
	One-electron energy          =   -122.83534679422921
	Two-electron energy          =     37.73072212179636
	Reference energy             =    -75.98252814263304

*** tstop() called on atlantis at Tue Apr 19 00:19:53 2022
Module time:
	user time   =       0.01 seconds =       0.00 minutes
	system time =       0.01 seconds =       0.00 minutes
	total time  =          0 seconds =       0.00 minutes
Total time:
	user time   =       1.27 seconds =       0.02 minutes
	system time =       0.20 seconds =       0.00 minutes
	total time  =          2 seconds =       0.03 minutes
            **************************
            *                        *
            *        CCENERGY        *
            *                        *
            **************************

    Nuclear Rep. energy (wfn)     =    9.122096529799810
    SCF energy          (wfn)     =  -75.982528142632958
    Reference energy    (file100) =  -75.982528142633043

    Input parameters:
    -----------------
    Wave function   =     CCSD
    Reference wfn   =     RHF
    Brueckner       =     No
    Memory (Mbytes) =     524.3
    Maxiter         =     50
    R_Convergence   =     1.0e-07
    E_Convergence   =     1.0e-08
    Restart         =     Yes
    DIIS            =     Yes
    AO Basis        =     NONE
    ABCD            =     NEW
    Cache Level     =     2
    Cache Type      =     LOW
    Print Level     =     1
    Num. of threads =     1
    # Amps to Print =     10
    Print MP2 Amps? =     No
    Analyze T2 Amps =     No
    Print Pair Ener =     No
    Local CC        =     No
    SCS-MP2         =     False
    SCSN-MP2        =     False
    SCS-CCSD        =     False

MP2 correlation energy -0.1297657667540331
                Solving CC Amplitude Equations
                ------------------------------
  Iter             Energy              RMS        T1Diag      D1Diag    New D1Diag    D2Diag
  ----     ---------------------    ---------   ----------  ----------  ----------   --------
     0        -0.129765766754033    0.000e+00    0.000000    0.000000    0.000000    0.100521
     1        -0.131926095622041    2.812e-02    0.004658    0.009584    0.009584    0.109707
     2        -0.135776077713422    1.060e-02    0.005640    0.011569    0.011569    0.116914
     3        -0.136288253210759    2.580e-03    0.006084    0.012601    0.012601    0.118536
     4        -0.136318370453351    6.210e-04    0.006117    0.012849    0.012849    0.118756
     5        -0.136330280946823    1.771e-04    0.006143    0.012992    0.012992    0.118793
     6        -0.136326696441391    5.148e-05    0.006153    0.013042    0.013042    0.118780
     7        -0.136326171397215    1.191e-05    0.006155    0.013055    0.013055    0.118777
     8        -0.136326145727691    2.417e-06    0.006156    0.013058    0.013058    0.118777
     9        -0.136326083728658    5.715e-07    0.006156    0.013058    0.013058    0.118777
    10        -0.136326095420163    9.521e-08    0.006156    0.013058    0.013058    0.118777
    11        -0.136326093955962    1.897e-08    0.006156    0.013058    0.013058    0.118777
    12        -0.136326093893666    2.768e-09    0.006156    0.013058    0.013058    0.118777

    Iterations converged.


    Largest TIA Amplitudes:
              2   0         0.0109921450
              3   6         0.0088590550
              3   4        -0.0078604091
              4   7        -0.0061053865
              2   3        -0.0057551130
              1   2        -0.0044378431
              1   0        -0.0034677435
              3   5        -0.0029570375
              1   1         0.0023135906
              1   3         0.0012006103

    Largest TIjAb Amplitudes:
      4   4   7   7        -0.0533411649
      3   3   4   4        -0.0439961278
      2   2   2   2        -0.0294803526
      3   3   5   5        -0.0279301223
      3   3   6   6        -0.0275843226
      2   2   1   1        -0.0272510757
      3   4   6   7        -0.0264496486
      4   3   7   6        -0.0264496486
      3   3   4   6        -0.0263426423
      3   3   6   4        -0.0263426423

    SCF energy       (wfn)                    =  -75.982528142632958
    Reference energy (file100)                =  -75.982528142633043

    Opposite-spin MP2 correlation energy      =   -0.099455664509960
    Same-spin MP2 correlation energy          =   -0.030310102244073
    MP2 correlation energy                    =   -0.129765766754033
      * MP2 total energy                      =  -76.112293909387077

    Opposite-spin CCSD correlation energy     =   -0.112136132329749
    Same-spin CCSD correlation energy         =   -0.024189961563916
    CCSD correlation energy                   =   -0.136326093893666
      * CCSD total energy                     =  -76.118854236526715


			**************************
			*                        *
			*         CCHBAR         *
			*                        *
			**************************


			**************************
			*        CCLAMBDA        *
			**************************


	Nuclear Rep. energy (wfn)     =    9.122096529799810
	Reference           (wfn)     =                    0
	SCF energy          (wfn)     =  -75.982528142632958
	Reference energy    (CC_INFO) =  -75.982528142633043
	CCSD energy         (CC_INFO) =   -0.136326093893666
	Total CCSD energy   (CC_INFO) =  -76.118854236526715

	Input parameters:
	-----------------
	Maxiter           =     50
	Convergence       = 1.0e-07
	Restart           =     No
	Cache Level       =     2
	Model III         =     No
	DIIS              =     Yes
[...]
    Print Level     =     1
    Num. of threads =     1
    # Amps to Print =     10
    Print MP2 Amps? =     No
    Analyze T2 Amps =     No
    Print Pair Ener =     No
    Local CC        =     No
    SCS-MP2         =     False
    SCSN-MP2        =     False
    SCS-CCSD        =     False

MP2 correlation energy -0.1296361264965462
                Solving CC Amplitude Equations
                ------------------------------
  Iter             Energy              RMS        T1Diag      D1Diag    New D1Diag    D2Diag
  ----     ---------------------    ---------   ----------  ----------  ----------   --------
     0        -0.129636126496546    0.000e+00    0.000000    0.000000    0.000000    0.100350
     1        -0.131810094996498    2.805e-02    0.004642    0.009556    0.009556    0.109513
     2        -0.135645815135722    1.056e-02    0.005620    0.011530    0.011530    0.116684
     3        -0.136154742503584    2.566e-03    0.006062    0.012544    0.012544    0.118292
     4        -0.136184737654725    6.176e-04    0.006094    0.012791    0.012791    0.118509
     5        -0.136196528655156    1.760e-04    0.006121    0.012934    0.012934    0.118547
     6        -0.136192977659934    5.118e-05    0.006130    0.012984    0.012984    0.118533
     7        -0.136192449677160    1.186e-05    0.006133    0.012997    0.012997    0.118530
     8        -0.136192425519372    2.401e-06    0.006133    0.012999    0.012999    0.118530
     9        -0.136192364065963    5.659e-07    0.006133    0.012999    0.012999    0.118530
    10        -0.136192375659358    9.413e-08    0.006133    0.012999    0.012999    0.118530
    11        -0.136192374213668    1.874e-08    0.006133    0.012999    0.012999    0.118530
    12        -0.136192374151955    2.737e-09    0.006133    0.012999    0.012999    0.118530

    Iterations converged.


    Largest TIA Amplitudes:
              2   0         0.0109363697
              4   7         0.0088117931
              4   5        -0.0078516674
              3   1        -0.0060928399
              2   4        -0.0057202547
              1   3        -0.0044070049
              1   0        -0.0035005431
              4   6        -0.0029469156
              1   2         0.0023356642
              1   4         0.0011867285

    Largest TIjAb Amplitudes:
      3   3   1   1        -0.0533449952
      4   4   5   5        -0.0437600548
      2   2   3   3        -0.0291922162
      4   4   6   6        -0.0278900842
      4   4   7   7        -0.0276225903
      2   2   2   2        -0.0275192916
      3   4   1   7        -0.0264513885
      4   3   7   1        -0.0264513885
      4   4   5   7        -0.0263214831
      4   4   7   5        -0.0263214831

    SCF energy       (wfn)                    =  -75.982667026884712
    Reference energy (file100)                =  -75.982667026884741

    Opposite-spin MP2 correlation energy      =   -0.099352283020011
    Same-spin MP2 correlation energy          =   -0.030283843476535
    MP2 correlation energy                    =   -0.129636126496546
      * MP2 total energy                      =  -76.112303153381291

    Opposite-spin CCSD correlation energy     =   -0.112011472170481
    Same-spin CCSD correlation energy         =   -0.024180901981474
    CCSD correlation energy                   =   -0.136192374151955
      * CCSD total energy                     =  -76.118859401036701


			**************************
			*                        *
			*         CCHBAR         *
			*                        *
			**************************


			**************************
			*        CCLAMBDA        *
			**************************


	Nuclear Rep. energy (wfn)     =    9.133414997626005
	Reference           (wfn)     =                    0
	SCF energy          (wfn)     =  -75.982667026884712
	Reference energy    (CC_INFO) =  -75.982667026884741
	CCSD energy         (CC_INFO) =   -0.136192374151955
	Total CCSD energy   (CC_INFO) =  -76.118859401036701

	Input parameters:
	-----------------
	Maxiter           =     50
	Convergence       = 1.0e-07
	Restart           =     No
	Cache Level       =     2
	Model III         =     No
	DIIS              =     Yes
	AO Basis          =     No
	ABCD              =     NEW
	Local CC          =     No
	Parameters for left-handed eigenvectors:
	    Irr   Root  Ground-State?    EOM energy        R0
	  1   0     0        Yes       0.0000000000   1.0000000000
	Labels for eigenvector 1:
	LIA 0 -1, Lia 0 -1, LIJAB 0 -1, Lijab 0 -1, LIjAb 0 -1, 2LIjAb - LIjbA 0 -1
	Symmetry of left-hand state: Ap
	Symmetry of left-hand eigenvector: Ap

	          Solving Lambda Equations
	          ------------------------
	Iter     PseudoEnergy or Norm         RMS  
	----     ---------------------     --------
	   0        -0.136216180137628    4.440e-08
	   1        -0.136206966395543    6.130e-03
	   2        -0.135950195697780    1.201e-03
	   3        -0.135887458911696    5.291e-04
	   4        -0.135883954591135    1.504e-04
	   5        -0.135885914772761    4.459e-05
	   6        -0.135886065855145    1.019e-05
	   7        -0.135886091140452    1.762e-06
	   8        -0.135886106496737    2.437e-07
	   9        -0.135886107814864    4.436e-08

	Largest LIA Amplitudes:
	          4   7         0.0079474547
	          2   0         0.0077473354
	          2   4        -0.0051030497
	          4   5        -0.0050104166
	          3   1        -0.0041119773
	          1   3        -0.0035934424
	          4   6        -0.0033779324
	          1   0        -0.0023775557
	          1   2         0.0021577291
	          1   4         0.0014679568

	Largest LIjAb Amplitudes:
	  3   3   1   1        -0.0535518066
	  4   4   5   5        -0.0430609715
	  2   2   3   3        -0.0290143271
	  2   2   2   2        -0.0274650665
	  4   4   7   7        -0.0274476377
	  4   4   6   6        -0.0273293583
	  3   4   1   7        -0.0264614586
	  4   3   7   1        -0.0264614586
	  4   4   5   7        -0.0261960271
	  4   4   7   5        -0.0261960271

	Iterations converged.

	Overlap <L|e^T> =        0.95501191378

			**************************
			*                        *
			*        CCDENSITY       *
			*                        *
			**************************


	Input parameters:
	-----------------
	Wave function    =   CCSD
	Reference wfn    =   RHF
	Dertype          = 1
	Tolerance        = 1.0e-14
	Cache Level      = 2
	AO Basis         = No
	OPDM Only        = No
	Relax OPDM       = Yes
	Compute Xi       = No
	Use Zeta         = No
	Xi connected     = Yes
	Compute NO       = No

	Nuclear Rep. energy (wfn)     =    9.133414997626005
	SCF energy          (wfn)     =  -75.982667026884712
	Reference energy    (file100) =  -75.982667026884741
	CCSD energy         (CC_INFO) =   -0.136192374151955
	Total CCSD energy   (CC_INFO) =  -76.118859401036701
	Number of States = 1

	Ground?  State     EOM Energy       R0
	  Yes     0 Ap    0.0000000000   1.00000000

	Virial Theorem Data:
	--------------------
	Kinetic energy (ref)   =   75.972985894574265
	Kinetic energy (corr)  =    0.105530247065439
	Kinetic energy (total) =   76.078516141639710
	-V/T (ref)             =    2.000127428614217
	-V/T (corr)            =    2.290552973570723
	-V/T (total)           =    2.000530284519770
  Cartesian Displacement SALCs
  By SALC:
  Number of SALCs: 5, nirreps: A'
  Project out translations: False
  Project out rotations: False
	irrep = 0, ncomponent = 1
		0: atom 0, direction y, coef 1.000000
	irrep = 0, ncomponent = 1
		0: atom 0, direction z, coef 1.000000
	irrep = 0, ncomponent = 2
		0: atom 1, direction x, coef 0.707107
		1: atom 2, direction x, coef -0.707107
	irrep = 0, ncomponent = 2
		0: atom 1, direction y, coef 0.707107
		1: atom 2, direction y, coef 0.707107
	irrep = 0, ncomponent = 2
		0: atom 1, direction z, coef 0.707107
		1: atom 2, direction z, coef 0.707107

  By Atomic Center:
  Number of atomic centers: 3
   Atomic Center 0:
	x component, size = 0
	y component, size = 1
		0: salc 0, irrep 0, coef 1.000000
	z component, size = 1
		0: salc 1, irrep 0, coef 1.000000
   Atomic Center 1:
	x component, size = 1
		0: salc 2, irrep 0, coef 0.707107
	y component, size = 1
		0: salc 3, irrep 0, coef 0.707107
	z component, size = 1
		0: salc 4, irrep 0, coef 0.707107
   Atomic Center 2:
	x component, size = 1
		0: salc 2, irrep 0, coef -0.707107
	y component, size = 1
		0: salc 3, irrep 0, coef 0.707107
	z component, size = 1
		0: salc 4, irrep 0, coef 0.707107

    Molecular point group: cs
    Full point group: Cs

    Geometry (in Bohr), charge = 0, multiplicity = 1:

       Center              X                  Y                   Z       
    ------------   -----------------  -----------------  -----------------
         O            0.000000000000    -0.000418237476    -0.128443286339
         H            1.415461559752     0.003318866125     1.019244081436
         H           -1.415461559752     0.003318866125     1.019244081436

	Presorting MO-basis TPDM.
	Sorting File: MO TPDM (AA|AA) nbuckets = 1
	Starting first half-transformation.
	Sorting half-transformed TPDM.
	First half integral transformation complete.


  -Nuclear Repulsion Energy 1st Derivatives:
     Atom            X                  Y                   Z
    ------   -----------------  -----------------  -----------------
       1        0.000000000000     0.009881080575     3.034540266518
       2       -1.996053690469    -0.004940540287    -1.517270133259
       3        1.996053690469    -0.004940540287    -1.517270133259


  -Core Hamiltonian Gradient:
     Atom            X                  Y                   Z
    ------   -----------------  -----------------  -----------------
       1        0.000000000000    -0.020953906830    -6.435072918990
       2        3.900683643554     0.010476953415     3.217536459495
       3       -3.900683643554     0.010476953415     3.217536459495


  -Lagrangian contribution to gradient:
     Atom            X                  Y                   Z
    ------   -----------------  -----------------  -----------------
       1        0.000000000000     0.001255478520     0.385565130519
       2       -0.194739145909    -0.000627739260    -0.192782565260
       3        0.194739145909    -0.000627739260    -0.192782565260


  -Two-electron contribution to gradient:
     Atom            X                  Y                   Z
    ------   -----------------  -----------------  -----------------
       1        0.000000000000     0.009815455963     3.014386547000
       2       -1.731617287402    -0.004907727982    -1.507193273500
       3        1.731617287402    -0.004907727982    -1.507193273500


  -Total gradient:
     Atom            X                  Y                   Z
    ------   -----------------  -----------------  -----------------
       1        0.000000000000    -0.000001891773    -0.000580974953
       2       -0.021726480226     0.000000945886     0.000290487476
       3        0.021726480226     0.000000945886     0.000290487476


         ----------------------------------------------------------
                                   FINDIF
                     R. A. King and Jonathon Misiewicz
         ---------------------------------------------------------

  Computing second-derivative from gradients using projected, 
  symmetry-adapted, cartesian coordinates.

  9 gradients passed in, including the reference geometry.
  Generating complete list of displacements from unique ones.

    Operation 3 takes plus displacements of irrep A2 to minus ones.
    Operation 2 takes plus displacements of irrep B1 to minus ones.
    Operation 2 takes plus displacements of irrep B2 to minus ones.

-------------------------------------------------------------


  ==> Harmonic Vibrational Analysis <==

  non-mass-weighted Hessian:       Symmetric? True   Hermitian? True   Lin Dep Dim?  3 (0)
  projection of translations (True) and rotations (False) removed 3 degrees of freedom (6)
  total projector:                 Symmetric? True   Hermitian? True   Lin Dep Dim?  3 (3)
  mass-weighted Hessian:           Symmetric? True   Hermitian? True   Lin Dep Dim?  3 (0)
  pre-proj  low-frequency mode:    0.0000i [cm^-1]
  pre-proj  low-frequency mode:    0.0000i [cm^-1]
  pre-proj  low-frequency mode:    0.0000  [cm^-1]
  pre-proj  low-frequency mode:    0.0000  [cm^-1]
  pre-proj  low-frequency mode:    0.0001  [cm^-1]
  pre-proj  low-frequency mode:   86.4443  [cm^-1]
  pre-proj  all modes:['634.3806i' '503.9728i' '0.0000' '0.0000' '0.0001' '86.4443' '1694.2442'
 '3813.3012' '3909.0605']
  projected mass-weighted Hessian: Symmetric? True   Hermitian? True   Lin Dep Dim?  3 (3)
  post-proj low-frequency mode:  634.3806i [cm^-1] (V)
  post-proj low-frequency mode:  503.9728i [cm^-1] (V)
  post-proj low-frequency mode:    0.0000i [cm^-1] (TR)
  post-proj low-frequency mode:    0.0000  [cm^-1] (TR)
  post-proj low-frequency mode:    0.0000  [cm^-1] (TR)
  post-proj low-frequency mode:   86.4443  [cm^-1] (V)
  post-proj  all modes:['634.3806i' '503.9728i' '0.0000i' '0.0000' '0.0000' '86.4443' '1694.2442'
 '3813.3012' '3909.0605']

  Note that "Vibration"s include 3 un-projected rotation-like modes.
  Vibration                       1                   2                   6           
  Freq [cm^-1]                634.3806i           503.9728i            86.4443        
  Irrep                           A2                  B1                  B2          
  Reduced mass [u]              1.0078              1.0470              1.1259        
  Force const [mDyne/A]        -0.2390             -0.1567              0.0050        
  Turning point v=0 [a0]        0.0000              0.0000              1.1122        
  RMS dev v=0 [a0 u^1/2]        0.0000              0.0000              0.8345        
  Char temp [K]                 0.0000              0.0000             124.3741       
  ----------------------------------------------------------------------------------
      1   O                0.00 -0.00  0.00    0.05  0.00 -0.00    0.00 -0.09 -0.00   
      2   H                0.00  0.71  0.00   -0.41  0.00  0.58    0.00  0.70 -0.00   
      3   H               -0.00 -0.71  0.00   -0.41  0.00 -0.58    0.00  0.70 -0.00   

  Vibration                       7                   8                   9           
  Freq [cm^-1]                1694.2442           3813.3012           3909.0605       
  Irrep                           A1                  A1                  B1          
  Reduced mass [u]              1.0877              1.0405              1.0808        
  Force const [mDyne/A]         1.8396              8.9145              9.7303        
  Turning point v=0 [a0]        0.2556              0.1742              0.1688        
  RMS dev v=0 [a0 u^1/2]        0.1885              0.1256              0.1241        
  Char temp [K]               2437.6401           5486.4914           5624.2677       
  ----------------------------------------------------------------------------------
      1   O               -0.00  0.00 -0.07    0.00  0.00 -0.05   -0.07 -0.00 -0.00   
      2   H               -0.40  0.00  0.58    0.60  0.00  0.37    0.55  0.00  0.44   
      3   H                0.40  0.00  0.58   -0.60  0.00  0.37    0.55  0.00 -0.44   

  ==> Thermochemistry Components <==

  Entropy, S
    Electronic S            0.000 [cal/(mol K)]        0.000 [J/(mol K)]       0.00000000 [mEh/K] (multiplicity = 1)
    Translational S        34.608 [cal/(mol K)]      144.801 [J/(mol K)]       0.05515177 [mEh/K] (mol. weight = 18.0106 [u], P = 101325.00 [Pa])
    Rotational S           10.508 [cal/(mol K)]       43.968 [J/(mol K)]       0.01674635 [mEh/K] (symmetry no. = 2)
    Vibrational S           3.744 [cal/(mol K)]       15.665 [J/(mol K)]       0.00596660 [mEh/K]
  Total S                  48.861 [cal/(mol K)]      204.434 [J/(mol K)]       0.07786473 [mEh/K]
  Correction S              0.000 [cal/(mol K)]        0.000 [J/(mol K)]       0.00000000 [mEh/K]

  Constant volume heat capacity, Cv
    Electronic Cv           0.000 [cal/(mol K)]        0.000 [J/(mol K)]       0.00000000 [mEh/K]
    Translational Cv        2.981 [cal/(mol K)]       12.472 [J/(mol K)]       0.00475022 [mEh/K]
    Rotational Cv           2.981 [cal/(mol K)]       12.472 [J/(mol K)]       0.00475022 [mEh/K]
    Vibrational Cv          1.996 [cal/(mol K)]        8.351 [J/(mol K)]       0.00318090 [mEh/K]
  Total Cv                  7.958 [cal/(mol K)]       33.295 [J/(mol K)]       0.01268133 [mEh/K]
  Correction Cv             0.000 [cal/(mol K)]        0.000 [J/(mol K)]       0.00000000 [mEh/K]

  Constant pressure heat capacity, Cp
    Electronic Cp           0.000 [cal/(mol K)]        0.000 [J/(mol K)]       0.00000000 [mEh/K]
    Translational Cp        4.968 [cal/(mol K)]       20.786 [J/(mol K)]       0.00791703 [mEh/K]
    Rotational Cp           2.981 [cal/(mol K)]       12.472 [J/(mol K)]       0.00475022 [mEh/K]
    Vibrational Cp          1.996 [cal/(mol K)]        8.351 [J/(mol K)]       0.00318090 [mEh/K]
  Total Cp                  9.945 [cal/(mol K)]       41.609 [J/(mol K)]       0.01584814 [mEh/K]
  Correction Cp             0.000 [cal/(mol K)]        0.000 [J/(mol K)]       0.00000000 [mEh/K]

  ==> Thermochemistry Energy Analysis <==

  Raw electronic energy, E0
  Total E0, Electronic energy at well bottom at 0 [K]                  -76.11885940 [Eh]

  Zero-point energy, ZPE_vib = Sum_i nu_i / 2
    Electronic ZPE          0.000 [kcal/mol]        0.000 [kJ/mol]       0.00000000 [Eh]
    Translational ZPE       0.000 [kcal/mol]        0.000 [kJ/mol]       0.00000000 [Eh]
    Rotational ZPE          0.000 [kcal/mol]        0.000 [kJ/mol]       0.00000000 [Eh]
    Vibrational ZPE        13.585 [kcal/mol]       56.841 [kJ/mol]       0.02164954 [Eh]        4751.525 [cm^-1]
  Correction ZPE           13.585 [kcal/mol]       56.841 [kJ/mol]       0.02164954 [Eh]        4751.525 [cm^-1]
  Total ZPE, Electronic energy at 0 [K]                                -76.09720986 [Eh]

  Thermal Energy, E (includes ZPE)
    Electronic E            0.000 [kcal/mol]        0.000 [kJ/mol]       0.00000000 [Eh]
    Translational E         0.889 [kcal/mol]        3.718 [kJ/mol]       0.00141628 [Eh]
    Rotational E            0.889 [kcal/mol]        3.718 [kJ/mol]       0.00141628 [Eh]
    Vibrational E          14.064 [kcal/mol]       58.844 [kJ/mol]       0.02241262 [Eh]
  Correction E             15.842 [kcal/mol]       66.281 [kJ/mol]       0.02524517 [Eh]
  Total E, Electronic energy at  298.15 [K]                            -76.09361423 [Eh]

  Enthalpy, H_trans = E_trans + k_B * T
    Electronic H            0.000 [kcal/mol]        0.000 [kJ/mol]       0.00000000 [Eh]
    Translational H         1.481 [kcal/mol]        6.197 [kJ/mol]       0.00236046 [Eh]
    Rotational H            0.889 [kcal/mol]        3.718 [kJ/mol]       0.00141628 [Eh]
    Vibrational H          14.064 [kcal/mol]       58.844 [kJ/mol]       0.02241262 [Eh]
  Correction H             16.434 [kcal/mol]       68.760 [kJ/mol]       0.02618935 [Eh]
  Total H, Enthalpy at  298.15 [K]                                     -76.09267005 [Eh]

  Gibbs free energy, G = H - T * S
    Electronic G            0.000 [kcal/mol]        0.000 [kJ/mol]       0.00000000 [Eh]
    Translational G        -8.837 [kcal/mol]      -36.975 [kJ/mol]      -0.01408304 [Eh]
    Rotational G           -2.244 [kcal/mol]       -9.390 [kJ/mol]      -0.00357665 [Eh]
    Vibrational G          12.948 [kcal/mol]       54.174 [kJ/mol]       0.02063367 [Eh]
  Correction G              1.866 [kcal/mol]        7.808 [kJ/mol]       0.00297399 [Eh]
  Total G, Free enthalpy at  298.15 [K]                                -76.11588542 [Eh]

    Psi4 stopped on: Tuesday, 19 April 2022 12:19AM
    Psi4 wall time for execution: 0:00:05.01

*** Psi4 exiting successfully. Buy a developer a beer!
