
    -----------------------------------------------------------------------
          Psi4: An Open-Source Ab Initio Electronic Structure Package
                               Psi4 1.3.2 release

                         Git: Rev {HEAD} ecbda83 


    R. M. Parrish, L. A. Burns, D. G. A. Smith, A. C. Simmonett,
    A. E. DePrince III, E. G. Hohenstein, U. Bozkaya, A. Yu. Sokolov,
    R. Di Remigio, R. M. Richard, J. F. Gonthier, A. M. James,
    H. R. McAlexander, A. Kumar, M. Saitow, X. Wang, B. P. Pritchard,
    P. Verma, H. F. Schaefer III, K. Patkowski, R. A. King, E. F. Valeev,
    F. A. Evangelista, J. M. Turney, T. D. Crawford, and C. D. Sherrill,
    J. Chem. Theory Comput. 13(7) pp 3185--3197 (2017).
    (doi: 10.1021/acs.jctc.7b00174)


                         Additional Contributions by
    P. Kraus, H. Kruse, M. H. Lechner, M. C. Schieber, R. A. Shaw,
    A. Alenaizan, R. Galvelis, Z. L. Glick, S. Lehtola, and J. P. Misiewicz

    -----------------------------------------------------------------------


    Psi4 started on: Tuesday, 19 April 2022 10:19PM

    Process ID: 10225
    Host:       atlantis
    PSIDATADIR: /home/akrom/software/anaconda3/envs/ffpenv/share/psi4
    Memory:     500.0 MiB
    Threads:    1
    
  ==> Input File <==

--------------------------------------------------------------------------
set basis  6-311++G**
molecule {
0 1
   C       -1.22151       -0.69325        0.00000
   C       -1.21114        0.71122        0.00000
   C       -0.01037       -1.40452        0.00000
   C        0.01037        1.40452        0.00000
   C        1.21114       -0.71122        0.00000
   C        1.22151        0.69325        0.00000
   H       -2.17311       -1.23332        0.00000
   H       -2.15464        1.26533        0.00000
   H       -0.01848       -2.49865        0.00000
   H        0.01848        2.49865        0.00000
   H        2.15464       -1.26533        0.00000
   H        2.17311        1.23332        0.00000
}
energy('MP2')
frequencies('MP2')
--------------------------------------------------------------------------
    SCF Algorithm Type (re)set to DF.

*** tstart() called on atlantis
*** at Tue Apr 19 22:19:38 2022

   => Loading Basis Set <=

    Name: 6-311++G**
    Role: ORBITAL
    Keyword: BASIS
    atoms 1-6  entry C          line   119 file /home/akrom/software/anaconda3/envs/ffpenv/share/psi4/basis/6-311ppgss.gbs 
    atoms 7-12 entry H          line    42 file /home/akrom/software/anaconda3/envs/ffpenv/share/psi4/basis/6-311ppgss.gbs 


         ---------------------------------------------------------
                                   SCF
               by Justin Turney, Rob Parrish, Andy Simmonett
                          and Daniel G. A. Smith
                              RHF Reference
                        1 Threads,    500 MiB Core
         ---------------------------------------------------------

  ==> Geometry <==

    Molecular point group: c2h
    Full point group: C2h

    Geometry (in Angstrom), charge = 0, multiplicity = 1:

       Center              X                  Y                   Z               Mass       
    ------------   -----------------  -----------------  -----------------  -----------------
         C           -1.221510000000    -0.693250000000     0.000000000000    12.000000000000
         C           -1.211140000000     0.711220000000     0.000000000000    12.000000000000
         C           -0.010370000000    -1.404520000000     0.000000000000    12.000000000000
         C            0.010370000000     1.404520000000     0.000000000000    12.000000000000
         C            1.211140000000    -0.711220000000     0.000000000000    12.000000000000
         C            1.221510000000     0.693250000000     0.000000000000    12.000000000000
         H           -2.173110000000    -1.233320000000     0.000000000000     1.007825032230
         H           -2.154640000000     1.265330000000     0.000000000000     1.007825032230
         H           -0.018480000000    -2.498650000000     0.000000000000     1.007825032230
         H            0.018480000000     2.498650000000     0.000000000000     1.007825032230
         H            2.154640000000    -1.265330000000     0.000000000000     1.007825032230
         H            2.173110000000     1.233320000000     0.000000000000     1.007825032230

  Running in c2h symmetry.

  Rotational constants: A =      0.18753  B =      0.18752  C =      0.09376 [cm^-1]
  Rotational constants: A =   5621.92707  B =   5621.82252  C =   2810.93740 [MHz]
  Nuclear repulsion =  202.013308935380167

  Charge       = 0
  Multiplicity = 1
  Electrons    = 42
  Nalpha       = 21
  Nbeta        = 21

  ==> Algorithm <==

  SCF Algorithm Type is DF.
  DIIS enabled.
  MOM disabled.
  Fractional occupation disabled.
  Guess Type is SAD.
  Energy threshold   = 1.00e-08
  Density threshold  = 1.00e-08
  Integral threshold = 0.00e+00

  ==> Primary Basis <==

  Basis Set: 6-311++G**
    Blend: 6-311++G**
    Number of shells: 90
    Number of basis function: 174
    Number of Cartesian functions: 180
    Spherical Harmonics?: true
    Max angular momentum: 2

   => Loading Basis Set <=

    Name: (6-311++G** AUX)
    Role: JKFIT
    Keyword: DF_BASIS_SCF
    atoms 1-6  entry C          line   162 file /home/akrom/software/anaconda3/envs/ffpenv/share/psi4/basis/aug-cc-pvtz-jkfit.gbs 
    atoms 7-12 entry H          line    70 file /home/akrom/software/anaconda3/envs/ffpenv/share/psi4/basis/aug-cc-pvtz-jkfit.gbs 

  ==> Pre-Iterations <==

   -------------------------------------------------------
    Irrep   Nso     Nmo     Nalpha   Nbeta   Ndocc  Nsocc
   -------------------------------------------------------
     Ag        66      66       0       0       0       0
     Bg        21      21       0       0       0       0
     Au        21      21       0       0       0       0
     Bu        66      66       0       0       0       0
   -------------------------------------------------------
    Total     174     174      21      21      21       0
   -------------------------------------------------------

  ==> Integral Setup <==

  DFHelper Memory: AOs need 0.213 GiB; user supplied 0.366 GiB. Using in-core AOs.

  ==> MemDFJK: Density-Fitted J/K Matrices <==

    J tasked:                   Yes
    K tasked:                   Yes
    wK tasked:                   No
    OpenMP threads:               1
    Memory [MiB]:               375
    Algorithm:                 Core
    Schwarz Cutoff:           1E-12
    Mask sparsity (%):       1.2815
    Fitting Condition:        1E-10

   => Auxiliary Basis Set <=

  Basis Set: (6-311++G** AUX)
    Blend: AUG-CC-PVTZ-JKFIT
    Number of shells: 264
    Number of basis function: 900
    Number of Cartesian functions: 1116
    Spherical Harmonics?: true
    Max angular momentum: 4

  Minimum eigenvalue in the overlap matrix is 1.1393482713E-06.
  Using Symmetric Orthogonalization.

  SCF Guess: Superposition of Atomic Densities via on-the-fly atomic UHF.

  ==> Iterations <==

                           Total Energy        Delta E     RMS |[F,P]|

   @DF-RHF iter SAD:  -230.03807935638230   -2.30038e+02   0.00000e+00 
   @DF-RHF iter   1:  -230.58525743191984   -5.47178e-01   5.28184e-03 DIIS
   @DF-RHF iter   2:  -230.72160356107634   -1.36346e-01   2.49528e-03 DIIS
   @DF-RHF iter   3:  -230.75197302676560   -3.03695e-02   4.01374e-04 DIIS
   @DF-RHF iter   4:  -230.75332306887523   -1.35004e-03   4.36233e-05 DIIS
   @DF-RHF iter   5:  -230.75334229021647   -1.92213e-05   8.07365e-06 DIIS
   @DF-RHF iter   6:  -230.75334299757060   -7.07354e-07   9.30971e-07 DIIS
   @DF-RHF iter   7:  -230.75334300755898   -9.98838e-09   9.28007e-08 DIIS
   @DF-RHF iter   8:  -230.75334300765002   -9.10347e-11   1.27982e-08 DIIS
   @DF-RHF iter   9:  -230.75334300765138   -1.36424e-12   5.14595e-09 DIIS
  Energy and wave function converged.


  ==> Post-Iterations <==

    Orbital Energies [Eh]
    ---------------------

    Doubly Occupied:                                                      

       1Ag   -11.243802     1Bu   -11.243261     2Bu   -11.243258  
       2Ag   -11.242087     3Ag   -11.242085     3Bu   -11.241511  
       4Ag    -1.146345     4Bu    -1.012732     5Bu    -1.012725  
       5Ag    -0.822361     6Ag    -0.822348     7Ag    -0.705427  
       6Bu    -0.643445     7Bu    -0.617351     8Bu    -0.586823  
       9Bu    -0.586820     1Au    -0.498331     8Ag    -0.495169  
       9Ag    -0.495139     1Bg    -0.335702     2Bg    -0.335691  

    Virtual:                                                              

      10Ag     0.042155    10Bu     0.048935    11Bu     0.048935  
      11Ag     0.066087    12Ag     0.066087    12Bu     0.087804  
       2Au     0.107134     3Au     0.107145     4Au     0.129846  
       3Bg     0.152797     4Bg     0.152797    13Ag     0.157982  
      13Bu     0.162459    14Ag     0.180266    15Ag     0.180267  
      14Bu     0.183481    15Bu     0.183482    16Ag     0.192726  
       5Bg     0.208563    17Ag     0.212040    18Ag     0.212040  
       5Au     0.215338     6Au     0.215344    16Bu     0.216234  
      17Bu     0.228139    18Bu     0.228140    19Bu     0.249612  
      20Bu     0.249613    19Ag     0.289177    20Ag     0.289178  
      21Ag     0.302629    22Ag     0.331128    21Bu     0.333610  
       6Bg     0.363448    22Bu     0.405265    23Bu     0.405273  
      23Ag     0.425457    24Ag     0.425459    24Bu     0.435473  
      25Ag     0.494819    26Ag     0.494830    25Bu     0.504413  
      26Bu     0.504429    27Bu     0.605070    27Ag     0.605322  
       7Au     0.716131    28Bu     0.718109    29Bu     0.721115  
      30Bu     0.721118    28Ag     0.743687    29Ag     0.745459  
      30Ag     0.745471     7Bg     0.759263     8Bg     0.759269  
      31Ag     0.795680     8Au     0.818758     9Au     0.818763  
       9Bg     0.883095    31Bu     0.936546    32Bu     0.936569  
      32Ag     0.943620    33Ag     0.943630    34Ag     0.973909  
      33Bu     1.014543    34Bu     1.014543    35Bu     1.019818  
      35Ag     1.059558    36Ag     1.059561    36Bu     1.088826  
      37Bu     1.115069    38Bu     1.115081    37Ag     1.119630  
      10Au     1.170868    38Ag     1.211926    39Ag     1.211935  
      10Bg     1.245699    11Bg     1.319246    12Bg     1.319255  
      11Au     1.385169    12Au     1.385182    39Bu     1.516009  
      40Ag     1.557361    40Bu     1.707526    41Bu     1.774266  
      42Bu     1.774274    41Ag     1.786890    13Bg     1.817779  
      13Au     1.836017    14Au     1.836024    42Ag     1.897442  
      43Ag     1.897446    43Bu     1.923574    44Bu     1.923583  
      15Au     1.984422    14Bg     2.046521    15Bg     2.046533  
      44Ag     2.092502    45Ag     2.092540    45Bu     2.113661  
      16Bg     2.225417    17Bg     2.225459    46Ag     2.236148  
      46Bu     2.240529    47Bu     2.240537    48Bu     2.283101  
      47Ag     2.333287    48Ag     2.333312    16Au     2.364247  
      17Au     2.364261    18Bg     2.617484    18Au     2.644568  
      49Ag     2.720941    50Ag     2.720962    51Ag     2.727980  
      49Bu     2.797689    50Bu     2.797704    51Bu     2.933296  
      52Bu     2.933330    53Bu     2.977964    52Ag     2.989477  
      54Bu     3.023000    55Bu     3.023004    53Ag     3.048498  
      54Ag     3.048513    19Au     3.052484    56Bu     3.097335  
      19Bg     3.186768    20Bg     3.186774    55Ag     3.229993  
      20Au     3.287948    21Au     3.287949    56Ag     3.293478  
      57Ag     3.293493    21Bg     3.470252    57Bu     3.522440  
      58Ag     3.751137    59Ag     3.751189    58Bu     3.881523  
      59Bu     3.881560    60Ag     3.897133    60Bu     4.020482  
      61Ag     4.387487    62Ag     4.387511    61Bu     4.473338  
      62Bu     4.561722    63Bu     4.561734    63Ag     5.258371  
      64Ag    24.734009    64Bu    25.105328    65Bu    25.105417  
      65Ag    25.216350    66Ag    25.216445    66Bu    25.322299  

    Final Occupation by Irrep:
             Ag    Bg    Au    Bu 
    DOCC [     9,    2,    1,    9 ]

  @DF-RHF Final Energy:  -230.75334300765138

   => Energetics <=

    Nuclear Repulsion Energy =            202.0133089353801665
    One-Electron Energy =                -710.3884798696237795
    Two-Electron Energy =                 277.6218279265922320
    Total Energy =                       -230.7533430076513810

Computation Completed


Properties will be evaluated at   0.000000,   0.000000,   0.000000 [a0]

Properties computed using the SCF density matrix

  Nuclear Dipole Moment: [e a0]
     X:    -0.0000      Y:    -0.0000      Z:     0.0000

  Electronic Dipole Moment: [e a0]
     X:     0.0000      Y:     0.0000      Z:     0.0000

  Dipole Moment: [e a0]
     X:    -0.0000      Y:    -0.0000      Z:     0.0000     Total:     0.0000

  Dipole Moment: [D]
     X:    -0.0000      Y:    -0.0000      Z:     0.0000     Total:     0.0000


*** tstop() called on atlantis at Tue Apr 19 22:19:42 2022
Module time:
	user time   =       3.47 seconds =       0.06 minutes
	system time =       0.10 seconds =       0.00 minutes
	total time  =          4 seconds =       0.07 minutes
Total time:
	user time   =       3.47 seconds =       0.06 minutes
	system time =       0.10 seconds =       0.00 minutes
	total time  =          4 seconds =       0.07 minutes

*** tstart() called on atlantis
*** at Tue Apr 19 22:19:42 2022


  //>>>>>>>>>>>>>>>>>>>>>>>>>>>>>>>>>>>//
  //               DFMP2               //
  //<<<<<<<<<<<<<<<<<<<<<<<<<<<<<<<<<<<//

   => Loading Basis Set <=

    Name: (6-311++G** AUX)
    Role: RIFIT
    Keyword: DF_BASIS_MP2
    atoms 1-6  entry C          line   148 file /home/akrom/software/anaconda3/envs/ffpenv/share/psi4/basis/aug-cc-pvtz-ri.gbs 
    atoms 7-12 entry H          line    30 file /home/akrom/software/anaconda3/envs/ffpenv/share/psi4/basis/aug-cc-pvtz-ri.gbs 

	 --------------------------------------------------------
	                          DF-MP2                         
	      2nd-Order Density-Fitted Moller-Plesset Theory     
	              RMP2 Wavefunction,   1 Threads             
	                                                         
	        Rob Parrish, Justin Turney, Andy Simmonett,      
	           Ed Hohenstein, and C. David Sherrill          
	 --------------------------------------------------------

   => Auxiliary Basis Set <=

  Basis Set: (6-311++G** AUX)
    Blend: AUG-CC-PVTZ-RI
    Number of shells: 252
    Number of basis function: 912
    Number of Cartesian functions: 1146
    Spherical Harmonics?: true
    Max angular momentum: 4

	 --------------------------------------------------------
	                 NBF =   174, NAUX =   912
	 --------------------------------------------------------
	   CLASS    FOCC     OCC    AOCC    AVIR     VIR    FVIR
	   PAIRS       0      21      21     153     153       0
	 --------------------------------------------------------

	-----------------------------------------------------------
	 ==================> DF-MP2 Energies <==================== 
	-----------------------------------------------------------
	 Reference Energy          =    -230.7533430076513810 [Eh]
	 Singles Energy            =      -0.0000000000000000 [Eh]
	 Same-Spin Energy          =      -0.2277632969984762 [Eh]
	 Opposite-Spin Energy      =      -0.7160672091792882 [Eh]
	 Correlation Energy        =      -0.9438305061777644 [Eh]
	 Total Energy              =    -231.6971735138291422 [Eh]
	-----------------------------------------------------------
	 ================> DF-SCS-MP2 Energies <================== 
	-----------------------------------------------------------
	 SCS Same-Spin Scale       =       0.3333333333333333 [-]
	 SCS Opposite-Spin Scale   =       1.2000000000000000 [-]
	 SCS Same-Spin Energy      =      -0.0759210989994921 [Eh]
	 SCS Opposite-Spin Energy  =      -0.8592806510151458 [Eh]
	 SCS Correlation Energy    =      -0.9352017500146379 [Eh]
	 SCS Total Energy          =    -231.6885447576660226 [Eh]
	-----------------------------------------------------------


*** tstop() called on atlantis at Tue Apr 19 22:19:43 2022
Module time:
	user time   =       1.61 seconds =       0.03 minutes
	system time =       0.10 seconds =       0.00 minutes
	total time  =          1 seconds =       0.02 minutes
Total time:
	user time   =       5.08 seconds =       0.08 minutes
	system time =       0.20 seconds =       0.00 minutes
	total time  =          5 seconds =       0.08 minutes
gradient() will perform analytic gradient computation.
    SCF Algorithm Type (re)set to DF.

*** tstart() called on atlantis
*** at Tue Apr 19 22:19:43 2022

   => Loading Basis Set <=

    Name: 6-311++G**
    Role: ORBITAL
    Keyword: BASIS
    atoms 1-6  entry C          line   119 file /home/akrom/software/anaconda3/envs/ffpenv/share/psi4/basis/6-311ppgss.gbs 
    atoms 7-12 entry H          line    42 file /home/akrom/software/anaconda3/envs/ffpenv/share/psi4/basis/6-311ppgss.gbs 


         ---------------------------------------------------------
                                   SCF
               by Justin Turney, Rob Parrish, Andy Simmonett
                          and Daniel G. A. Smith
                              RHF Reference
                        1 Threads,    500 MiB Core
         ---------------------------------------------------------

  ==> Geometry <==

    Molecular point group: c2h
    Full point group: C2h

    Geometry (in Angstrom), charge = 0, multiplicity = 1:

       Center              X                  Y                   Z               Mass       
    ------------   -----------------  -----------------  -----------------  -----------------
         C           -1.221510000000    -0.693250000000     0.000000000000    12.000000000000
         C           -1.211140000000     0.711220000000     0.000000000000    12.000000000000
         C           -0.010370000000    -1.404520000000     0.000000000000    12.000000000000
         C            0.010370000000     1.404520000000     0.000000000000    12.000000000000
         C            1.211140000000    -0.711220000000     0.000000000000    12.000000000000
         C            1.221510000000     0.693250000000     0.000000000000    12.000000000000
         H           -2.173110000000    -1.233320000000     0.000000000000     1.007825032230
         H           -2.154640000000     1.265330000000     0.000000000000     1.007825032230
         H           -0.018480000000    -2.498650000000     0.000000000000     1.007825032230
         H            0.018480000000     2.498650000000     0.000000000000     1.007825032230
         H            2.154640000000    -1.265330000000     0.000000000000     1.007825032230
         H            2.173110000000     1.233320000000     0.000000000000     1.007825032230

  Running in c2h symmetry.

  Rotational constants: A =      0.18753  B =      0.18752  C =      0.09376 [cm^-1]
  Rotational constants: A =   5621.92707  B =   5621.82252  C =   2810.93740 [MHz]
  Nuclear repulsion =  202.013308935380167

  Charge       = 0
  Multiplicity = 1
  Electrons    = 42
  Nalpha       = 21
  Nbeta        = 21

  ==> Algorithm <==

  SCF Algorithm Type is DF.
  DIIS enabled.
  MOM disabled.
  Fractional occupation disabled.
  Guess Type is SAD.
  Energy threshold   = 1.00e-10
  Density threshold  = 1.00e-10
  Integral threshold = 0.00e+00

  ==> Primary Basis <==

  Basis Set: 6-311++G**
    Blend: 6-311++G**
    Number of shells: 90
    Number of basis function: 174
    Number of Cartesian functions: 180
    Spherical Harmonics?: true
    Max angular momentum: 2

   => Loading Basis Set <=

    Name: (6-311++G** AUX)
    Role: JKFIT
    Keyword: DF_BASIS_SCF
    atoms 1-6  entry C          line   162 file /home/akrom/software/anaconda3/envs/ffpenv/share/psi4/basis/aug-cc-pvtz-jkfit.gbs 
    atoms 7-12 entry H          line    70 file /home/akrom/software/anaconda3/envs/ffpenv/share/psi4/basis/aug-cc-pvtz-jkfit.gbs 

  ==> Pre-Iterations <==

   -------------------------------------------------------
    Irrep   Nso     Nmo     Nalpha   Nbeta   Ndocc  Nsocc
   -------------------------------------------------------
     Ag        66      66       0       0       0       0
     Bg        21      21       0       0       0       0
     Au        21      21       0       0       0       0
     Bu        66      66       0       0       0       0
   -------------------------------------------------------
    Total     174     174      21      21      21       0
   -------------------------------------------------------

  ==> Integral Setup <==

  DFHelper Memory: AOs need 0.213 GiB; user supplied 0.366 GiB. Using in-core AOs.

  ==> MemDFJK: Density-Fitted J/K Matrices <==

    J tasked:                   Yes
    K tasked:                   Yes
    wK tasked:                   No
    OpenMP threads:               1
    Memory [MiB]:               375
    Algorithm:                 Core
    Schwarz Cutoff:           1E-12
    Mask sparsity (%):       1.2815
    Fitting Condition:        1E-10

   => Auxiliary Basis Set <=

  Basis Set: (6-311++G** AUX)
    Blend: AUG-CC-PVTZ-JKFIT
    Number of shells: 264
    Number of basis function: 900
    Number of Cartesian functions: 1116
    Spherical Harmonics?: true
    Max angular momentum: 4

  Minimum eigenvalue in the overlap matrix is 1.1393482715E-06.
  Using Symmetric Orthogonalization.

  SCF Guess: Superposition of Atomic Densities via on-the-fly atomic UHF.

  ==> Iterations <==

                           Total Energy        Delta E     RMS |[F,P]|

   @DF-RHF iter SAD:  -230.03807935148262   -2.30038e+02   0.00000e+00 
   @DF-RHF iter   1:  -230.58525742684037   -5.47178e-01   5.28184e-03 DIIS
   @DF-RHF iter   2:  -230.72160355590913   -1.36346e-01   2.49528e-03 DIIS
   @DF-RHF iter   3:  -230.75197302159032   -3.03695e-02   4.01374e-04 DIIS
   @DF-RHF iter   4:  -230.75332306369845   -1.35004e-03   4.36233e-05 DIIS
   @DF-RHF iter   5:  -230.75334228503942   -1.92213e-05   8.07365e-06 DIIS
   @DF-RHF iter   6:  -230.75334299239418   -7.07355e-07   9.30971e-07 DIIS
   @DF-RHF iter   7:  -230.75334300238285   -9.98867e-09   9.28007e-08 DIIS
   @DF-RHF iter   8:  -230.75334300247380   -9.09495e-11   1.27982e-08 DIIS
   @DF-RHF iter   9:  -230.75334300247508   -1.27898e-12   5.14596e-09 DIIS
   @DF-RHF iter  10:  -230.75334300247528   -1.98952e-13   7.81877e-10 DIIS
   @DF-RHF iter  11:  -230.75334300247482    4.54747e-13   9.57480e-11 DIIS
  Energy and wave function converged.


  ==> Post-Iterations <==

    Orbital Energies [Eh]
    ---------------------

    Doubly Occupied:                                                      

       1Ag   -11.243802     1Bu   -11.243261     2Bu   -11.243258  
       2Ag   -11.242087     3Ag   -11.242085     3Bu   -11.241511  
       4Ag    -1.146345     4Bu    -1.012732     5Bu    -1.012725  
       5Ag    -0.822361     6Ag    -0.822348     7Ag    -0.705427  
       6Bu    -0.643445     7Bu    -0.617351     8Bu    -0.586823  
       9Bu    -0.586820     1Au    -0.498331     8Ag    -0.495169  
       9Ag    -0.495139     1Bg    -0.335702     2Bg    -0.335691  

    Virtual:                                                              

      10Ag     0.042155    10Bu     0.048935    11Bu     0.048935  
      11Ag     0.066087    12Ag     0.066087    12Bu     0.087805  
       2Au     0.107134     3Au     0.107145     4Au     0.129846  
       3Bg     0.152797     4Bg     0.152797    13Ag     0.157982  
      13Bu     0.162459    14Ag     0.180266    15Ag     0.180267  
      14Bu     0.183481    15Bu     0.183482    16Ag     0.192726  
       5Bg     0.208563    17Ag     0.212040    18Ag     0.212040  
       5Au     0.215338     6Au     0.215344    16Bu     0.216238  
      17Bu     0.228139    18Bu     0.228140    19Bu     0.249612  
      20Bu     0.249613    19Ag     0.289176    20Ag     0.289178  
      21Ag     0.302629    22Ag     0.331128    21Bu     0.333622  
       6Bg     0.363448    22Bu     0.405265    23Bu     0.405273  
      23Ag     0.425457    24Ag     0.425459    24Bu     0.435477  
      25Ag     0.494819    26Ag     0.494830    25Bu     0.504413  
      26Bu     0.504429    27Bu     0.605070    27Ag     0.605322  
       7Au     0.716131    28Bu     0.718110    29Bu     0.721115  
      30Bu     0.721118    28Ag     0.743687    29Ag     0.745459  
      30Ag     0.745471     7Bg     0.759263     8Bg     0.759269  
      31Ag     0.795680     8Au     0.818758     9Au     0.818763  
       9Bg     0.883095    31Bu     0.936546    32Bu     0.936569  
      32Ag     0.943620    33Ag     0.943630    34Ag     0.973909  
      33Bu     1.014543    34Bu     1.014543    35Bu     1.019824  
      35Ag     1.059558    36Ag     1.059561    36Bu     1.088827  
      37Bu     1.115069    38Bu     1.115081    37Ag     1.119630  
      10Au     1.170868    38Ag     1.211926    39Ag     1.211935  
      10Bg     1.245699    11Bg     1.319246    12Bg     1.319255  
      11Au     1.385169    12Au     1.385182    39Bu     1.516010  
      40Ag     1.557361    40Bu     1.707526    41Bu     1.774266  
      42Bu     1.774274    41Ag     1.786890    13Bg     1.817779  
      13Au     1.836017    14Au     1.836024    42Ag     1.897442  
      43Ag     1.897445    43Bu     1.923574    44Bu     1.923583  
      15Au     1.984422    14Bg     2.046521    15Bg     2.046533  
      44Ag     2.092502    45Ag     2.092540    45Bu     2.113661  
      16Bg     2.225417    17Bg     2.225459    46Ag     2.236148  
      46Bu     2.240529    47Bu     2.240537    48Bu     2.283101  
      47Ag     2.333287    48Ag     2.333311    16Au     2.364247  
      17Au     2.364261    18Bg     2.617484    18Au     2.644568  
      49Ag     2.720941    50Ag     2.720962    51Ag     2.727980  
      49Bu     2.797689    50Bu     2.797704    51Bu     2.933296  
      52Bu     2.933330    53Bu     2.977964    52Ag     2.989477  
      54Bu     3.023000    55Bu     3.023004    53Ag     3.048498  
      54Ag     3.048513    19Au     3.052484    56Bu     3.097336  
      19Bg     3.186768    20Bg     3.186774    55Ag     3.229993  
      20Au     3.287948    21Au     3.287949    56Ag     3.293478  
      57Ag     3.293493    21Bg     3.470252    57Bu     3.522440  
      58Ag     3.751137    59Ag     3.751189    58Bu     3.881523  
      59Bu     3.881560    60Ag     3.897133    60Bu     4.020482  
      61Ag     4.387487    62Ag     4.387511    61Bu     4.473338  
      62Bu     4.561722    63Bu     4.561733    63Ag     5.258371  
      64Ag    24.734009    64Bu    25.105328    65Bu    25.105417  
      65Ag    25.216350    66Ag    25.216445    66Bu    25.322299  

    Final Occupation by Irrep:
             Ag    Bg    Au    Bu 
    DOCC [     9,    2,    1,    9 ]

  @DF-RHF Final Energy:  -230.75334300247482

   => Energetics <=

    Nuclear Repulsion Energy =            202.0133089353801665
    One-Electron Energy =                -710.3884798181117048
    Two-Electron Energy =                 277.6218278802567170
    Total Energy =                       -230.7533430024748213

Computation Completed


Properties will be evaluated at   0.000000,   0.000000,   0.000000 [a0]

Properties computed using the SCF density matrix

  Nuclear Dipole Moment: [e a0]
     X:    -0.0000      Y:    -0.0000      Z:     0.0000

  Electronic Dipole Moment: [e a0]
     X:     0.0000      Y:     0.0000      Z:     0.0000

  Dipole Moment: [e a0]
     X:    -0.0000      Y:    -0.0000      Z:     0.0000     Total:     0.0000

  Dipole Moment: [D]
     X:    -0.0000      Y:    -0.0000      Z:     0.0000     Total:     0.0000


*** tstop() called on atlantis at Tue Apr 19 22:19:47 2022
Module time:
	user time   =       3.73 seconds =       0.06 minutes
	system time =       0.07 seconds =       0.00 minutes
	total time  =          4 seconds =       0.07 minutes
Total time:
	user time   =       8.81 seconds =       0.15 minutes
	system time =       0.27 seconds =       0.00 minutes
	total time  =          9 seconds =       0.15 minutes

*** tstart() called on atlantis
*** at Tue Apr 19 22:19:47 2022


  //>>>>>>>>>>>>>>>>>>>>>>>>>>>>>>>>>>>//
  //               DFMP2               //
  //<<<<<<<<<<<<<<<<<<<<<<<<<<<<<<<<<<<//

   => Loading Basis Set <=

    Name: (6-311++G** AUX)
    Role: RIFIT
    Keyword: DF_BASIS_MP2
    atoms 1-6  entry C          line   148 file /home/akrom/software/anaconda3/envs/ffpenv/share/psi4/basis/aug-cc-pvtz-ri.gbs 
    atoms 7-12 entry H          line    30 file /home/akrom/software/anaconda3/envs/ffpenv/share/psi4/basis/aug-cc-pvtz-ri.gbs 

	 --------------------------------------------------------
	                          DF-MP2                         
	      2nd-Order Density-Fitted Moller-Plesset Theory     
	              RMP2 Wavefunction,   1 Threads             
	                                                         
	        Rob Parrish, Justin Turney, Andy Simmonett,      
	           Ed Hohenstein, and C. David Sherrill          
	 --------------------------------------------------------

   => Auxiliary Basis Set <=

  Basis Set: (6-311++G** AUX)
    Blend: AUG-CC-PVTZ-RI
    Number of shells: 252
    Number of basis function: 912
    Number of Cartesian functions: 1146
    Spherical Harmonics?: true
    Max angular momentum: 4

	 --------------------------------------------------------
	                 NBF =   174, NAUX =   912
	 --------------------------------------------------------
	   CLASS    FOCC     OCC    AOCC    AVIR     VIR    FVIR
	   PAIRS       0      21      21     153     153       0
	 --------------------------------------------------------

  DFHelper Memory: AOs need 0.213 GiB; user supplied 0.366 GiB. Using in-core AOs.


         ------------------------------------------------------------
                                     CPHF                           
                                  Rob Parrish                       
         ------------------------------------------------------------

  ==> Geometry <==

    Molecular point group: c2h
    Full point group: C2h

    Geometry (in Angstrom), charge = 0, multiplicity = 1:

       Center              X                  Y                   Z               Mass       
    ------------   -----------------  -----------------  -----------------  -----------------
         C           -1.221510000000    -0.693250000000     0.000000000000    12.000000000000
         C           -1.211140000000     0.711220000000     0.000000000000    12.000000000000
         C           -0.010370000000    -1.404520000000     0.000000000000    12.000000000000
         C            0.010370000000     1.404520000000     0.000000000000    12.000000000000
         C            1.211140000000    -0.711220000000     0.000000000000    12.000000000000
         C            1.221510000000     0.693250000000     0.000000000000    12.000000000000
         H           -2.173110000000    -1.233320000000     0.000000000000     1.007825032230
         H           -2.154640000000     1.265330000000     0.000000000000     1.007825032230
         H           -0.018480000000    -2.498650000000     0.000000000000     1.007825032230
         H            0.018480000000     2.498650000000     0.000000000000     1.007825032230
         H            2.154640000000    -1.265330000000     0.000000000000     1.007825032230
         H            2.173110000000     1.233320000000     0.000000000000     1.007825032230

  Nuclear repulsion =  202.013308935380167
  Reference energy  = -230.753343002474821

  ==> Basis Set <==

  Basis Set: 6-311++G**
    Blend: 6-311++G**
    Number of shells: 90
    Number of basis function: 174
    Number of Cartesian functions: 180
    Spherical Harmonics?: true
    Max angular momentum: 2

  ==> CGRSolver (by Rob Parrish) <==

   Number of roots    =         1
   Preconditioning    =    JACOBI
   Convergence cutoff =     1E-06
   Maximum iterations =       100

  ==> CPHFRHamiltonian (by Rob Parrish) <== 

  ==> MemDFJK: Density-Fitted J/K Matrices <==

    J tasked:                   Yes
    K tasked:                   Yes
    wK tasked:                   No
    OpenMP threads:               1
    Memory [MiB]:               375
    Algorithm:                 Core
    Schwarz Cutoff:           1E-12
    Mask sparsity (%):       1.2815
    Fitting Condition:        1E-10

   => Auxiliary Basis Set <=

  Basis Set: (6-311++G** AUX)
    Blend: AUG-CC-PVTZ-JKFIT
    Number of shells: 264
    Number of basis function: 900
    Number of Cartesian functions: 1116
    Spherical Harmonics?: true
    Max angular momentum: 4

  ==> CPHF Iterations <==

  => Iterations <=

             Iter  Converged  Remaining    Residual
  CGR           1          0          1   7.162E-02
  CGR           2          0          1   1.213E-02
  CGR           3          0          1   2.782E-03
  CGR           4          0          1   4.893E-04
  CGR           5          0          1   6.095E-05
  CGR           6          0          1   5.684E-06
  CGR           7          1          0   6.180E-07

    CGRSolver converged.

  ==> DFCorrGrad: Density-Fitted Correlated Gradients <==

    OpenMP threads:              1
    Integrals threads:           1
    Memory [GiB]:            0.366
    Schwarz Cutoff:          0E+00
    Fitting Condition:       1E-10

   => Auxiliary Basis Set <=

  Basis Set: (6-311++G** AUX)
    Blend: AUG-CC-PVTZ-JKFIT
    Number of shells: 264
    Number of basis function: 900
    Number of Cartesian functions: 1116
    Spherical Harmonics?: true
    Max angular momentum: 4

	-----------------------------------------------------------
	 ==================> DF-MP2 Energies <==================== 
	-----------------------------------------------------------
	 Reference Energy          =    -230.7533430024748213 [Eh]
	 Singles Energy            =      -0.0000000000000000 [Eh]
	 Same-Spin Energy          =      -0.2277632993385123 [Eh]
	 Opposite-Spin Energy      =      -0.7160672151847659 [Eh]
	 Correlation Energy        =      -0.9438305145232782 [Eh]
	 Total Energy              =    -231.6971735169981059 [Eh]
	-----------------------------------------------------------
	 ================> DF-SCS-MP2 Energies <================== 
	-----------------------------------------------------------
	 SCS Same-Spin Scale       =       0.3333333333333333 [-]
	 SCS Opposite-Spin Scale   =       1.2000000000000000 [-]
	 SCS Same-Spin Energy      =      -0.0759210997795041 [Eh]
	 SCS Opposite-Spin Energy  =      -0.8592806582217191 [Eh]
	 SCS Correlation Energy    =      -0.9352017580012232 [Eh]
	 SCS Total Energy          =    -231.6885447604760486 [Eh]
	-----------------------------------------------------------


  -Total Gradient:
     Atom            X                  Y                   Z
    ------   -----------------  -----------------  -----------------
       1       -0.000020936372     0.000020333571     0.000000000000
       2       -0.000021178148    -0.000027622747     0.000000000000
       3        0.000007854259    -0.000051177939     0.000000000000
       4       -0.000007854259     0.000051177939     0.000000000000
       5        0.000021178148     0.000027622747     0.000000000000
       6        0.000020936372    -0.000020333571     0.000000000000
       7       -0.004713178499    -0.002675434675     0.000000000000
       8       -0.004673463989     0.002751377335     0.000000000000
       9       -0.000042879187    -0.005411924730     0.000000000000
      10        0.000042879187     0.005411924730     0.000000000000
      11        0.004673463989    -0.002751377335     0.000000000000
      12        0.004713178499     0.002675434675     0.000000000000


*** tstop() called on atlantis at Tue Apr 19 22:20:05 2022
Module time:
	user time   =      17.62 seconds =       0.29 minutes
	system time =       0.64 seconds =       0.01 minutes
	total time  =         18 seconds =       0.30 minutes
Total time:
	user time   =      26.43 seconds =       0.44 minutes
	system time =       0.91 seconds =       0.02 minutes
	total time  =         27 seconds =       0.45 minutes

  Based on options and gradient (rms=2.21E-03), recommend projecting translations and projecting rotations.
hessian() will perform frequency computation by finite difference of analytic gradients.

         ----------------------------------------------------------
                                   FINDIF
                     R. A. King and Jonathon Misiewicz
         ---------------------------------------------------------

  Using finite-differences of gradients to determine vibrational frequencies and 
  normal modes.  Resulting frequencies are only valid at stationary points.
    Generating geometries for use with 3-point formula.
    Displacement size will be 5.00e-03.
    Number of atoms is 12.
    Number of irreps is 4.
    Number of SALCs is 30.
    Translations projected? 1. Rotations projected? 1.
    Index of SALCs per irrep:
     1 :  0  1  2  3  4  5  6  7  8  9  10 
     2 :  11  12  13  14 
     3 :  15  16  17  18  19 
     4 :  20  21  22  23  24  25  26  27  28  29 
    Number of SALCs per irrep:
     Irrep 1: 11
     Irrep 2: 4
     Irrep 3: 5
     Irrep 4: 10
    Number of geometries (including reference) is 42.
    Number of displacements per irrep:
      Irrep 1: 22
      Irrep 2: 4
      Irrep 3: 5
      Irrep 4: 10

  //>>>>>>>>>>>>>>>>>>>>>>>>>>>>>>>>>>>//
  //    Loading displacement 1 of 42   //
  //<<<<<<<<<<<<<<<<<<<<<<<<<<<<<<<<<<<//
gradient() will perform analytic gradient computation.
    SCF Algorithm Type (re)set to DF.

*** tstart() called on atlantis
*** at Tue Apr 19 22:20:06 2022

   => Loading Basis Set <=

    Name: 6-311++G**
    Role: ORBITAL
    Keyword: BASIS
    atoms 1-6  entry C          line   119 file /home/akrom/software/anaconda3/envs/ffpenv/share/psi4/basis/6-311ppgss.gbs 
    atoms 7-12 entry H          line    42 file /home/akrom/software/anaconda3/envs/ffpenv/share/psi4/basis/6-311ppgss.gbs 


         ---------------------------------------------------------
                                   SCF
               by Justin Turney, Rob Parrish, Andy Simmonett
                          and Daniel G. A. Smith
                              RHF Reference
                        1 Threads,    500 MiB Core
         ---------------------------------------------------------

  ==> Geometry <==

    Molecular point group: c2h
    Full point group: C2h

    Geometry (in Angstrom), charge = 0, multiplicity = 1:

       Center              X                  Y                   Z               Mass       
    ------------   -----------------  -----------------  -----------------  -----------------
         C           -1.221510000000    -0.693250000000     0.000000000000    12.000000000000
         C           -1.211140000000     0.711220000000     0.000000000000    12.000000000000
         C           -0.010370000000    -1.404520000000     0.000000000000    12.000000000000
         C            0.010370000000     1.404520000000     0.000000000000    12.000000000000
         C            1.211140000000    -0.711220000000     0.000000000000    12.000000000000
         C            1.221510000000     0.693250000000     0.000000000000    12.000000000000
         H           -2.173110000000    -1.233320000000     0.000000000000     1.007825032230
         H           -2.154640000000     1.265330000000     0.000000000000     1.007825032230
         H           -0.018480000000    -2.498650000000     0.000000000000     1.007825032230
         H            0.018480000000     2.498650000000     0.000000000000     1.007825032230
         H            2.154640000000    -1.265330000000     0.000000000000     1.007825032230
         H            2.173110000000     1.233320000000     0.000000000000     1.007825032230

  Running in c2h symmetry.

  Rotational constants: A =      0.18753  B =      0.18752  C =      0.09376 [cm^-1]
  Rotational constants: A =   5621.92707  B =   5621.82252  C =   2810.93740 [MHz]
  Nuclear repulsion =  202.013308935380167

  Charge       = 0
  Multiplicity = 1
  Electrons    = 42
  Nalpha       = 21
  Nbeta        = 21

  ==> Algorithm <==

  SCF Algorithm Type is DF.
  DIIS enabled.
  MOM disabled.
  Fractional occupation disabled.
  Guess Type is SAD.
  Energy threshold   = 1.00e-10
  Density threshold  = 1.00e-10
  Integral threshold = 0.00e+00

  ==> Primary Basis <==

  Basis Set: 6-311++G**
    Blend: 6-311++G**
    Number of shells: 90
    Number of basis function: 174
    Number of Cartesian functions: 180
    Spherical Harmonics?: true
    Max angular momentum: 2

   => Loading Basis Set <=

    Name: (6-311++G** AUX)
    Role: JKFIT
    Keyword: DF_BASIS_SCF
    atoms 1-6  entry C          line   162 file /home/akrom/software/anaconda3/envs/ffpenv/share/psi4/basis/aug-cc-pvtz-jkfit.gbs 
    atoms 7-12 entry H          line    70 file /home/akrom/software/anaconda3/envs/ffpenv/share/psi4/basis/aug-cc-pvtz-jkfit.gbs 

  ==> Pre-Iterations <==

   -------------------------------------------------------
    Irrep   Nso     Nmo     Nalpha   Nbeta   Ndocc  Nsocc
   -------------------------------------------------------
     Ag        66      66       0       0       0       0
     Bg        21      21       0       0       0       0
     Au        21      21       0       0       0       0
     Bu        66      66       0       0       0       0
   -------------------------------------------------------
    Total     174     174      21      21      21       0
   -------------------------------------------------------

  ==> Integral Setup <==

  DFHelper Memory: AOs need 0.213 GiB; user supplied 0.366 GiB. Using in-core AOs.

  ==> MemDFJK: Density-Fitted J/K Matrices <==

    J tasked:                   Yes
    K tasked:                   Yes
    wK tasked:                   No
    OpenMP threads:               1
    Memory [MiB]:               375
    Algorithm:                 Core
    Schwarz Cutoff:           1E-12
    Mask sparsity (%):       1.2815
    Fitting Condition:        1E-10

   => Auxiliary Basis Set <=

  Basis Set: (6-311++G** AUX)
    Blend: AUG-CC-PVTZ-JKFIT
    Number of shells: 264
    Number of basis function: 900
    Number of Cartesian functions: 1116
    Spherical Harmonics?: true
    Max angular momentum: 4

  Minimum eigenvalue in the overlap matrix is 1.1393482715E-06.
  Using Symmetric Orthogonalization.

  SCF Guess: Superposition of Atomic Densities via on-the-fly atomic UHF.

  ==> Iterations <==

                           Total Energy        Delta E     RMS |[F,P]|

   @DF-RHF iter SAD:  -230.03807935707138   -2.30038e+02   0.00000e+00 
   @DF-RHF iter   1:  -230.58525743258730   -5.47178e-01   5.28184e-03 DIIS
   @DF-RHF iter   2:  -230.72160356172338   -1.36346e-01   2.49528e-03 DIIS
   @DF-RHF iter   3:  -230.75197302740827   -3.03695e-02   4.01374e-04 DIIS
   @DF-RHF iter   4:  -230.75332306951634   -1.35004e-03   4.36233e-05 DIIS
   @DF-RHF iter   5:  -230.75334229085723   -1.92213e-05   8.07365e-06 DIIS
   @DF-RHF iter   6:  -230.75334299821111   -7.07354e-07   9.30971e-07 DIIS
   @DF-RHF iter   7:  -230.75334300820060   -9.98949e-09   9.28007e-08 DIIS
   @DF-RHF iter   8:  -230.75334300829115   -9.05516e-11   1.27982e-08 DIIS
   @DF-RHF iter   9:  -230.75334300829243   -1.27898e-12   5.14595e-09 DIIS
   @DF-RHF iter  10:  -230.75334300829275   -3.12639e-13   7.81880e-10 DIIS
   @DF-RHF iter  11:  -230.75334300829263    1.13687e-13   9.57451e-11 DIIS
  Energy and wave function converged.


  ==> Post-Iterations <==

    Orbital Energies [Eh]
    ---------------------

    Doubly Occupied:                                                      

       1Ag   -11.243802     1Bu   -11.243261     2Bu   -11.243258  
       2Ag   -11.242087     3Ag   -11.242085     3Bu   -11.241511  
       4Ag    -1.146345     4Bu    -1.012732     5Bu    -1.012725  
       5Ag    -0.822361     6Ag    -0.822348     7Ag    -0.705427  
       6Bu    -0.643445     7Bu    -0.617351     8Bu    -0.586823  
       9Bu    -0.586820     1Au    -0.498331     8Ag    -0.495169  
       9Ag    -0.495139     1Bg    -0.335702     2Bg    -0.335691  

    Virtual:                                                              

      10Ag     0.042155    10Bu     0.048935    11Bu     0.048935  
      11Ag     0.066087    12Ag     0.066087    12Bu     0.087804  
       2Au     0.107134     3Au     0.107145     4Au     0.129846  
       3Bg     0.152797     4Bg     0.152797    13Ag     0.157982  
      13Bu     0.162459    14Ag     0.180266    15Ag     0.180267  
      14Bu     0.183481    15Bu     0.183482    16Ag     0.192726  
       5Bg     0.208563    17Ag     0.212040    18Ag     0.212040  
       5Au     0.215338     6Au     0.215344    16Bu     0.216236  
      17Bu     0.228139    18Bu     0.228140    19Bu     0.249612  
      20Bu     0.249613    19Ag     0.289176    20Ag     0.289178  
      21Ag     0.302629    22Ag     0.331128    21Bu     0.333616  
       6Bg     0.363448    22Bu     0.405265    23Bu     0.405273  
      23Ag     0.425457    24Ag     0.425459    24Bu     0.435475  
      25Ag     0.494819    26Ag     0.494831    25Bu     0.504413  
      26Bu     0.504429    27Bu     0.605070    27Ag     0.605322  
       7Au     0.716131    28Bu     0.718109    29Bu     0.721115  
      30Bu     0.721118    28Ag     0.743687    29Ag     0.745459  
      30Ag     0.745471     7Bg     0.759263     8Bg     0.759269  
      31Ag     0.795680     8Au     0.818758     9Au     0.818763  
       9Bg     0.883095    31Bu     0.936546    32Bu     0.936569  
      32Ag     0.943620    33Ag     0.943630    34Ag     0.973909  
      33Bu     1.014543    34Bu     1.014543    35Bu     1.019821  
      35Ag     1.059558    36Ag     1.059561    36Bu     1.088826  
      37Bu     1.115069    38Bu     1.115081    37Ag     1.119630  
      10Au     1.170868    38Ag     1.211926    39Ag     1.211935  
      10Bg     1.245699    11Bg     1.319246    12Bg     1.319255  
      11Au     1.385169    12Au     1.385182    39Bu     1.516010  
      40Ag     1.557361    40Bu     1.707526    41Bu     1.774266  
      42Bu     1.774274    41Ag     1.786890    13Bg     1.817779  
      13Au     1.836017    14Au     1.836024    42Ag     1.897442  
      43Ag     1.897445    43Bu     1.923574    44Bu     1.923583  
      15Au     1.984422    14Bg     2.046521    15Bg     2.046533  
      44Ag     2.092502    45Ag     2.092540    45Bu     2.113661  
      16Bg     2.225417    17Bg     2.225459    46Ag     2.236148  
      46Bu     2.240529    47Bu     2.240537    48Bu     2.283101  
      47Ag     2.333287    48Ag     2.333311    16Au     2.364247  
      17Au     2.364261    18Bg     2.617484    18Au     2.644568  
      49Ag     2.720941    50Ag     2.720962    51Ag     2.727980  
      49Bu     2.797689    50Bu     2.797704    51Bu     2.933296  
      52Bu     2.933330    53Bu     2.977964    52Ag     2.989477  
      54Bu     3.023000    55Bu     3.023004    53Ag     3.048498  
      54Ag     3.048513    19Au     3.052484    56Bu     3.097336  
      19Bg     3.186768    20Bg     3.186774    55Ag     3.229993  
      20Au     3.287948    21Au     3.287949    56Ag     3.293478  
      57Ag     3.293493    21Bg     3.470252    57Bu     3.522440  
      58Ag     3.751137    59Ag     3.751189    58Bu     3.881523  
      59Bu     3.881560    60Ag     3.897133    60Bu     4.020482  
      61Ag     4.387487    62Ag     4.387511    61Bu     4.473338  
      62Bu     4.561722    63Bu     4.561733    63Ag     5.258371  
      64Ag    24.734009    64Bu    25.105328    65Bu    25.105417  
      65Ag    25.216350    66Ag    25.216445    66Bu    25.322299  

    Final Occupation by Irrep:
             Ag    Bg    Au    Bu 
    DOCC [     9,    2,    1,    9 ]

  @DF-RHF Final Energy:  -230.75334300829263

   => Energetics <=

    Nuclear Repulsion Energy =            202.0133089353801665
    One-Electron Energy =                -710.3884798207425320
    Two-Electron Energy =                 277.6218278770697339
    Total Energy =                       -230.7533430082926316

Computation Completed


Properties will be evaluated at   0.000000,   0.000000,   0.000000 [a0]

Properties computed using the SCF density matrix

  Nuclear Dipole Moment: [e a0]
     X:    -0.0000      Y:    -0.0000      Z:     0.0000

  Electronic Dipole Moment: [e a0]
     X:     0.0000      Y:     0.0000      Z:     0.0000

  Dipole Moment: [e a0]
     X:    -0.0000      Y:    -0.0000      Z:     0.0000     Total:     0.0000

  Dipole Moment: [D]
     X:    -0.0000      Y:    -0.0000      Z:     0.0000     Total:     0.0000


*** tstop() called on atlantis at Tue Apr 19 22:20:10 2022
Module time:
	user time   =       3.71 seconds =       0.06 minutes
	system time =       0.07 seconds =       0.00 minutes
	total time  =          4 seconds =       0.07 minutes
Total time:
	user time   =      30.41 seconds =       0.51 minutes
	system time =       1.00 seconds =       0.02 minutes
	total time  =         32 seconds =       0.53 minutes

*** tstart() called on atlantis
*** at Tue Apr 19 22:20:10 2022


  //>>>>>>>>>>>>>>>>>>>>>>>>>>>>>>>>>>>//
  //               DFMP2               //
  //<<<<<<<<<<<<<<<<<<<<<<<<<<<<<<<<<<<//

   => Loading Basis Set <=

    Name: (6-311++G** AUX)
    Role: RIFIT
    Keyword: DF_BASIS_MP2
    atoms 1-6  entry C          line   148 file /home/akrom/software/anaconda3/envs/ffpenv/share/psi4/basis/aug-cc-pvtz-ri.gbs 
    atoms 7-12 entry H          line    30 file /home/akrom/software/anaconda3/envs/ffpenv/share/psi4/basis/aug-cc-pvtz-ri.gbs 

	 --------------------------------------------------------
	                          DF-MP2                         
	      2nd-Order Density-Fitted Moller-Plesset Theory     
	              RMP2 Wavefunction,   1 Threads             
	                                                         
	        Rob Parrish, Justin Turney, Andy Simmonett,      
	           Ed Hohenstein, and C. David Sherrill          
	 --------------------------------------------------------

   => Auxiliary Basis Set <=

  Basis Set: (6-311++G** AUX)
    Blend: AUG-CC-PVTZ-RI
    Number of shells: 252
    Number of basis function: 912
    Number of Cartesian functions: 1146
    Spherical Harmonics?: true
    Max angular momentum: 4

	 --------------------------------------------------------
	                 NBF =   174, NAUX =   912
	 --------------------------------------------------------
	   CLASS    FOCC     OCC    AOCC    AVIR     VIR    FVIR
	   PAIRS       0      21      21     153     153       0
	 --------------------------------------------------------

  DFHelper Memory: AOs need 0.213 GiB; user supplied 0.366 GiB. Using in-core AOs.


         ------------------------------------------------------------
                                     CPHF                           
                                  Rob Parrish                       
         ------------------------------------------------------------

  ==> Geometry <==

    Molecular point group: c2h
    Full point group: C2h

    Geometry (in Angstrom), charge = 0, multiplicity = 1:

       Center              X                  Y                   Z               Mass       
    ------------   -----------------  -----------------  -----------------  -----------------
         C           -1.221510000000    -0.693250000000     0.000000000000    12.000000000000
         C           -1.211140000000     0.711220000000     0.000000000000    12.000000000000
         C           -0.010370000000    -1.404520000000     0.000000000000    12.000000000000
         C            0.010370000000     1.404520000000     0.000000000000    12.000000000000
         C            1.211140000000    -0.711220000000     0.000000000000    12.000000000000
         C            1.221510000000     0.693250000000     0.000000000000    12.000000000000
         H           -2.173110000000    -1.233320000000     0.000000000000     1.007825032230
         H           -2.154640000000     1.265330000000     0.000000000000     1.007825032230
         H           -0.018480000000    -2.498650000000     0.000000000000     1.007825032230
         H            0.018480000000     2.498650000000     0.000000000000     1.007825032230
         H            2.154640000000    -1.265330000000     0.000000000000     1.007825032230
         H            2.173110000000     1.233320000000     0.000000000000     1.007825032230

  Nuclear repulsion =  202.013308935380167
  Reference energy  = -230.753343008292632

  ==> Basis Set <==

  Basis Set: 6-311++G**
    Blend: 6-311++G**
    Number of shells: 90
    Number of basis function: 174
    Number of Cartesian functions: 180
    Spherical Harmonics?: true
    Max angular momentum: 2

  ==> CGRSolver (by Rob Parrish) <==

   Number of roots    =         1
   Preconditioning    =    JACOBI
   Convergence cutoff =     1E-06
   Maximum iterations =       100

  ==> CPHFRHamiltonian (by Rob Parrish) <== 

  ==> MemDFJK: Density-Fitted J/K Matrices <==

    J tasked:                   Yes
    K tasked:                   Yes
    wK tasked:                   No
    OpenMP threads:               1
    Memory [MiB]:               375
    Algorithm:                 Core
    Schwarz Cutoff:           1E-12
    Mask sparsity (%):       1.2815
    Fitting Condition:        1E-10

   => Auxiliary Basis Set <=

  Basis Set: (6-311++G** AUX)
    Blend: AUG-CC-PVTZ-JKFIT
    Number of shells: 264
    Number of basis function: 900
    Number of Cartesian functions: 1116
    Spherical Harmonics?: true
    Max angular momentum: 4

  ==> CPHF Iterations <==

  => Iterations <=

             Iter  Converged  Remaining    Residual
  CGR           1          0          1   7.162E-02
  CGR           2          0          1   1.213E-02
  CGR           3          0          1   2.782E-03
  CGR           4          0          1   4.893E-04
  CGR           5          0          1   6.095E-05
  CGR           6          0          1   5.684E-06
  CGR           7          1          0   6.180E-07

    CGRSolver converged.

  ==> DFCorrGrad: Density-Fitted Correlated Gradients <==

    OpenMP threads:              1
    Integrals threads:           1
    Memory [GiB]:            0.366
    Schwarz Cutoff:          0E+00
    Fitting Condition:       1E-10

   => Auxiliary Basis Set <=

  Basis Set: (6-311++G** AUX)
    Blend: AUG-CC-PVTZ-JKFIT
    Number of shells: 264
    Number of basis function: 900
    Number of Cartesian functions: 1116
    Spherical Harmonics?: true
    Max angular momentum: 4

	-----------------------------------------------------------
	 ==================> DF-MP2 Energies <==================== 
	-----------------------------------------------------------
	 Reference Energy          =    -230.7533430082926316 [Eh]
	 Singles Energy            =      -0.0000000000000000 [Eh]
	 Same-Spin Energy          =      -0.2277632993346801 [Eh]
	 Opposite-Spin Energy      =      -0.7160672152999749 [Eh]
	 Correlation Energy        =      -0.9438305146346549 [Eh]
	 Total Energy              =    -231.6971735229272724 [Eh]
	-----------------------------------------------------------
	 ================> DF-SCS-MP2 Energies <================== 
	-----------------------------------------------------------
	 SCS Same-Spin Scale       =       0.3333333333333333 [-]
	 SCS Opposite-Spin Scale   =       1.2000000000000000 [-]
	 SCS Same-Spin Energy      =      -0.0759210997782267 [Eh]
	 SCS Opposite-Spin Energy  =      -0.8592806583599698 [Eh]
	 SCS Correlation Energy    =      -0.9352017581381965 [Eh]
	 SCS Total Energy          =    -231.6885447664308231 [Eh]
	-----------------------------------------------------------


  -Total Gradient:
     Atom            X                  Y                   Z
    ------   -----------------  -----------------  -----------------
       1       -0.000020911099     0.000020205616     0.000000000000
       2       -0.000021175971    -0.000027480340     0.000000000000
       3        0.000007851745    -0.000051197471     0.000000000000
       4       -0.000007851745     0.000051197471     0.000000000000
       5        0.000021175971     0.000027480340     0.000000000000
       6        0.000020911099    -0.000020205616     0.000000000000
       7       -0.004713545245    -0.002675658053     0.000000000000
       8       -0.004673808258     0.002751593846     0.000000000000
       9       -0.000042883594    -0.005412283183     0.000000000000
      10        0.000042883594     0.005412283183     0.000000000000
      11        0.004673808258    -0.002751593846     0.000000000000
      12        0.004713545245     0.002675658053     0.000000000000


*** tstop() called on atlantis at Tue Apr 19 22:20:28 2022
Module time:
	user time   =      17.63 seconds =       0.29 minutes
	system time =       0.67 seconds =       0.01 minutes
	total time  =         18 seconds =       0.30 minutes
Total time:
	user time   =      48.04 seconds =       0.80 minutes
	system time =       1.67 seconds =       0.03 minutes
	total time  =         50 seconds =       0.83 minutes

  //>>>>>>>>>>>>>>>>>>>>>>>>>>>>>>>>>>>//
  //    Loading displacement 2 of 42   //
  //<<<<<<<<<<<<<<<<<<<<<<<<<<<<<<<<<<<//
gradient() will perform analytic gradient computation.
    SCF Algorithm Type (re)set to DF.

*** tstart() called on atlantis
*** at Tue Apr 19 22:20:28 2022

   => Loading Basis Set <=

    Name: 6-311++G**
    Role: ORBITAL
    Keyword: BASIS
    atoms 1-6  entry C          line   119 file /home/akrom/software/anaconda3/envs/ffpenv/share/psi4/basis/6-311ppgss.gbs 
    atoms 7-12 entry H          line    42 file /home/akrom/software/anaconda3/envs/ffpenv/share/psi4/basis/6-311ppgss.gbs 


         ---------------------------------------------------------
                                   SCF
               by Justin Turney, Rob Parrish, Andy Simmonett
                          and Daniel G. A. Smith
                              RHF Reference
                        1 Threads,    500 MiB Core
         ---------------------------------------------------------

  ==> Geometry <==

    Molecular point group: c2h
    Full point group: C2h

    Geometry (in Angstrom), charge = 0, multiplicity = 1:

       Center              X                  Y                   Z               Mass       
    ------------   -----------------  -----------------  -----------------  -----------------
         C           -1.222032477591    -0.693313109608     0.000000000000    12.000000000000
         C           -1.211176745353     0.711157426160     0.000000000000    12.000000000000
         C           -0.010297435136    -1.404520535769     0.000000000000    12.000000000000
         C            0.010297435136     1.404520535769     0.000000000000    12.000000000000
         C            1.211176745353    -0.711157426160     0.000000000000    12.000000000000
         C            1.222032477591     0.693313109608     0.000000000000    12.000000000000
         H           -2.173046280225    -1.233432274252     0.000000000000     1.007825032230
         H           -2.154705373579     1.265218680005     0.000000000000     1.007825032230
         H           -0.018350906646    -2.498650954774     0.000000000000     1.007825032230
         H            0.018350906646     2.498650954774     0.000000000000     1.007825032230
         H            2.154705373579    -1.265218680005     0.000000000000     1.007825032230
         H            2.173046280225     1.233432274252     0.000000000000     1.007825032230

  Running in c2h symmetry.

  Rotational constants: A =      0.18753  B =      0.18745  C =      0.09375 [cm^-1]
  Rotational constants: A =   5621.97670  B =   5619.72613  C =   2810.42560 [MHz]
  Nuclear repulsion =  201.998047561272216

  Charge       = 0
  Multiplicity = 1
  Electrons    = 42
  Nalpha       = 21
  Nbeta        = 21

  ==> Algorithm <==

  SCF Algorithm Type is DF.
  DIIS enabled.
  MOM disabled.
  Fractional occupation disabled.
  Guess Type is SAD.
  Energy threshold   = 1.00e-10
  Density threshold  = 1.00e-10
  Integral threshold = 0.00e+00

  ==> Primary Basis <==

  Basis Set: 6-311++G**
    Blend: 6-311++G**
    Number of shells: 90
    Number of basis function: 174
    Number of Cartesian functions: 180
    Spherical Harmonics?: true
    Max angular momentum: 2

   => Loading Basis Set <=

    Name: (6-311++G** AUX)
    Role: JKFIT
    Keyword: DF_BASIS_SCF
    atoms 1-6  entry C          line   162 file /home/akrom/software/anaconda3/envs/ffpenv/share/psi4/basis/aug-cc-pvtz-jkfit.gbs 
    atoms 7-12 entry H          line    70 file /home/akrom/software/anaconda3/envs/ffpenv/share/psi4/basis/aug-cc-pvtz-jkfit.gbs 

  ==> Pre-Iterations <==

   -------------------------------------------------------
    Irrep   Nso     Nmo     Nalpha   Nbeta   Ndocc  Nsocc
   -------------------------------------------------------
     Ag        66      66       0       0       0       0
     Bg        21      21       0       0       0       0
     Au        21      21       0       0       0       0
     Bu        66      66       0       0       0       0
   -------------------------------------------------------
    Total     174     174      21      21      21       0
   -------------------------------------------------------

  ==> Integral Setup <==

  DFHelper Memory: AOs need 0.213 GiB; user supplied 0.366 GiB. Using in-core AOs.

  ==> MemDFJK: Density-Fitted J/K Matrices <==

    J tasked:                   Yes
    K tasked:                   Yes
    wK tasked:                   No
    OpenMP threads:               1
    Memory [MiB]:               375
    Algorithm:                 Core
    Schwarz Cutoff:           1E-12
    Mask sparsity (%):       1.2815
    Fitting Condition:        1E-10

   => Auxiliary Basis Set <=

  Basis Set: (6-311++G** AUX)
    Blend: AUG-CC-PVTZ-JKFIT
    Number of shells: 264
    Number of basis function: 900
    Number of Cartesian functions: 1116
    Spherical Harmonics?: true
    Max angular momentum: 4

  Minimum eigenvalue in the overlap matrix is 1.1407641742E-06.
  Using Symmetric Orthogonalization.

  SCF Guess: Superposition of Atomic Densities via on-the-fly atomic UHF.

  ==> Iterations <==

                           Total Energy        Delta E     RMS |[F,P]|

   @DF-RHF iter SAD:  -230.03686851402028   -2.30037e+02   0.00000e+00 
   @DF-RHF iter   1:  -230.58535978989624   -5.48491e-01   5.27965e-03 DIIS
   @DF-RHF iter   2:  -230.72163794589773   -1.36278e-01   2.49336e-03 DIIS
   @DF-RHF iter   3:  -230.75196225128073   -3.03243e-02   4.01302e-04 DIIS
   @DF-RHF iter   4:  -230.75331190548820   -1.34965e-03   4.36158e-05 DIIS
   @DF-RHF iter   5:  -230.75333112299728   -1.92175e-05   8.07332e-06 DIIS
   @DF-RHF iter   6:  -230.75333183015857   -7.07161e-07   9.39989e-07 DIIS
   @DF-RHF iter   7:  -230.75333184017205   -1.00135e-08   1.44286e-07 DIIS
   @DF-RHF iter   8:  -230.75333184030282   -1.30768e-10   5.75181e-08 DIIS
   @DF-RHF iter   9:  -230.75333184032024   -1.74225e-11   4.94515e-09 DIIS
   @DF-RHF iter  10:  -230.75333184032087   -6.25278e-13   6.76866e-10 DIIS
   @DF-RHF iter  11:  -230.75333184032050    3.69482e-13   9.85341e-11 DIIS
  Energy and wave function converged.


  ==> Post-Iterations <==

    Orbital Energies [Eh]
    ---------------------

    Doubly Occupied:                                                      

       1Ag   -11.243829     1Bu   -11.243302     2Bu   -11.243272  
       2Ag   -11.242130     3Ag   -11.242098     3Bu   -11.241539  
       4Ag    -1.146249     4Bu    -1.012763     5Bu    -1.012619  
       5Ag    -0.822453     6Ag    -0.822271     7Ag    -0.705429  
       6Bu    -0.643558     7Bu    -0.617281     8Bu    -0.586930  
       9Bu    -0.586754     1Au    -0.498257     8Ag    -0.495353  
       9Ag    -0.495014     1Bg    -0.335736     2Bg    -0.335589  

    Virtual:                                                              

      10Ag     0.042156    10Bu     0.048931    11Bu     0.048938  
      11Ag     0.066083    12Ag     0.066086    12Bu     0.087803  
       2Au     0.107050     3Au     0.107170     4Au     0.129856  
       3Bg     0.152797     4Bg     0.152806    13Ag     0.157991  
      13Bu     0.162458    14Ag     0.180255    15Ag     0.180268  
      14Bu     0.183480    15Bu     0.183485    16Ag     0.192746  
       5Bg     0.208555    17Ag     0.212030    18Ag     0.212041  
       5Au     0.215294     6Au     0.215364    16Bu     0.216233  
      17Bu     0.228135    18Bu     0.228148    19Bu     0.249603  
      20Bu     0.249612    19Ag     0.289165    20Ag     0.289183  
      21Ag     0.302624    22Ag     0.331157    21Bu     0.333607  
       6Bg     0.363366    22Bu     0.405245    23Bu     0.405360  
      23Ag     0.425401    24Ag     0.425468    24Bu     0.435484  
      25Ag     0.494727    26Ag     0.494856    25Bu     0.504254  
      26Bu     0.504426    27Bu     0.605096    27Ag     0.605311  
       7Au     0.716152    28Bu     0.718005    29Bu     0.721116  
      30Bu     0.721191    28Ag     0.743571    29Ag     0.745389  
      30Ag     0.745527     7Bg     0.759266     8Bg     0.759339  
      31Ag     0.795682     8Au     0.818728     9Au     0.818791  
       9Bg     0.883066    31Bu     0.936410    32Bu     0.936673  
      32Ag     0.943475    33Ag     0.943683    34Ag     0.973972  
      33Bu     1.014539    34Bu     1.014554    35Bu     1.019816  
      35Ag     1.059541    36Ag     1.059567    36Bu     1.088678  
      37Bu     1.114973    38Bu     1.115140    37Ag     1.119469  
      10Au     1.170918    38Ag     1.211943    39Ag     1.211987  
      10Bg     1.245656    11Bg     1.319145    12Bg     1.319274  
      11Au     1.385033    12Au     1.385165    39Bu     1.516004  
      40Ag     1.557536    40Bu     1.707438    41Bu     1.774119  
      42Bu     1.774253    41Ag     1.786772    13Bg     1.817737  
      13Au     1.835899    14Au     1.836045    42Ag     1.897305  
      43Ag     1.897391    43Bu     1.923448    44Bu     1.923556  
      15Au     1.984557    14Bg     2.046531    15Bg     2.046743  
      44Ag     2.092251    45Ag     2.092641    45Bu     2.113715  
      16Bg     2.225035    17Bg     2.225522    46Ag     2.236091  
      46Bu     2.240360    47Bu     2.240528    48Bu     2.283124  
      47Ag     2.333081    48Ag     2.333367    16Au     2.364136  
      17Au     2.364436    18Bg     2.617467    18Au     2.644289  
      49Ag     2.720780    50Ag     2.720922    51Ag     2.728254  
      49Bu     2.797690    50Bu     2.798010    51Bu     2.933085  
      52Bu     2.933395    53Bu     2.977812    52Ag     2.989416  
      54Bu     3.022833    55Bu     3.023006    53Ag     3.048283  
      54Ag     3.048508    19Au     3.052432    56Bu     3.097229  
      19Bg     3.186695    20Bg     3.186799    55Ag     3.229948  
      20Au     3.287865    21Au     3.287939    56Ag     3.293257  
      57Ag     3.293625    21Bg     3.470098    57Bu     3.522069  
      58Ag     3.750554    59Ag     3.751176    58Bu     3.881204  
      59Bu     3.881649    60Ag     3.897026    60Bu     4.020238  
      61Ag     4.387441    62Ag     4.388046    61Bu     4.473430  
      62Bu     4.561656    63Bu     4.562080    63Ag     5.258074  
      64Ag    24.734391    64Bu    25.104660    65Bu    25.105786  
      65Ag    25.215399    66Ag    25.216548    66Bu    25.321814  

    Final Occupation by Irrep:
             Ag    Bg    Au    Bu 
    DOCC [     9,    2,    1,    9 ]

  @DF-RHF Final Energy:  -230.75333184032050

   => Energetics <=

    Nuclear Repulsion Energy =            201.9980475612722159
    One-Electron Energy =                -710.3579052180666622
    Two-Electron Energy =                 277.6065258164739475
    Total Energy =                       -230.7533318403205271

Computation Completed


Properties will be evaluated at   0.000000,   0.000000,   0.000000 [a0]

Properties computed using the SCF density matrix

  Nuclear Dipole Moment: [e a0]
     X:     0.0000      Y:     0.0000      Z:     0.0000

  Electronic Dipole Moment: [e a0]
     X:     0.0000      Y:     0.0000      Z:     0.0000

  Dipole Moment: [e a0]
     X:     0.0000      Y:     0.0000      Z:     0.0000     Total:     0.0000

  Dipole Moment: [D]
     X:     0.0000      Y:     0.0000      Z:     0.0000     Total:     0.0000


*** tstop() called on atlantis at Tue Apr 19 22:20:32 2022
Module time:
	user time   =       3.72 seconds =       0.06 minutes
	system time =       0.09 seconds =       0.00 minutes
	total time  =          4 seconds =       0.07 minutes
Total time:
	user time   =      51.76 seconds =       0.86 minutes
	system time =       1.76 seconds =       0.03 minutes
	total time  =         54 seconds =       0.90 minutes

*** tstart() called on atlantis
*** at Tue Apr 19 22:20:32 2022


  //>>>>>>>>>>>>>>>>>>>>>>>>>>>>>>>>>>>//
  //               DFMP2               //
  //<<<<<<<<<<<<<<<<<<<<<<<<<<<<<<<<<<<//

   => Loading Basis Set <=

    Name: (6-311++G** AUX)
    Role: RIFIT
    Keyword: DF_BASIS_MP2
    atoms 1-6  entry C          line   148 file /home/akrom/software/anaconda3/envs/ffpenv/share/psi4/basis/aug-cc-pvtz-ri.gbs 
    atoms 7-12 entry H          line    30 file /home/akrom/software/anaconda3/envs/ffpenv/share/psi4/basis/aug-cc-pvtz-ri.gbs 

	 --------------------------------------------------------
	                          DF-MP2                         
	      2nd-Order Density-Fitted Moller-Plesset Theory     
	              RMP2 Wavefunction,   1 Threads             
	                                                         
	        Rob Parrish, Justin Turney, Andy Simmonett,      
	           Ed Hohenstein, and C. David Sherrill          
	 --------------------------------------------------------

   => Auxiliary Basis Set <=

  Basis Set: (6-311++G** AUX)
    Blend: AUG-CC-PVTZ-RI
    Number of shells: 252
    Number of basis function: 912
    Number of Cartesian functions: 1146
    Spherical Harmonics?: true
    Max angular momentum: 4

	 --------------------------------------------------------
	                 NBF =   174, NAUX =   912
	 --------------------------------------------------------
	   CLASS    FOCC     OCC    AOCC    AVIR     VIR    FVIR
	   PAIRS       0      21      21     153     153       0
	 --------------------------------------------------------

  DFHelper Memory: AOs need 0.213 GiB; user supplied 0.366 GiB. Using in-core AOs.


         ------------------------------------------------------------
                                     CPHF                           
                                  Rob Parrish                       
         ------------------------------------------------------------

  ==> Geometry <==

    Molecular point group: c2h
    Full point group: C2h

    Geometry (in Angstrom), charge = 0, multiplicity = 1:

       Center              X                  Y                   Z               Mass       
    ------------   -----------------  -----------------  -----------------  -----------------
         C           -1.222032477591    -0.693313109608     0.000000000000    12.000000000000
         C           -1.211176745353     0.711157426160     0.000000000000    12.000000000000
         C           -0.010297435136    -1.404520535769     0.000000000000    12.000000000000
         C            0.010297435136     1.404520535769     0.000000000000    12.000000000000
         C            1.211176745353    -0.711157426160     0.000000000000    12.000000000000
         C            1.222032477591     0.693313109608     0.000000000000    12.000000000000
         H           -2.173046280225    -1.233432274252     0.000000000000     1.007825032230
         H           -2.154705373579     1.265218680005     0.000000000000     1.007825032230
         H           -0.018350906646    -2.498650954774     0.000000000000     1.007825032230
         H            0.018350906646     2.498650954774     0.000000000000     1.007825032230
         H            2.154705373579    -1.265218680005     0.000000000000     1.007825032230
         H            2.173046280225     1.233432274252     0.000000000000     1.007825032230

  Nuclear repulsion =  201.998047561272216
  Reference energy  = -230.753331840320499

  ==> Basis Set <==

  Basis Set: 6-311++G**
    Blend: 6-311++G**
    Number of shells: 90
    Number of basis function: 174
    Number of Cartesian functions: 180
    Spherical Harmonics?: true
    Max angular momentum: 2

  ==> CGRSolver (by Rob Parrish) <==

   Number of roots    =         1
   Preconditioning    =    JACOBI
   Convergence cutoff =     1E-06
   Maximum iterations =       100

  ==> CPHFRHamiltonian (by Rob Parrish) <== 

  ==> MemDFJK: Density-Fitted J/K Matrices <==

    J tasked:                   Yes
    K tasked:                   Yes
    wK tasked:                   No
    OpenMP threads:               1
    Memory [MiB]:               375
    Algorithm:                 Core
    Schwarz Cutoff:           1E-12
    Mask sparsity (%):       1.2815
    Fitting Condition:        1E-10

   => Auxiliary Basis Set <=

  Basis Set: (6-311++G** AUX)
    Blend: AUG-CC-PVTZ-JKFIT
    Number of shells: 264
    Number of basis function: 900
    Number of Cartesian functions: 1116
    Spherical Harmonics?: true
    Max angular momentum: 4

  ==> CPHF Iterations <==

  => Iterations <=

             Iter  Converged  Remaining    Residual
  CGR           1          0          1   7.162E-02
  CGR           2          0          1   1.213E-02
  CGR           3          0          1   2.783E-03
  CGR           4          0          1   4.894E-04
  CGR           5          0          1   6.123E-05
  CGR           6          0          1   8.277E-06
  CGR           7          0          1   2.599E-06
  CGR           8          1          0   2.168E-07

    CGRSolver converged.

  ==> DFCorrGrad: Density-Fitted Correlated Gradients <==

    OpenMP threads:              1
    Integrals threads:           1
    Memory [GiB]:            0.366
    Schwarz Cutoff:          0E+00
    Fitting Condition:       1E-10

   => Auxiliary Basis Set <=

  Basis Set: (6-311++G** AUX)
    Blend: AUG-CC-PVTZ-JKFIT
    Number of shells: 264
    Number of basis function: 900
    Number of Cartesian functions: 1116
    Spherical Harmonics?: true
    Max angular momentum: 4

	-----------------------------------------------------------
	 ==================> DF-MP2 Energies <==================== 
	-----------------------------------------------------------
	 Reference Energy          =    -230.7533318403204987 [Eh]
	 Singles Energy            =      -0.0000000000000000 [Eh]
	 Same-Spin Energy          =      -0.2277635844683755 [Eh]
	 Opposite-Spin Energy      =      -0.7160772561399817 [Eh]
	 Correlation Energy        =      -0.9438408406083573 [Eh]
	 Total Energy              =    -231.6971726809288441 [Eh]
	-----------------------------------------------------------
	 ================> DF-SCS-MP2 Energies <================== 
	-----------------------------------------------------------
	 SCS Same-Spin Scale       =       0.3333333333333333 [-]
	 SCS Opposite-Spin Scale   =       1.2000000000000000 [-]
	 SCS Same-Spin Energy      =      -0.0759211948227918 [Eh]
	 SCS Opposite-Spin Energy  =      -0.8592927073679780 [Eh]
	 SCS Correlation Energy    =      -0.9352139021907698 [Eh]
	 SCS Total Energy          =    -231.6885457425112804 [Eh]
	-----------------------------------------------------------


  -Total Gradient:
     Atom            X                  Y                   Z
    ------   -----------------  -----------------  -----------------
       1       -0.000782222247     0.000015030735     0.000000000000
       2        0.000053642716    -0.000014205221     0.000000000000
       3        0.000334239265    -0.000209488554     0.000000000000
       4       -0.000334239265     0.000209488554     0.000000000000
       5       -0.000053642716     0.000014205221     0.000000000000
       6        0.000782222247    -0.000015030735     0.000000000000
       7       -0.004434222659    -0.002551632000     0.000000000000
       8       -0.004681392931     0.002718229066     0.000000000000
       9       -0.000052339589    -0.005410839451     0.000000000000
      10        0.000052339589     0.005410839451     0.000000000000
      11        0.004681392931    -0.002718229066     0.000000000000
      12        0.004434222659     0.002551632000     0.000000000000


*** tstop() called on atlantis at Tue Apr 19 22:20:50 2022
Module time:
	user time   =      17.77 seconds =       0.30 minutes
	system time =       0.68 seconds =       0.01 minutes
	total time  =         18 seconds =       0.30 minutes
Total time:
	user time   =      69.53 seconds =       1.16 minutes
	system time =       2.44 seconds =       0.04 minutes
	total time  =         72 seconds =       1.20 minutes

  //>>>>>>>>>>>>>>>>>>>>>>>>>>>>>>>>>>>//
  //    Loading displacement 3 of 42   //
  //<<<<<<<<<<<<<<<<<<<<<<<<<<<<<<<<<<<//
gradient() will perform analytic gradient computation.
    SCF Algorithm Type (re)set to DF.

*** tstart() called on atlantis
*** at Tue Apr 19 22:20:50 2022

   => Loading Basis Set <=

    Name: 6-311++G**
    Role: ORBITAL
    Keyword: BASIS
    atoms 1-6  entry C          line   119 file /home/akrom/software/anaconda3/envs/ffpenv/share/psi4/basis/6-311ppgss.gbs 
    atoms 7-12 entry H          line    42 file /home/akrom/software/anaconda3/envs/ffpenv/share/psi4/basis/6-311ppgss.gbs 


         ---------------------------------------------------------
                                   SCF
               by Justin Turney, Rob Parrish, Andy Simmonett
                          and Daniel G. A. Smith
                              RHF Reference
                        1 Threads,    500 MiB Core
         ---------------------------------------------------------

  ==> Geometry <==

    Molecular point group: c2h
    Full point group: C2h

    Geometry (in Angstrom), charge = 0, multiplicity = 1:

       Center              X                  Y                   Z               Mass       
    ------------   -----------------  -----------------  -----------------  -----------------
         C           -1.220987522409    -0.693186890392     0.000000000000    12.000000000000
         C           -1.211103254647     0.711282573840     0.000000000000    12.000000000000
         C           -0.010442564864    -1.404519464231     0.000000000000    12.000000000000
         C            0.010442564864     1.404519464231     0.000000000000    12.000000000000
         C            1.211103254647    -0.711282573840     0.000000000000    12.000000000000
         C            1.220987522409     0.693186890392     0.000000000000    12.000000000000
         H           -2.173173719775    -1.233207725748     0.000000000000     1.007825032230
         H           -2.154574626421     1.265441319995     0.000000000000     1.007825032230
         H           -0.018609093354    -2.498649045226     0.000000000000     1.007825032230
         H            0.018609093354     2.498649045226     0.000000000000     1.007825032230
         H            2.154574626421    -1.265441319995     0.000000000000     1.007825032230
         H            2.173173719775     1.233207725748     0.000000000000     1.007825032230

  Running in c2h symmetry.

  Rotational constants: A =      0.18760  B =      0.18752  C =      0.09378 [cm^-1]
  Rotational constants: A =   5624.12726  B =   5621.66993  C =   2811.44916 [MHz]
[...]
      5   C                0.22 -0.23  0.00    0.23  0.02  0.00   -0.00  0.00 -0.03   
      6   C               -0.24 -0.22 -0.00    0.21 -0.04  0.00   -0.00  0.00 -0.03   
      7   H                0.33  0.07 -0.00   -0.05 -0.25  0.00    0.00  0.00  0.41   
      8   H               -0.32  0.06  0.00   -0.07  0.25  0.00    0.00  0.00  0.41   
      9   H               -0.22 -0.01 -0.00   -0.01  0.36 -0.00    0.00 -0.00  0.41   
     10   H                0.22  0.01  0.00    0.01 -0.36  0.00    0.00  0.00  0.41   
     11   H                0.32 -0.06  0.00    0.07 -0.25  0.00   -0.00  0.00  0.41   
     12   H               -0.33 -0.07 -0.00    0.05  0.25 -0.00    0.00 -0.00  0.41   

  Vibration                       13                  14                  15          
  Freq [cm^-1]                 839.8931            839.9417            841.3858       
  Irrep                           Bg                  Bg                  Au          
  Reduced mass [u]              1.2479              1.2479              1.1625        
  Force const [mDyne/A]         0.5186              0.5187              0.4849        
  Turning point v=0 [a0]        0.3389              0.3389              0.3508        
  RMS dev v=0 [a0 u^1/2]        0.2677              0.2677              0.2675        
  Char temp [K]               1208.4191           1208.4891           1210.5668       
  ----------------------------------------------------------------------------------
      1   C                0.00  0.00 -0.04    0.00  0.00 -0.07   -0.00 -0.00  0.04   
      2   C               -0.00  0.00  0.04    0.00 -0.00 -0.07    0.00 -0.00  0.03   
      3   C               -0.00  0.00 -0.09    0.00  0.00 -0.00   -0.00  0.00 -0.07   
      4   C               -0.00 -0.00  0.09   -0.00 -0.00  0.00   -0.00 -0.00 -0.07   
      5   C                0.00 -0.00 -0.04   -0.00  0.00  0.07    0.00 -0.00  0.03   
      6   C               -0.00 -0.00  0.04   -0.00  0.00  0.07   -0.00 -0.00  0.04   
      7   H                0.00  0.00  0.28   -0.00  0.00  0.49    0.00 -0.00 -0.34   
      8   H               -0.00 -0.00 -0.28    0.00  0.00  0.49    0.00 -0.00 -0.23   
      9   H               -0.00  0.00  0.57    0.00  0.00  0.00   -0.00  0.00  0.57   
     10   H                0.00 -0.00 -0.57   -0.00 -0.00 -0.00    0.00 -0.00  0.57   
     11   H                0.00 -0.00  0.28   -0.00 -0.00 -0.49    0.00  0.00 -0.23   
     12   H               -0.00 -0.00 -0.28   -0.00 -0.00 -0.49   -0.00  0.00 -0.34   

  Vibration                       16                  17                  18          
  Freq [cm^-1]                 841.4526            860.6011            996.5144       
  Irrep                           Au                  Bg                  Ag          
  Reduced mass [u]              1.1625              1.0657              5.9695        
  Force const [mDyne/A]         0.4849              0.4650              3.4927        
  Turning point v=0 [a0]        0.3508              0.3623              0.1423        
  RMS dev v=0 [a0 u^1/2]        0.2675              0.2645              0.2458        
  Char temp [K]               1210.6630           1238.2133           1433.7623       
  ----------------------------------------------------------------------------------
      1   C               -0.00 -0.00  0.06   -0.00 -0.00  0.03    0.24  0.13  0.00   
      2   C                0.00 -0.00 -0.06    0.00 -0.00 -0.03    0.24 -0.14  0.00   
      3   C               -0.00 -0.00  0.01   -0.00  0.00 -0.03    0.00  0.27  0.00   
      4   C                0.00  0.00  0.01   -0.00 -0.00  0.03   -0.00 -0.27  0.00   
      5   C               -0.00  0.00 -0.06   -0.00  0.00  0.03   -0.24  0.14 -0.00   
      6   C                0.00  0.00  0.06   -0.00 -0.00 -0.03   -0.24 -0.13 -0.00   
      7   H               -0.00 -0.00 -0.46   -0.00 -0.00  0.41    0.27  0.15 -0.00   
      8   H                0.00  0.00  0.52    0.00 -0.00 -0.41    0.26 -0.15  0.00   
      9   H                0.00 -0.00 -0.06    0.00  0.00 -0.41   -0.00  0.30 -0.00   
     10   H               -0.00  0.00 -0.06   -0.00 -0.00  0.41    0.00 -0.30 -0.00   
     11   H               -0.00  0.00  0.52    0.00  0.00  0.41   -0.26  0.15  0.00   
     12   H                0.00 -0.00 -0.46   -0.00 -0.00 -0.41   -0.27 -0.15  0.00   

  Vibration                       19                  20                  21          
  Freq [cm^-1]                1004.0006           1059.0861           1060.4026       
  Irrep                           Bu                  Bu                  Bu          
  Reduced mass [u]              6.5595              1.7734              1.7705        
  Force const [mDyne/A]         3.8957              1.1720              1.1730        
  Turning point v=0 [a0]        0.1352              0.2532              0.2532        
  RMS dev v=0 [a0 u^1/2]        0.2449              0.2384              0.2383        
  Char temp [K]               1444.5334           1523.7891           1525.6832       
  ----------------------------------------------------------------------------------
      1   C               -0.25 -0.14 -0.00   -0.03  0.08  0.00   -0.11 -0.05 -0.00   
      2   C                0.25 -0.15 -0.00    0.12 -0.03  0.00   -0.00  0.10  0.00   
      3   C                0.00  0.29  0.00   -0.05 -0.10  0.00    0.07 -0.07  0.00   
      4   C                0.00  0.29  0.00   -0.05 -0.10  0.00    0.07 -0.07  0.00   
      5   C                0.25 -0.15 -0.00    0.12 -0.03 -0.00   -0.00  0.10  0.00   
      6   C               -0.25 -0.14 -0.00   -0.03  0.08 -0.00   -0.11 -0.05  0.00   
      7   H               -0.25 -0.14  0.00   -0.25  0.47 -0.00   -0.14 -0.02  0.00   
      8   H                0.25 -0.14  0.00    0.22  0.13 -0.00    0.20  0.46 -0.00   
      9   H                0.01  0.29 -0.00   -0.32 -0.11 -0.00    0.43 -0.08  0.00   
     10   H                0.01  0.29 -0.00   -0.32 -0.11 -0.00    0.43 -0.08 -0.00   
     11   H                0.25 -0.14  0.00    0.22  0.13  0.00    0.20  0.46 -0.00   
     12   H               -0.25 -0.14  0.00   -0.25  0.47  0.00   -0.14 -0.02  0.00   

  Vibration                       22                  23                  24          
  Freq [cm^-1]                1185.2489           1204.7258           1204.8386       
  Irrep                           Bu                  Ag                  Ag          
  Reduced mass [u]              1.0505              1.1435              1.1434        
  Force const [mDyne/A]         0.8695              0.9778              0.9780        
  Turning point v=0 [a0]        0.3110              0.2956              0.2956        
  RMS dev v=0 [a0 u^1/2]        0.2254              0.2235              0.2235        
  Char temp [K]               1705.3093           1733.3322           1733.4944       
  ----------------------------------------------------------------------------------
      1   C               -0.01  0.02  0.00    0.00 -0.00  0.00   -0.03  0.06  0.00   
      2   C               -0.01 -0.02 -0.00    0.03  0.05  0.00   -0.01 -0.03  0.00   
      3   C                0.03 -0.00  0.00    0.05 -0.00 -0.00    0.03  0.00  0.00   
      4   C                0.03 -0.00 -0.00   -0.05  0.00  0.00   -0.03 -0.00 -0.00   
      5   C               -0.01 -0.02 -0.00   -0.03 -0.05  0.00    0.01  0.03  0.00   
      6   C               -0.01  0.02 -0.00   -0.00  0.00 -0.00    0.03 -0.06 -0.00   
      7   H               -0.20  0.35 -0.00    0.01 -0.02  0.00   -0.28  0.50 -0.00   
      8   H               -0.21 -0.35  0.00    0.26  0.44 -0.00   -0.13 -0.23  0.00   
      9   H                0.41 -0.00 -0.00    0.48 -0.00 -0.00    0.31 -0.00  0.00   
     10   H                0.41 -0.00  0.00   -0.48  0.00  0.00   -0.31  0.00  0.00   
     11   H               -0.21 -0.35  0.00   -0.26 -0.44  0.00    0.13  0.23 -0.00   
     12   H               -0.20  0.35 -0.00   -0.01  0.02  0.00    0.28 -0.50 -0.00   

  Vibration                       25                  26                  27          
  Freq [cm^-1]                1378.4922           1429.5473           1505.3339       
  Irrep                           Ag                  Bu                  Bu          
  Reduced mass [u]              1.2479              8.0884              1.9170        
  Force const [mDyne/A]         1.3971              9.7389              2.5595        
  Turning point v=0 [a0]        0.2646              0.1020              0.2043        
  RMS dev v=0 [a0 u^1/2]        0.2090              0.2052              0.2000        
  Char temp [K]               1983.3433           2056.8003           2165.8403       
  ----------------------------------------------------------------------------------
      1   C               -0.03  0.05 -0.00   -0.16  0.28 -0.00   -0.05  0.13  0.00   
      2   C                0.03  0.05  0.00   -0.17 -0.28  0.00    0.09 -0.01  0.00   
      3   C               -0.06  0.00  0.00    0.33 -0.00  0.00   -0.10 -0.06 -0.00   
      4   C                0.06 -0.00 -0.00    0.33 -0.00  0.00   -0.10 -0.06 -0.00   
      5   C               -0.03 -0.05  0.00   -0.17 -0.28  0.00    0.09 -0.01 -0.00   
      6   C                0.03 -0.05 -0.00   -0.16  0.28 -0.00   -0.05  0.13  0.00   
      7   H                0.20 -0.35 -0.00    0.12 -0.21  0.00    0.28 -0.44 -0.00   
      8   H               -0.20 -0.35  0.00    0.12  0.21  0.00    0.03 -0.16 -0.00   
      9   H                0.40 -0.00  0.00   -0.24  0.00  0.00    0.39 -0.08 -0.00   
     10   H               -0.40  0.00 -0.00   -0.24  0.00 -0.00    0.39 -0.08 -0.00   
     11   H                0.20  0.35 -0.00    0.12  0.21 -0.00    0.03 -0.16 -0.00   
     12   H               -0.20  0.35  0.00    0.12 -0.21 -0.00    0.28 -0.44  0.00   

  Vibration                       28                  29                  30          
  Freq [cm^-1]                1505.5839           1624.1794           1624.3348       
  Irrep                           Bu                  Ag                  Ag          
  Reduced mass [u]              1.9208              5.1165              5.1174        
  Force const [mDyne/A]         2.5654              7.9523              7.9552        
  Turning point v=0 [a0]        0.2040              0.1204              0.1204        
  RMS dev v=0 [a0 u^1/2]        0.2000              0.1925              0.1925        
  Char temp [K]               2166.2000           2336.8326           2337.0561       
  ----------------------------------------------------------------------------------
      1   C               -0.09 -0.01 -0.00   -0.20  0.12  0.00    0.05 -0.26  0.00   
      2   C                0.05  0.13  0.00    0.18  0.04 -0.00    0.10  0.28  0.00   
      3   C                0.10 -0.06 -0.00    0.32 -0.02  0.00    0.05  0.14  0.00   
      4   C                0.10 -0.06 -0.00   -0.32  0.02 -0.00   -0.05 -0.14 -0.00   
      5   C                0.05  0.13  0.00   -0.18 -0.04 -0.00   -0.10 -0.28 -0.00   
      6   C               -0.09 -0.01 -0.00    0.20 -0.12 -0.00   -0.05  0.26 -0.00   
      7   H               -0.02 -0.18  0.00    0.01 -0.29 -0.00   -0.25  0.24 -0.00   
      8   H               -0.29 -0.44  0.00    0.05 -0.22  0.00   -0.25 -0.31  0.00   
      9   H               -0.38 -0.08  0.00   -0.42 -0.02 -0.00   -0.06  0.17 -0.00   
     10   H               -0.38 -0.08  0.00    0.42  0.02 -0.00    0.06 -0.17 -0.00   
     11   H               -0.29 -0.44  0.00   -0.05  0.22  0.00    0.25  0.31  0.00   
     12   H               -0.02 -0.18 -0.00   -0.01  0.29  0.00    0.25 -0.24  0.00   

  Vibration                       31                  32                  33          
  Freq [cm^-1]                3125.6129           3139.5607           3139.7272       
  Irrep                           Bu                  Ag                  Ag          
  Reduced mass [u]              1.0833              1.0883              1.0883        
  Force const [mDyne/A]         6.2353              6.3205              6.3211        
  Turning point v=0 [a0]        0.1886              0.1877              0.1877        
  RMS dev v=0 [a0 u^1/2]        0.1388              0.1385              0.1385        
  Char temp [K]               4497.0611           4517.1288           4517.3685       
  ----------------------------------------------------------------------------------
      1   C                0.03  0.02 -0.00    0.03  0.01 -0.00    0.03  0.02  0.00   
      2   C               -0.03  0.02  0.00   -0.04  0.02 -0.00    0.01 -0.01 -0.00   
      3   C               -0.00 -0.03 -0.00   -0.00  0.01  0.00   -0.00 -0.05  0.00   
      4   C               -0.00 -0.03  0.00    0.00 -0.01  0.00    0.00  0.05 -0.00   
      5   C               -0.03  0.02  0.00    0.04 -0.02  0.00   -0.01  0.01 -0.00   
      6   C                0.03  0.02 -0.00   -0.03 -0.01 -0.00   -0.03 -0.02  0.00   
      7   H               -0.35 -0.20  0.00   -0.33 -0.19  0.00   -0.38 -0.22  0.00   
      8   H                0.35 -0.21  0.00    0.49 -0.29 -0.00   -0.12  0.07  0.00   
      9   H                0.00  0.41  0.00    0.00 -0.16 -0.00    0.00  0.54  0.00   
     10   H                0.00  0.41  0.00   -0.00  0.16 -0.00   -0.00 -0.54  0.00   
     11   H                0.35 -0.21 -0.00   -0.49  0.29 -0.00    0.12 -0.07 -0.00   
     12   H               -0.35 -0.20  0.00    0.33  0.19  0.00    0.38  0.22 -0.00   

  Vibration                       34                  35                  36          
  Freq [cm^-1]                3156.7864           3156.9518           3168.8077       
  Irrep                           Bu                  Bu                  Ag          
  Reduced mass [u]              1.0967              1.0965              1.1012        
  Force const [mDyne/A]         6.4390              6.4387              6.5150        
  Turning point v=0 [a0]        0.1865              0.1865              0.1857        
  RMS dev v=0 [a0 u^1/2]        0.1381              0.1381              0.1378        
  Char temp [K]               4541.9128           4542.1508           4559.2088       
  ----------------------------------------------------------------------------------
      1   C               -0.00 -0.01 -0.00   -0.04 -0.02 -0.00   -0.03 -0.02 -0.00   
      2   C               -0.04  0.02 -0.00   -0.01  0.01 -0.00   -0.03  0.02  0.00   
      3   C                0.00  0.04 -0.00    0.00 -0.03  0.00   -0.00 -0.04 -0.00   
      4   C                0.00  0.04 -0.00    0.00 -0.03 -0.00    0.00  0.04  0.00   
      5   C               -0.04  0.02 -0.00   -0.01  0.01  0.00    0.03 -0.02 -0.00   
      6   C               -0.00 -0.01  0.00   -0.04 -0.02  0.00    0.03  0.02 -0.00   
      7   H                0.07  0.04  0.00    0.49  0.28 -0.00    0.35  0.20  0.00   
      8   H                0.46 -0.27  0.00    0.18 -0.11  0.00    0.33 -0.20 -0.00   
      9   H               -0.01 -0.45 -0.00   -0.00  0.36  0.00    0.00  0.43 -0.00   
     10   H               -0.01 -0.45  0.00   -0.00  0.36  0.00   -0.00 -0.43 -0.00   
     11   H                0.46 -0.27 -0.00    0.18 -0.11  0.00   -0.33  0.20 -0.00   
     12   H                0.07  0.04  0.00    0.49  0.28  0.00   -0.35 -0.20 -0.00   

  ==> Thermochemistry Components <==

  Entropy, S
    Electronic S            0.000 [cal/(mol K)]        0.000 [J/(mol K)]       0.00000000 [mEh/K] (multiplicity = 1)
    Translational S        38.979 [cal/(mol K)]      163.089 [J/(mol K)]       0.06211726 [mEh/K] (mol. weight = 78.0470 [u], P = 101325.00 [Pa])
    Rotational S           24.318 [cal/(mol K)]      101.746 [J/(mol K)]       0.03875307 [mEh/K] (symmetry no. = 2)
    Vibrational S           4.925 [cal/(mol K)]       20.606 [J/(mol K)]       0.00784840 [mEh/K]
  Total S                  68.222 [cal/(mol K)]      285.441 [J/(mol K)]       0.10871873 [mEh/K]
  Correction S              0.000 [cal/(mol K)]        0.000 [J/(mol K)]       0.00000000 [mEh/K]

  Constant volume heat capacity, Cv
    Electronic Cv           0.000 [cal/(mol K)]        0.000 [J/(mol K)]       0.00000000 [mEh/K]
    Translational Cv        2.981 [cal/(mol K)]       12.472 [J/(mol K)]       0.00475022 [mEh/K]
    Rotational Cv           2.981 [cal/(mol K)]       12.472 [J/(mol K)]       0.00475022 [mEh/K]
    Vibrational Cv         11.349 [cal/(mol K)]       47.486 [J/(mol K)]       0.01808640 [mEh/K]
  Total Cv                 17.311 [cal/(mol K)]       72.429 [J/(mol K)]       0.02758683 [mEh/K]
  Correction Cv             0.000 [cal/(mol K)]        0.000 [J/(mol K)]       0.00000000 [mEh/K]

  Constant pressure heat capacity, Cp
    Electronic Cp           0.000 [cal/(mol K)]        0.000 [J/(mol K)]       0.00000000 [mEh/K]
    Translational Cp        4.968 [cal/(mol K)]       20.786 [J/(mol K)]       0.00791703 [mEh/K]
    Rotational Cp           2.981 [cal/(mol K)]       12.472 [J/(mol K)]       0.00475022 [mEh/K]
    Vibrational Cp         11.349 [cal/(mol K)]       47.486 [J/(mol K)]       0.01808640 [mEh/K]
  Total Cp                 19.298 [cal/(mol K)]       80.744 [J/(mol K)]       0.03075364 [mEh/K]
  Correction Cp             0.000 [cal/(mol K)]        0.000 [J/(mol K)]       0.00000000 [mEh/K]

  ==> Thermochemistry Energy Analysis <==

  Raw electronic energy, E0
  Total E0, Electronic energy at well bottom at 0 [K]                 -231.69717352 [Eh]

  Zero-point energy, ZPE_vib = Sum_i nu_i / 2
    Electronic ZPE          0.000 [kcal/mol]        0.000 [kJ/mol]       0.00000000 [Eh]
    Translational ZPE       0.000 [kcal/mol]        0.000 [kJ/mol]       0.00000000 [Eh]
    Rotational ZPE          0.000 [kcal/mol]        0.000 [kJ/mol]       0.00000000 [Eh]
    Vibrational ZPE        60.783 [kcal/mol]      254.316 [kJ/mol]       0.09686397 [Eh]       21259.184 [cm^-1]
  Correction ZPE           60.783 [kcal/mol]      254.316 [kJ/mol]       0.09686397 [Eh]       21259.184 [cm^-1]
  Total ZPE, Electronic energy at 0 [K]                               -231.60030955 [Eh]

  Thermal Energy, E (includes ZPE)
    Electronic E            0.000 [kcal/mol]        0.000 [kJ/mol]       0.00000000 [Eh]
    Translational E         0.889 [kcal/mol]        3.718 [kJ/mol]       0.00141628 [Eh]
    Rotational E            0.889 [kcal/mol]        3.718 [kJ/mol]       0.00141628 [Eh]
    Vibrational E          61.845 [kcal/mol]      258.761 [kJ/mol]       0.09855679 [Eh]
  Correction E             63.623 [kcal/mol]      266.198 [kJ/mol]       0.10138934 [Eh]
  Total E, Electronic energy at  298.15 [K]                           -231.59578418 [Eh]

  Enthalpy, H_trans = E_trans + k_B * T
    Electronic H            0.000 [kcal/mol]        0.000 [kJ/mol]       0.00000000 [Eh]
    Translational H         1.481 [kcal/mol]        6.197 [kJ/mol]       0.00236046 [Eh]
    Rotational H            0.889 [kcal/mol]        3.718 [kJ/mol]       0.00141628 [Eh]
    Vibrational H          61.845 [kcal/mol]      258.761 [kJ/mol]       0.09855679 [Eh]
  Correction H             64.215 [kcal/mol]      268.677 [kJ/mol]       0.10233353 [Eh]
  Total H, Enthalpy at  298.15 [K]                                    -231.59484000 [Eh]

  Gibbs free energy, G = H - T * S
    Electronic G            0.000 [kcal/mol]        0.000 [kJ/mol]       0.00000000 [Eh]
    Translational G       -10.140 [kcal/mol]      -42.428 [kJ/mol]      -0.01615980 [Eh]
    Rotational G           -6.362 [kcal/mol]      -26.617 [kJ/mol]      -0.01013795 [Eh]
    Vibrational G          60.377 [kcal/mol]      252.617 [kJ/mol]       0.09621679 [Eh]
  Correction G             43.875 [kcal/mol]      183.572 [kJ/mol]       0.06991904 [Eh]
  Total G, Free enthalpy at  298.15 [K]                               -231.62725448 [Eh]

    Psi4 stopped on: Tuesday, 19 April 2022 10:35PM
    Psi4 wall time for execution: 0:16:11.33

*** Psi4 exiting successfully. Buy a developer a beer!
