
    -----------------------------------------------------------------------
          Psi4: An Open-Source Ab Initio Electronic Structure Package
                               Psi4 1.3.2 release

                         Git: Rev {HEAD} ecbda83 


    R. M. Parrish, L. A. Burns, D. G. A. Smith, A. C. Simmonett,
    A. E. DePrince III, E. G. Hohenstein, U. Bozkaya, A. Yu. Sokolov,
    R. Di Remigio, R. M. Richard, J. F. Gonthier, A. M. James,
    H. R. McAlexander, A. Kumar, M. Saitow, X. Wang, B. P. Pritchard,
    P. Verma, H. F. Schaefer III, K. Patkowski, R. A. King, E. F. Valeev,
    F. A. Evangelista, J. M. Turney, T. D. Crawford, and C. D. Sherrill,
    J. Chem. Theory Comput. 13(7) pp 3185--3197 (2017).
    (doi: 10.1021/acs.jctc.7b00174)


                         Additional Contributions by
    P. Kraus, H. Kruse, M. H. Lechner, M. C. Schieber, R. A. Shaw,
    A. Alenaizan, R. Galvelis, Z. L. Glick, S. Lehtola, and J. P. Misiewicz

    -----------------------------------------------------------------------


    Psi4 started on: Tuesday, 19 April 2022 10:26AM

    Process ID: 28544
    Host:       atlantis
    PSIDATADIR: /home/akrom/software/anaconda3/envs/ffpenv/share/psi4
    Memory:     500.0 MiB
    Threads:    1
    
  ==> Input File <==

--------------------------------------------------------------------------
set basis  aug-cc-pVDZ
molecule {
0 1
   C        0.32153        0.81326        0.00000
   C       -0.86505       -0.12817        0.00000
   C        0.54353       -0.68508        0.00000
   H        0.53795        1.36069       -0.92039
   H        0.53795        1.36069        0.92039
   H       -1.44742       -0.21449        0.92034
   H       -1.44742       -0.21449       -0.92034
   H        0.90937       -1.14629       -0.92037
   H        0.90937       -1.14629        0.92037
}
energy('m06-2x')
frequencies('m06-2x')
--------------------------------------------------------------------------

*** tstart() called on atlantis
*** at Tue Apr 19 10:26:22 2022

   => Loading Basis Set <=

    Name: AUG-CC-PVDZ
    Role: ORBITAL
    Keyword: BASIS
    atoms 1-3 entry C          line   178 file /home/akrom/software/anaconda3/envs/ffpenv/share/psi4/basis/aug-cc-pvdz.gbs 
    atoms 4-9 entry H          line    36 file /home/akrom/software/anaconda3/envs/ffpenv/share/psi4/basis/aug-cc-pvdz.gbs 


         ---------------------------------------------------------
                                   SCF
               by Justin Turney, Rob Parrish, Andy Simmonett
                          and Daniel G. A. Smith
                              RKS Reference
                        1 Threads,    500 MiB Core
         ---------------------------------------------------------

  ==> Geometry <==

    Molecular point group: cs
    Full point group: Cs

    Geometry (in Angstrom), charge = 0, multiplicity = 1:

       Center              X                  Y                   Z               Mass       
    ------------   -----------------  -----------------  -----------------  -----------------
         C            0.321531939855     0.813261460475     0.000000000000    12.000000000000
         C           -0.865048060145    -0.128168539525     0.000000000000    12.000000000000
         C            0.543531939855    -0.685078539525     0.000000000000    12.000000000000
         H            0.537951939855     1.360691460475    -0.920390000000     1.007825032230
         H            0.537951939855     1.360691460475     0.920390000000     1.007825032230
         H           -1.447418060145    -0.214488539525     0.920340000000     1.007825032230
         H           -1.447418060145    -0.214488539525    -0.920340000000     1.007825032230
         H            0.909371939855    -1.146288539525    -0.920370000000     1.007825032230
         H            0.909371939855    -1.146288539525     0.920370000000     1.007825032230

  Running in cs symmetry.

  Rotational constants: A =      0.66472  B =      0.66470  C =      0.41647 [cm^-1]
  Rotational constants: A =  19927.70596  B =  19927.20236  C =  12485.44714 [MHz]
  Nuclear repulsion =   75.281464809014025

  Charge       = 0
  Multiplicity = 1
  Electrons    = 24
  Nalpha       = 12
  Nbeta        = 12

  ==> Algorithm <==

  SCF Algorithm Type is DF.
  DIIS enabled.
  MOM disabled.
  Fractional occupation disabled.
  Guess Type is SAD.
  Energy threshold   = 1.00e-06
  Density threshold  = 1.00e-06
  Integral threshold = 0.00e+00

  ==> Primary Basis <==

  Basis Set: AUG-CC-PVDZ
    Blend: AUG-CC-PVDZ
    Number of shells: 57
    Number of basis function: 123
    Number of Cartesian functions: 129
    Spherical Harmonics?: true
    Max angular momentum: 2

  ==> DFT Potential <==

   => Composite Functional: M06-2X <= 

    Hybrid M06-2X Meta-GGA XC Functional

    Y. Zhao and D. G. Truhlar,  Theor. Chem. Acc., 120, 215, 2008


    Deriv               =              1
    GGA                 =           TRUE
    Meta                =           TRUE

    Exchange Hybrid     =           TRUE
    MP2 Hybrid          =          FALSE

   => Exchange Functionals <=

    1.0000   XC_HYB_MGGA_X_M06_2X

   => Exact (HF) Exchange <=

    0.5400               HF 

   => Correlation Functionals <=

    1.0000   XC_MGGA_C_M06_2X

   => Molecular Quadrature <=

    Radial Scheme          =       TREUTLER
    Pruning Scheme         =           FLAT
    Nuclear Scheme         =       TREUTLER

    BS radius alpha        =              1
    Pruning alpha          =              1
    Radial Points          =             75
    Spherical Points       =            302
    Total Points           =         203850
    Total Blocks           =           1576
    Max Points             =            256
    Max Functions          =            123

   => Loading Basis Set <=

    Name: (AUG-CC-PVDZ AUX)
    Role: JKFIT
    Keyword: DF_BASIS_SCF
    atoms 1-3 entry C          line   154 file /home/akrom/software/anaconda3/envs/ffpenv/share/psi4/basis/aug-cc-pvdz-jkfit.gbs 
    atoms 4-9 entry H          line    70 file /home/akrom/software/anaconda3/envs/ffpenv/share/psi4/basis/aug-cc-pvdz-jkfit.gbs 

  ==> Pre-Iterations <==

   -------------------------------------------------------
    Irrep   Nso     Nmo     Nalpha   Nbeta   Ndocc  Nsocc
   -------------------------------------------------------
     A'        75      75       0       0       0       0
     A"        48      48       0       0       0       0
   -------------------------------------------------------
    Total     123     123      12      12      12       0
   -------------------------------------------------------

  ==> Integral Setup <==

  DFHelper Memory: AOs need 0.055 GiB; user supplied 0.055 GiB. Using in-core AOs.

  ==> MemDFJK: Density-Fitted J/K Matrices <==

    J tasked:                   Yes
    K tasked:                   Yes
    wK tasked:                   No
    OpenMP threads:               1
    Memory [MiB]:                56
    Algorithm:                 Core
    Schwarz Cutoff:           1E-12
    Mask sparsity (%):       0.0000
    Fitting Condition:        1E-10

   => Auxiliary Basis Set <=

  Basis Set: (AUG-CC-PVDZ AUX)
    Blend: AUG-CC-PVDZ-JKFIT
    Number of shells: 156
    Number of basis function: 450
    Number of Cartesian functions: 513
    Spherical Harmonics?: true
    Max angular momentum: 3

  Cached 20.1% of DFT collocation blocks in 0.338 [GiB].

  Minimum eigenvalue in the overlap matrix is 1.0790838778E-04.
  Using Symmetric Orthogonalization.

  SCF Guess: Superposition of Atomic Densities via on-the-fly atomic UHF.

  ==> Iterations <==

                           Total Energy        Delta E     RMS |[F,P]|

   @DF-RKS iter SAD:  -117.42326238360357   -1.17423e+02   0.00000e+00 
   @DF-RKS iter   1:  -117.55696624991938   -1.33704e-01   8.19883e-03 DIIS
   @DF-RKS iter   2:  -117.55170760792656    5.25864e-03   8.25311e-03 DIIS
   @DF-RKS iter   3:  -117.84530856440902   -2.93601e-01   3.65487e-04 DIIS
   @DF-RKS iter   4:  -117.84588064772957   -5.72083e-04   5.54225e-05 DIIS
   @DF-RKS iter   5:  -117.84589749673448   -1.68490e-05   6.93416e-06 DIIS
   @DF-RKS iter   6:  -117.84589794035985   -4.43625e-07   8.74460e-07 DIIS
  Energy and wave function converged.


  ==> Post-Iterations <==

    Orbital Energies [Eh]
    ---------------------

    Doubly Occupied:                                                      

       1Ap   -10.547899     2Ap   -10.547325     3Ap   -10.547321  
       4Ap    -0.943774     5Ap    -0.677376     6Ap    -0.677364  
       1App   -0.563694     7Ap    -0.526824     2App   -0.422299  
       3App   -0.422275     8Ap    -0.348916     9Ap    -0.348877  

    Virtual:                                                              

      10Ap     0.002727     4App    0.015106    11Ap     0.017726  
      12Ap     0.017728     5App    0.048385     6App    0.048387  
      13Ap     0.066681    14Ap     0.074641    15Ap     0.074643  
      16Ap     0.109130    17Ap     0.111628    18Ap     0.111632  
       7App    0.118548    19Ap     0.134665     8App    0.149822  
       9App    0.149827    20Ap     0.164471    21Ap     0.164477  
      22Ap     0.200967    10App    0.204414    23Ap     0.215726  
      11App    0.259469    12App    0.259474    24Ap     0.279178  
      25Ap     0.279193    26Ap     0.293532    27Ap     0.344520  
      28Ap     0.344531    29Ap     0.370273    30Ap     0.370285  
      13App    0.376073    14App    0.389072    15App    0.389080  
      16App    0.399573    31Ap     0.446874    17App    0.464209  
      18App    0.464226    19App    0.477631    32Ap     0.499730  
      33Ap     0.504997    34Ap     0.505006    35Ap     0.512465  
      20App    0.521952    36Ap     0.542586    37Ap     0.542592  
      21App    0.570207    22App    0.570226    38Ap     0.574870  
      39Ap     0.574891    40Ap     0.623625    23App    0.639488  
      24App    0.639494    41Ap     0.652162    42Ap     0.652190  
      43Ap     0.690316    44Ap     0.715651    45Ap     0.715657  
      25App    0.777562    26App    0.777586    46Ap     0.798988  
      27App    0.840885    47Ap     0.982882    48Ap     0.982895  
      28App    1.015838    49Ap     1.038897    50Ap     1.038934  
      29App    1.053952    30App    1.053976    31App    1.126481  
      51Ap     1.194728    52Ap     1.336023    32App    1.423039  
      33App    1.423114    53Ap     1.433055    54Ap     1.469869  
      55Ap     1.469966    34App    1.583756    35App    1.583860  
      56Ap     1.640646    57Ap     1.640706    58Ap     1.687908  
      36App    1.728601    59Ap     1.764248    60Ap     1.764324  
      37App    1.768549    38App    1.831886    39App    1.849193  
      40App    1.849254    61Ap     1.942921    62Ap     1.942956  
      63Ap     1.996402    64Ap     2.051590    65Ap     2.051615  
      41App    2.062194    42App    2.062332    66Ap     2.080738  
      67Ap     2.268526    68Ap     2.316055    43App    2.323187  
      44App    2.323238    69Ap     2.379079    70Ap     2.379180  
      45App    2.493358    71Ap     2.534214    72Ap     2.534345  
      46App    2.605282    73Ap     2.732723    74Ap     2.838568  
      75Ap     2.838595    47App    2.909440    48App    2.909763  

    Final Occupation by Irrep:
             Ap   App 
    DOCC [     9,    3 ]

  @DF-RKS Final Energy:  -117.84589794035985

   => Energetics <=

    Nuclear Repulsion Energy =             75.2814648090140253
    One-Electron Energy =                -305.7871305467128309
    Two-Electron Energy =                 121.5639226514959006
    DFT Exchange-Correlation Energy =      -8.9041548541569586
    Empirical Dispersion Energy =           0.0000000000000000
    VV10 Nonlocal Energy =                  0.0000000000000000
    Total Energy =                       -117.8458979403598477

Computation Completed


Properties will be evaluated at   0.000000,   0.000000,   0.000000 [a0]

Properties computed using the SCF density matrix

  Nuclear Dipole Moment: [e a0]
     X:    -0.0002      Y:    -0.0002      Z:     0.0000

  Electronic Dipole Moment: [e a0]
     X:     0.0003      Y:     0.0000      Z:     0.0000

  Dipole Moment: [e a0]
     X:     0.0001      Y:    -0.0001      Z:     0.0000     Total:     0.0002

  Dipole Moment: [D]
     X:     0.0004      Y:    -0.0004      Z:     0.0000     Total:     0.0005


*** tstop() called on atlantis at Tue Apr 19 10:26:36 2022
Module time:
	user time   =      14.12 seconds =       0.24 minutes
	system time =       0.13 seconds =       0.00 minutes
	total time  =         14 seconds =       0.23 minutes
Total time:
	user time   =      14.12 seconds =       0.24 minutes
	system time =       0.13 seconds =       0.00 minutes
	total time  =         14 seconds =       0.23 minutes
gradient() will perform analytic gradient computation.

*** tstart() called on atlantis
*** at Tue Apr 19 10:26:36 2022

   => Loading Basis Set <=

    Name: AUG-CC-PVDZ
    Role: ORBITAL
    Keyword: BASIS
    atoms 1-3 entry C          line   178 file /home/akrom/software/anaconda3/envs/ffpenv/share/psi4/basis/aug-cc-pvdz.gbs 
    atoms 4-9 entry H          line    36 file /home/akrom/software/anaconda3/envs/ffpenv/share/psi4/basis/aug-cc-pvdz.gbs 


         ---------------------------------------------------------
                                   SCF
               by Justin Turney, Rob Parrish, Andy Simmonett
                          and Daniel G. A. Smith
                              RKS Reference
                        1 Threads,    500 MiB Core
         ---------------------------------------------------------

  ==> Geometry <==

    Molecular point group: cs
    Full point group: Cs

    Geometry (in Angstrom), charge = 0, multiplicity = 1:

       Center              X                  Y                   Z               Mass       
    ------------   -----------------  -----------------  -----------------  -----------------
         C            0.321531939855     0.813261460475     0.000000000000    12.000000000000
         C           -0.865048060145    -0.128168539525     0.000000000000    12.000000000000
         C            0.543531939855    -0.685078539525     0.000000000000    12.000000000000
         H            0.537951939855     1.360691460475    -0.920390000000     1.007825032230
         H            0.537951939855     1.360691460475     0.920390000000     1.007825032230
         H           -1.447418060145    -0.214488539525     0.920340000000     1.007825032230
         H           -1.447418060145    -0.214488539525    -0.920340000000     1.007825032230
         H            0.909371939855    -1.146288539525    -0.920370000000     1.007825032230
         H            0.909371939855    -1.146288539525     0.920370000000     1.007825032230

  Running in cs symmetry.

  Rotational constants: A =      0.66472  B =      0.66470  C =      0.41647 [cm^-1]
  Rotational constants: A =  19927.70596  B =  19927.20236  C =  12485.44714 [MHz]
  Nuclear repulsion =   75.281464809014025

  Charge       = 0
  Multiplicity = 1
  Electrons    = 24
  Nalpha       = 12
  Nbeta        = 12

  ==> Algorithm <==

  SCF Algorithm Type is DF.
  DIIS enabled.
  MOM disabled.
  Fractional occupation disabled.
  Guess Type is SAD.
  Energy threshold   = 1.00e-08
  Density threshold  = 1.00e-08
  Integral threshold = 0.00e+00

  ==> Primary Basis <==

  Basis Set: AUG-CC-PVDZ
    Blend: AUG-CC-PVDZ
    Number of shells: 57
    Number of basis function: 123
    Number of Cartesian functions: 129
    Spherical Harmonics?: true
    Max angular momentum: 2

  ==> DFT Potential <==

   => Composite Functional: M06-2X <= 

    Hybrid M06-2X Meta-GGA XC Functional

    Y. Zhao and D. G. Truhlar,  Theor. Chem. Acc., 120, 215, 2008


    Deriv               =              1
    GGA                 =           TRUE
    Meta                =           TRUE

    Exchange Hybrid     =           TRUE
    MP2 Hybrid          =          FALSE

   => Exchange Functionals <=

    1.0000   XC_HYB_MGGA_X_M06_2X

   => Exact (HF) Exchange <=

    0.5400               HF 

   => Correlation Functionals <=

    1.0000   XC_MGGA_C_M06_2X

   => Molecular Quadrature <=

    Radial Scheme          =       TREUTLER
    Pruning Scheme         =           FLAT
    Nuclear Scheme         =       TREUTLER

    BS radius alpha        =              1
    Pruning alpha          =              1
    Radial Points          =             75
    Spherical Points       =            302
    Total Points           =         203850
    Total Blocks           =           1576
    Max Points             =            256
    Max Functions          =            123

   => Loading Basis Set <=

    Name: (AUG-CC-PVDZ AUX)
    Role: JKFIT
    Keyword: DF_BASIS_SCF
    atoms 1-3 entry C          line   154 file /home/akrom/software/anaconda3/envs/ffpenv/share/psi4/basis/aug-cc-pvdz-jkfit.gbs 
    atoms 4-9 entry H          line    70 file /home/akrom/software/anaconda3/envs/ffpenv/share/psi4/basis/aug-cc-pvdz-jkfit.gbs 

  ==> Pre-Iterations <==

   -------------------------------------------------------
    Irrep   Nso     Nmo     Nalpha   Nbeta   Ndocc  Nsocc
   -------------------------------------------------------
     A'        75      75       0       0       0       0
     A"        48      48       0       0       0       0
   -------------------------------------------------------
    Total     123     123      12      12      12       0
   -------------------------------------------------------

  ==> Integral Setup <==

  DFHelper Memory: AOs need 0.055 GiB; user supplied 0.055 GiB. Using in-core AOs.

  ==> MemDFJK: Density-Fitted J/K Matrices <==

    J tasked:                   Yes
    K tasked:                   Yes
    wK tasked:                   No
    OpenMP threads:               1
    Memory [MiB]:                56
    Algorithm:                 Core
    Schwarz Cutoff:           1E-12
    Mask sparsity (%):       0.0000
    Fitting Condition:        1E-10

   => Auxiliary Basis Set <=

  Basis Set: (AUG-CC-PVDZ AUX)
    Blend: AUG-CC-PVDZ-JKFIT
    Number of shells: 156
    Number of basis function: 450
    Number of Cartesian functions: 513
    Spherical Harmonics?: true
    Max angular momentum: 3

  Cached 20.1% of DFT collocation blocks in 0.338 [GiB].

  Minimum eigenvalue in the overlap matrix is 1.0790838778E-04.
  Using Symmetric Orthogonalization.

  SCF Guess: Superposition of Atomic Densities via on-the-fly atomic UHF.

  ==> Iterations <==

                           Total Energy        Delta E     RMS |[F,P]|

   @DF-RKS iter SAD:  -117.42326238333028   -1.17423e+02   0.00000e+00 
   @DF-RKS iter   1:  -117.55696624963443   -1.33704e-01   8.19883e-03 DIIS
   @DF-RKS iter   2:  -117.55170760763623    5.25864e-03   8.25311e-03 DIIS
   @DF-RKS iter   3:  -117.84530856412454   -2.93601e-01   3.65487e-04 DIIS
   @DF-RKS iter   4:  -117.84588064744500   -5.72083e-04   5.54225e-05 DIIS
   @DF-RKS iter   5:  -117.84589749644975   -1.68490e-05   6.93416e-06 DIIS
   @DF-RKS iter   6:  -117.84589794007528   -4.43626e-07   8.74460e-07 DIIS
   @DF-RKS iter   7:  -117.84589795102157   -1.09463e-08   1.10631e-07 DIIS
   @DF-RKS iter   8:  -117.84589795112304   -1.01466e-10   8.06308e-08 DIIS
   @DF-RKS iter   9:  -117.84589795114977   -2.67306e-11   9.21859e-09 DIIS
  Energy and wave function converged.


  ==> Post-Iterations <==

    Orbital Energies [Eh]
    ---------------------

    Doubly Occupied:                                                      

       1Ap   -10.547898     2Ap   -10.547326     3Ap   -10.547318  
       4Ap    -0.943773     5Ap    -0.677377     6Ap    -0.677364  
       1App   -0.563694     7Ap    -0.526823     2App   -0.422299  
       3App   -0.422274     8Ap    -0.348918     9Ap    -0.348878  

    Virtual:                                                              

      10Ap     0.002727     4App    0.015106    11Ap     0.017726  
      12Ap     0.017727     5App    0.048384     6App    0.048386  
      13Ap     0.066680    14Ap     0.074640    15Ap     0.074642  
      16Ap     0.109130    17Ap     0.111627    18Ap     0.111632  
       7App    0.118548    19Ap     0.134664     8App    0.149822  
       9App    0.149827    20Ap     0.164471    21Ap     0.164477  
      22Ap     0.200967    10App    0.204414    23Ap     0.215725  
      11App    0.259470    12App    0.259475    24Ap     0.279178  
      25Ap     0.279193    26Ap     0.293532    27Ap     0.344519  
      28Ap     0.344530    29Ap     0.370273    30Ap     0.370284  
      13App    0.376072    14App    0.389071    15App    0.389079  
      16App    0.399575    31Ap     0.446873    17App    0.464211  
      18App    0.464228    19App    0.477633    32Ap     0.499731  
      33Ap     0.504998    34Ap     0.505007    35Ap     0.512466  
      20App    0.521954    36Ap     0.542587    37Ap     0.542594  
      21App    0.570208    22App    0.570227    38Ap     0.574871  
      39Ap     0.574892    40Ap     0.623625    23App    0.639489  
      24App    0.639496    41Ap     0.652162    42Ap     0.652191  
      43Ap     0.690317    44Ap     0.715651    45Ap     0.715658  
      25App    0.777562    26App    0.777586    46Ap     0.798989  
      27App    0.840886    47Ap     0.982883    48Ap     0.982896  
      28App    1.015838    49Ap     1.038898    50Ap     1.038934  
      29App    1.053952    30App    1.053976    31App    1.126481  
      51Ap     1.194728    52Ap     1.336025    32App    1.423040  
      33App    1.423114    53Ap     1.433056    54Ap     1.469870  
      55Ap     1.469967    34App    1.583755    35App    1.583860  
      56Ap     1.640647    57Ap     1.640707    58Ap     1.687909  
      36App    1.728602    59Ap     1.764249    60Ap     1.764324  
      37App    1.768549    38App    1.831886    39App    1.849194  
      40App    1.849254    61Ap     1.942921    62Ap     1.942956  
      63Ap     1.996402    64Ap     2.051590    65Ap     2.051615  
      41App    2.062194    42App    2.062332    66Ap     2.080739  
      67Ap     2.268527    68Ap     2.316055    43App    2.323187  
      44App    2.323237    69Ap     2.379080    70Ap     2.379181  
      45App    2.493358    71Ap     2.534215    72Ap     2.534346  
      46App    2.605281    73Ap     2.732724    74Ap     2.838567  
      75Ap     2.838594    47App    2.909441    48App    2.909764  

    Final Occupation by Irrep:
             Ap   App 
    DOCC [     9,    3 ]

  @DF-RKS Final Energy:  -117.84589795114977

   => Energetics <=

    Nuclear Repulsion Energy =             75.2814648090140253
    One-Electron Energy =                -305.7869900450601222
    Two-Electron Energy =                 121.5637805508501970
    DFT Exchange-Correlation Energy =      -8.9041532659538731
    Empirical Dispersion Energy =           0.0000000000000000
    VV10 Nonlocal Energy =                  0.0000000000000000
    Total Energy =                       -117.8458979511497660

Computation Completed


Properties will be evaluated at   0.000000,   0.000000,   0.000000 [a0]

Properties computed using the SCF density matrix

  Nuclear Dipole Moment: [e a0]
     X:    -0.0002      Y:    -0.0002      Z:     0.0000

  Electronic Dipole Moment: [e a0]
     X:     0.0003      Y:     0.0000      Z:     0.0000

  Dipole Moment: [e a0]
     X:     0.0001      Y:    -0.0001      Z:     0.0000     Total:     0.0002

  Dipole Moment: [D]
     X:     0.0003      Y:    -0.0004      Z:     0.0000     Total:     0.0005


*** tstop() called on atlantis at Tue Apr 19 10:26:56 2022
Module time:
	user time   =      19.63 seconds =       0.33 minutes
	system time =       0.05 seconds =       0.00 minutes
	total time  =         20 seconds =       0.33 minutes
Total time:
	user time   =      33.75 seconds =       0.56 minutes
	system time =       0.18 seconds =       0.00 minutes
	total time  =         34 seconds =       0.57 minutes

*** tstart() called on atlantis
*** at Tue Apr 19 10:26:56 2022


         ------------------------------------------------------------
                                   SCF GRAD                          
                          Rob Parrish, Justin Turney,                
                       Andy Simmonett, and Alex Sokolov              
         ------------------------------------------------------------

  ==> Geometry <==

    Molecular point group: cs
    Full point group: Cs

    Geometry (in Angstrom), charge = 0, multiplicity = 1:

       Center              X                  Y                   Z               Mass       
    ------------   -----------------  -----------------  -----------------  -----------------
         C            0.321531939855     0.813261460475     0.000000000000    12.000000000000
         C           -0.865048060145    -0.128168539525     0.000000000000    12.000000000000
         C            0.543531939855    -0.685078539525     0.000000000000    12.000000000000
         H            0.537951939855     1.360691460475    -0.920390000000     1.007825032230
         H            0.537951939855     1.360691460475     0.920390000000     1.007825032230
         H           -1.447418060145    -0.214488539525     0.920340000000     1.007825032230
         H           -1.447418060145    -0.214488539525    -0.920340000000     1.007825032230
         H            0.909371939855    -1.146288539525    -0.920370000000     1.007825032230
         H            0.909371939855    -1.146288539525     0.920370000000     1.007825032230

  Nuclear repulsion =   75.281464809014025

  ==> Basis Set <==

  Basis Set: AUG-CC-PVDZ
    Blend: AUG-CC-PVDZ
    Number of shells: 57
    Number of basis function: 123
    Number of Cartesian functions: 129
    Spherical Harmonics?: true
    Max angular momentum: 2

  ==> DFJKGrad: Density-Fitted SCF Gradients <==

    Gradient:                    1
    J tasked:                  Yes
    K tasked:                  Yes
    wK tasked:                  No
    OpenMP threads:              1
    Integrals threads:           1
    Memory [MiB]:              375
    Schwarz Cutoff:          0E+00
    Fitting Condition:       1E-10

   => Auxiliary Basis Set <=

  Basis Set: (AUG-CC-PVDZ AUX)
    Blend: AUG-CC-PVDZ-JKFIT
    Number of shells: 156
    Number of basis function: 450
    Number of Cartesian functions: 513
    Spherical Harmonics?: true
    Max angular momentum: 3

  ==> DFT Potential <==

   => Composite Functional: M06-2X <= 

    Hybrid M06-2X Meta-GGA XC Functional

    Y. Zhao and D. G. Truhlar,  Theor. Chem. Acc., 120, 215, 2008


    Deriv               =              1
    GGA                 =           TRUE
    Meta                =           TRUE

    Exchange Hybrid     =           TRUE
    MP2 Hybrid          =          FALSE

   => Exchange Functionals <=

    1.0000   XC_HYB_MGGA_X_M06_2X

   => Exact (HF) Exchange <=

    0.5400               HF 

   => Correlation Functionals <=

    1.0000   XC_MGGA_C_M06_2X

   => Molecular Quadrature <=

    Radial Scheme          =       TREUTLER
    Pruning Scheme         =           FLAT
    Nuclear Scheme         =       TREUTLER

    BS radius alpha        =              1
    Pruning alpha          =              1
    Radial Points          =             75
    Spherical Points       =            302
    Total Points           =         203850
    Total Blocks           =           1576
    Max Points             =            256
    Max Functions          =            123


  -Total Gradient:
     Atom            X                  Y                   Z
    ------   -----------------  -----------------  -----------------
       1        0.001641147202     0.004099357286     0.000000000000
       2       -0.004313525531    -0.000592642538     0.000000000000
       3        0.002769837656    -0.003463096840     0.000000000000
       4        0.000881106042     0.002170225607    -0.003103218968
       5        0.000881106042     0.002170225607     0.003103218968
       6       -0.002313290718    -0.000315084067     0.003113542305
       7       -0.002313290718    -0.000315084067    -0.003113542305
       8        0.001508811234    -0.001860151316    -0.003099661164
       9        0.001508811234    -0.001860151316     0.003099661164


*** tstop() called on atlantis at Tue Apr 19 10:26:59 2022
Module time:
	user time   =       3.55 seconds =       0.06 minutes
	system time =       0.03 seconds =       0.00 minutes
	total time  =          3 seconds =       0.05 minutes
Total time:
	user time   =      37.30 seconds =       0.62 minutes
	system time =       0.21 seconds =       0.00 minutes
	total time  =         37 seconds =       0.62 minutes

  Based on options and gradient (rms=2.35E-03), recommend projecting translations and projecting rotations.
hessian() will perform frequency computation by finite difference of analytic gradients.

         ----------------------------------------------------------
                                   FINDIF
                     R. A. King and Jonathon Misiewicz
         ---------------------------------------------------------

  Using finite-differences of gradients to determine vibrational frequencies and 
  normal modes.  Resulting frequencies are only valid at stationary points.
    Generating geometries for use with 3-point formula.
    Displacement size will be 5.00e-03.
    Number of atoms is 9.
    Number of irreps is 2.
    Number of SALCs is 21.
    Translations projected? 1. Rotations projected? 1.
    Index of SALCs per irrep:
     1 :  0  1  2  3  4  5  6  7  8  9  10  11 
     2 :  12  13  14  15  16  17  18  19  20 
    Number of SALCs per irrep:
     Irrep 1: 12
     Irrep 2: 9
    Number of geometries (including reference) is 34.
    Number of displacements per irrep:
      Irrep 1: 24
      Irrep 2: 9

  //>>>>>>>>>>>>>>>>>>>>>>>>>>>>>>>>>>>//
  //    Loading displacement 1 of 34   //
  //<<<<<<<<<<<<<<<<<<<<<<<<<<<<<<<<<<<//
gradient() will perform analytic gradient computation.

*** tstart() called on atlantis
*** at Tue Apr 19 10:26:59 2022

   => Loading Basis Set <=

    Name: AUG-CC-PVDZ
    Role: ORBITAL
    Keyword: BASIS
    atoms 1-3 entry C          line   178 file /home/akrom/software/anaconda3/envs/ffpenv/share/psi4/basis/aug-cc-pvdz.gbs 
    atoms 4-9 entry H          line    36 file /home/akrom/software/anaconda3/envs/ffpenv/share/psi4/basis/aug-cc-pvdz.gbs 


         ---------------------------------------------------------
                                   SCF
               by Justin Turney, Rob Parrish, Andy Simmonett
                          and Daniel G. A. Smith
                              RKS Reference
                        1 Threads,    500 MiB Core
         ---------------------------------------------------------

  ==> Geometry <==

    Molecular point group: cs
    Full point group: Cs

    Geometry (in Angstrom), charge = 0, multiplicity = 1:

       Center              X                  Y                   Z               Mass       
    ------------   -----------------  -----------------  -----------------  -----------------
         C            0.321531939855     0.813261460475     0.000000000000    12.000000000000
         C           -0.865048060145    -0.128168539525     0.000000000000    12.000000000000
         C            0.543531939855    -0.685078539525     0.000000000000    12.000000000000
         H            0.537951939855     1.360691460475    -0.920390000000     1.007825032230
         H            0.537951939855     1.360691460475     0.920390000000     1.007825032230
         H           -1.447418060145    -0.214488539525     0.920340000000     1.007825032230
         H           -1.447418060145    -0.214488539525    -0.920340000000     1.007825032230
         H            0.909371939855    -1.146288539525    -0.920370000000     1.007825032230
         H            0.909371939855    -1.146288539525     0.920370000000     1.007825032230

  Running in cs symmetry.

  Rotational constants: A =      0.66472  B =      0.66470  C =      0.41647 [cm^-1]
  Rotational constants: A =  19927.70596  B =  19927.20236  C =  12485.44714 [MHz]
  Nuclear repulsion =   75.281464809014025

  Charge       = 0
  Multiplicity = 1
  Electrons    = 24
  Nalpha       = 12
  Nbeta        = 12

  ==> Algorithm <==

  SCF Algorithm Type is DF.
  DIIS enabled.
  MOM disabled.
  Fractional occupation disabled.
  Guess Type is SAD.
  Energy threshold   = 1.00e-08
  Density threshold  = 1.00e-08
  Integral threshold = 0.00e+00

  ==> Primary Basis <==

  Basis Set: AUG-CC-PVDZ
    Blend: AUG-CC-PVDZ
    Number of shells: 57
    Number of basis function: 123
    Number of Cartesian functions: 129
    Spherical Harmonics?: true
    Max angular momentum: 2

  ==> DFT Potential <==

   => Composite Functional: M06-2X <= 

    Hybrid M06-2X Meta-GGA XC Functional

    Y. Zhao and D. G. Truhlar,  Theor. Chem. Acc., 120, 215, 2008


    Deriv               =              1
    GGA                 =           TRUE
    Meta                =           TRUE

    Exchange Hybrid     =           TRUE
    MP2 Hybrid          =          FALSE

   => Exchange Functionals <=

    1.0000   XC_HYB_MGGA_X_M06_2X

   => Exact (HF) Exchange <=

    0.5400               HF 

   => Correlation Functionals <=

    1.0000   XC_MGGA_C_M06_2X

   => Molecular Quadrature <=

    Radial Scheme          =       TREUTLER
    Pruning Scheme         =           FLAT
    Nuclear Scheme         =       TREUTLER

    BS radius alpha        =              1
    Pruning alpha          =              1
    Radial Points          =             75
    Spherical Points       =            302
    Total Points           =         203850
    Total Blocks           =           1576
    Max Points             =            256
    Max Functions          =            123

   => Loading Basis Set <=

    Name: (AUG-CC-PVDZ AUX)
    Role: JKFIT
    Keyword: DF_BASIS_SCF
    atoms 1-3 entry C          line   154 file /home/akrom/software/anaconda3/envs/ffpenv/share/psi4/basis/aug-cc-pvdz-jkfit.gbs 
    atoms 4-9 entry H          line    70 file /home/akrom/software/anaconda3/envs/ffpenv/share/psi4/basis/aug-cc-pvdz-jkfit.gbs 

  ==> Pre-Iterations <==

   -------------------------------------------------------
    Irrep   Nso     Nmo     Nalpha   Nbeta   Ndocc  Nsocc
   -------------------------------------------------------
     A'        75      75       0       0       0       0
     A"        48      48       0       0       0       0
   -------------------------------------------------------
    Total     123     123      12      12      12       0
   -------------------------------------------------------

  ==> Integral Setup <==

  DFHelper Memory: AOs need 0.055 GiB; user supplied 0.055 GiB. Using in-core AOs.

  ==> MemDFJK: Density-Fitted J/K Matrices <==

    J tasked:                   Yes
    K tasked:                   Yes
    wK tasked:                   No
    OpenMP threads:               1
    Memory [MiB]:                56
    Algorithm:                 Core
    Schwarz Cutoff:           1E-12
    Mask sparsity (%):       0.0000
    Fitting Condition:        1E-10

   => Auxiliary Basis Set <=

  Basis Set: (AUG-CC-PVDZ AUX)
    Blend: AUG-CC-PVDZ-JKFIT
    Number of shells: 156
    Number of basis function: 450
    Number of Cartesian functions: 513
    Spherical Harmonics?: true
    Max angular momentum: 3

  Cached 20.1% of DFT collocation blocks in 0.338 [GiB].

  Minimum eigenvalue in the overlap matrix is 1.0790838778E-04.
  Using Symmetric Orthogonalization.

  SCF Guess: Superposition of Atomic Densities via on-the-fly atomic UHF.

  ==> Iterations <==

                           Total Energy        Delta E     RMS |[F,P]|

   @DF-RKS iter SAD:  -117.42326238333111   -1.17423e+02   0.00000e+00 
   @DF-RKS iter   1:  -117.55696624963542   -1.33704e-01   8.19883e-03 DIIS
   @DF-RKS iter   2:  -117.55170760763635    5.25864e-03   8.25311e-03 DIIS
   @DF-RKS iter   3:  -117.84530856412528   -2.93601e-01   3.65487e-04 DIIS
   @DF-RKS iter   4:  -117.84588064744541   -5.72083e-04   5.54225e-05 DIIS
   @DF-RKS iter   5:  -117.84589749645021   -1.68490e-05   6.93416e-06 DIIS
   @DF-RKS iter   6:  -117.84589794007577   -4.43626e-07   8.74460e-07 DIIS
   @DF-RKS iter   7:  -117.84589795102221   -1.09464e-08   1.10631e-07 DIIS
   @DF-RKS iter   8:  -117.84589795112360   -1.01394e-10   8.06308e-08 DIIS
   @DF-RKS iter   9:  -117.84589795115083   -2.72280e-11   9.21859e-09 DIIS
  Energy and wave function converged.


  ==> Post-Iterations <==

    Orbital Energies [Eh]
    ---------------------

    Doubly Occupied:                                                      

       1Ap   -10.547898     2Ap   -10.547326     3Ap   -10.547318  
       4Ap    -0.943773     5Ap    -0.677377     6Ap    -0.677364  
       1App   -0.563694     7Ap    -0.526823     2App   -0.422299  
       3App   -0.422274     8Ap    -0.348918     9Ap    -0.348878  

    Virtual:                                                              

      10Ap     0.002727     4App    0.015106    11Ap     0.017726  
      12Ap     0.017727     5App    0.048384     6App    0.048386  
      13Ap     0.066680    14Ap     0.074640    15Ap     0.074642  
      16Ap     0.109130    17Ap     0.111627    18Ap     0.111632  
       7App    0.118548    19Ap     0.134664     8App    0.149822  
       9App    0.149827    20Ap     0.164471    21Ap     0.164477  
      22Ap     0.200967    10App    0.204414    23Ap     0.215725  
      11App    0.259470    12App    0.259475    24Ap     0.279178  
      25Ap     0.279193    26Ap     0.293532    27Ap     0.344519  
      28Ap     0.344530    29Ap     0.370273    30Ap     0.370284  
      13App    0.376072    14App    0.389071    15App    0.389079  
      16App    0.399575    31Ap     0.446873    17App    0.464211  
      18App    0.464228    19App    0.477633    32Ap     0.499731  
      33Ap     0.504998    34Ap     0.505007    35Ap     0.512466  
      20App    0.521954    36Ap     0.542587    37Ap     0.542594  
      21App    0.570208    22App    0.570227    38Ap     0.574871  
      39Ap     0.574892    40Ap     0.623625    23App    0.639489  
      24App    0.639496    41Ap     0.652162    42Ap     0.652191  
      43Ap     0.690317    44Ap     0.715651    45Ap     0.715658  
      25App    0.777562    26App    0.777586    46Ap     0.798989  
      27App    0.840886    47Ap     0.982883    48Ap     0.982896  
      28App    1.015838    49Ap     1.038898    50Ap     1.038934  
      29App    1.053952    30App    1.053976    31App    1.126481  
      51Ap     1.194728    52Ap     1.336025    32App    1.423040  
      33App    1.423114    53Ap     1.433056    54Ap     1.469870  
      55Ap     1.469967    34App    1.583755    35App    1.583860  
      56Ap     1.640647    57Ap     1.640707    58Ap     1.687909  
      36App    1.728602    59Ap     1.764249    60Ap     1.764324  
      37App    1.768549    38App    1.831886    39App    1.849194  
      40App    1.849254    61Ap     1.942921    62Ap     1.942956  
      63Ap     1.996402    64Ap     2.051590    65Ap     2.051615  
      41App    2.062194    42App    2.062332    66Ap     2.080739  
      67Ap     2.268527    68Ap     2.316055    43App    2.323187  
      44App    2.323237    69Ap     2.379080    70Ap     2.379181  
      45App    2.493358    71Ap     2.534215    72Ap     2.534346  
      46App    2.605281    73Ap     2.732724    74Ap     2.838567  
      75Ap     2.838594    47App    2.909441    48App    2.909764  

    Final Occupation by Irrep:
             Ap   App 
    DOCC [     9,    3 ]

  @DF-RKS Final Energy:  -117.84589795115083

   => Energetics <=

    Nuclear Repulsion Energy =             75.2814648090140253
    One-Electron Energy =                -305.7869900450571663
    Two-Electron Energy =                 121.5637805508462606
    DFT Exchange-Correlation Energy =      -8.9041532659539584
    Empirical Dispersion Energy =           0.0000000000000000
    VV10 Nonlocal Energy =                  0.0000000000000000
    Total Energy =                       -117.8458979511508176

Computation Completed


Properties will be evaluated at   0.000000,   0.000000,   0.000000 [a0]

Properties computed using the SCF density matrix

  Nuclear Dipole Moment: [e a0]
     X:    -0.0002      Y:    -0.0002      Z:     0.0000

  Electronic Dipole Moment: [e a0]
     X:     0.0003      Y:     0.0000      Z:     0.0000

  Dipole Moment: [e a0]
     X:     0.0001      Y:    -0.0001      Z:     0.0000     Total:     0.0002

  Dipole Moment: [D]
     X:     0.0003      Y:    -0.0004      Z:     0.0000     Total:     0.0005


*** tstop() called on atlantis at Tue Apr 19 10:27:19 2022
Module time:
	user time   =      19.57 seconds =       0.33 minutes
	system time =       0.05 seconds =       0.00 minutes
	total time  =         20 seconds =       0.33 minutes
Total time:
	user time   =      57.16 seconds =       0.95 minutes
	system time =       0.27 seconds =       0.00 minutes
	total time  =         57 seconds =       0.95 minutes

*** tstart() called on atlantis
*** at Tue Apr 19 10:27:19 2022


         ------------------------------------------------------------
                                   SCF GRAD                          
                          Rob Parrish, Justin Turney,                
                       Andy Simmonett, and Alex Sokolov              
         ------------------------------------------------------------

  ==> Geometry <==

    Molecular point group: cs
    Full point group: Cs

    Geometry (in Angstrom), charge = 0, multiplicity = 1:

       Center              X                  Y                   Z               Mass       
    ------------   -----------------  -----------------  -----------------  -----------------
         C            0.321531939855     0.813261460475     0.000000000000    12.000000000000
         C           -0.865048060145    -0.128168539525     0.000000000000    12.000000000000
         C            0.543531939855    -0.685078539525     0.000000000000    12.000000000000
         H            0.537951939855     1.360691460475    -0.920390000000     1.007825032230
         H            0.537951939855     1.360691460475     0.920390000000     1.007825032230
         H           -1.447418060145    -0.214488539525     0.920340000000     1.007825032230
         H           -1.447418060145    -0.214488539525    -0.920340000000     1.007825032230
         H            0.909371939855    -1.146288539525    -0.920370000000     1.007825032230
         H            0.909371939855    -1.146288539525     0.920370000000     1.007825032230

  Nuclear repulsion =   75.281464809014025

  ==> Basis Set <==

  Basis Set: AUG-CC-PVDZ
    Blend: AUG-CC-PVDZ
    Number of shells: 57
    Number of basis function: 123
    Number of Cartesian functions: 129
    Spherical Harmonics?: true
    Max angular momentum: 2

  ==> DFJKGrad: Density-Fitted SCF Gradients <==

    Gradient:                    1
    J tasked:                  Yes
    K tasked:                  Yes
    wK tasked:                  No
    OpenMP threads:              1
    Integrals threads:           1
    Memory [MiB]:              375
    Schwarz Cutoff:          0E+00
    Fitting Condition:       1E-10

   => Auxiliary Basis Set <=

  Basis Set: (AUG-CC-PVDZ AUX)
    Blend: AUG-CC-PVDZ-JKFIT
    Number of shells: 156
    Number of basis function: 450
    Number of Cartesian functions: 513
    Spherical Harmonics?: true
    Max angular momentum: 3

  ==> DFT Potential <==

   => Composite Functional: M06-2X <= 

    Hybrid M06-2X Meta-GGA XC Functional

    Y. Zhao and D. G. Truhlar,  Theor. Chem. Acc., 120, 215, 2008


    Deriv               =              1
    GGA                 =           TRUE
    Meta                =           TRUE

    Exchange Hybrid     =           TRUE
    MP2 Hybrid          =          FALSE

   => Exchange Functionals <=

    1.0000   XC_HYB_MGGA_X_M06_2X

   => Exact (HF) Exchange <=

    0.5400               HF 

   => Correlation Functionals <=

    1.0000   XC_MGGA_C_M06_2X

   => Molecular Quadrature <=

    Radial Scheme          =       TREUTLER
    Pruning Scheme         =           FLAT
    Nuclear Scheme         =       TREUTLER

    BS radius alpha        =              1
    Pruning alpha          =              1
    Radial Points          =             75
    Spherical Points       =            302
    Total Points           =         203850
    Total Blocks           =           1576
    Max Points             =            256
    Max Functions          =            123


  -Total Gradient:
     Atom            X                  Y                   Z
    ------   -----------------  -----------------  -----------------
       1        0.001641143085     0.004099357927     0.000000000000
       2       -0.004313528357    -0.000592642176     0.000000000000
       3        0.002769832666    -0.003463095522     0.000000000000
       4        0.000881108320     0.002170225296    -0.003103219086
       5        0.000881108320     0.002170225296     0.003103219086
       6       -0.002313289386    -0.000315084474     0.003113543703
       7       -0.002313289386    -0.000315084474    -0.003113543703
       8        0.001508813590    -0.001860151757    -0.003099660471
       9        0.001508813590    -0.001860151757     0.003099660471


*** tstop() called on atlantis at Tue Apr 19 10:27:23 2022
Module time:
	user time   =       3.56 seconds =       0.06 minutes
	system time =       0.02 seconds =       0.00 minutes
	total time  =          4 seconds =       0.07 minutes
Total time:
	user time   =      60.72 seconds =       1.01 minutes
	system time =       0.29 seconds =       0.00 minutes
	total time  =         61 seconds =       1.02 minutes

  //>>>>>>>>>>>>>>>>>>>>>>>>>>>>>>>>>>>//
  //    Loading displacement 2 of 34   //
  //<<<<<<<<<<<<<<<<<<<<<<<<<<<<<<<<<<<//
gradient() will perform analytic gradient computation.

*** tstart() called on atlantis
*** at Tue Apr 19 10:27:23 2022

   => Loading Basis Set <=

    Name: AUG-CC-PVDZ
    Role: ORBITAL
    Keyword: BASIS
    atoms 1-3 entry C          line   178 file /home/akrom/software/anaconda3/envs/ffpenv/share/psi4/basis/aug-cc-pvdz.gbs 
    atoms 4-9 entry H          line    36 file /home/akrom/software/anaconda3/envs/ffpenv/share/psi4/basis/aug-cc-pvdz.gbs 


         ---------------------------------------------------------
                                   SCF
               by Justin Turney, Rob Parrish, Andy Simmonett
                          and Daniel G. A. Smith
                              RKS Reference
                        1 Threads,    500 MiB Core
         ---------------------------------------------------------

  ==> Geometry <==

    Molecular point group: cs
    Full point group: Cs

    Geometry (in Angstrom), charge = 0, multiplicity = 1:

       Center              X                  Y                   Z               Mass       
    ------------   -----------------  -----------------  -----------------  -----------------
         C            0.320981935461     0.813179232929     0.000000000000    12.000000000000
         C           -0.864778117207    -0.127947314912     0.000000000000    12.000000000000
         C            0.543659460418    -0.685217540638     0.000000000000    12.000000000000
         H            0.538602639069     1.360553886373    -0.920390000000     1.007825032230
         H            0.538602639069     1.360553886373     0.920390000000     1.007825032230
         H           -1.447170192407    -0.214118381478     0.920340000000     1.007825032230
         H           -1.447170192407    -0.214118381478    -0.920340000000     1.007825032230
         H            0.909381512053    -1.146521099385    -0.920370000000     1.007825032230
         H            0.909381512053    -1.146521099385     0.920370000000     1.007825032230

  Running in cs symmetry.

  Rotational constants: A =      0.66511  B =      0.66452  C =      0.41655 [cm^-1]
  Rotational constants: A =  19939.46144  B =  19921.88173  C =  12487.97026 [MHz]
  Nuclear repulsion =   75.286659304380962

  Charge       = 0
  Multiplicity = 1
  Electrons    = 24
  Nalpha       = 12
  Nbeta        = 12

  ==> Algorithm <==

  SCF Algorithm Type is DF.
  DIIS enabled.
  MOM disabled.
  Fractional occupation disabled.
  Guess Type is SAD.
  Energy threshold   = 1.00e-08
  Density threshold  = 1.00e-08
  Integral threshold = 0.00e+00

  ==> Primary Basis <==

  Basis Set: AUG-CC-PVDZ
    Blend: AUG-CC-PVDZ
    Number of shells: 57
    Number of basis function: 123
    Number of Cartesian functions: 129
    Spherical Harmonics?: true
    Max angular momentum: 2

  ==> DFT Potential <==

   => Composite Functional: M06-2X <= 

    Hybrid M06-2X Meta-GGA XC Functional

    Y. Zhao and D. G. Truhlar,  Theor. Chem. Acc., 120, 215, 2008


    Deriv               =              1
    GGA                 =           TRUE
    Meta                =           TRUE

    Exchange Hybrid     =           TRUE
    MP2 Hybrid          =          FALSE

   => Exchange Functionals <=

    1.0000   XC_HYB_MGGA_X_M06_2X

   => Exact (HF) Exchange <=

    0.5400               HF 

   => Correlation Functionals <=

    1.0000   XC_MGGA_C_M06_2X

   => Molecular Quadrature <=

    Radial Scheme          =       TREUTLER
    Pruning Scheme         =           FLAT
    Nuclear Scheme         =       TREUTLER

    BS radius alpha        =              1
    Pruning alpha          =              1
    Radial Points          =             75
    Spherical Points       =            302
    Total Points           =         203850
    Total Blocks           =           1568
    Max Points             =            256
    Max Functions          =            123

   => Loading Basis Set <=

    Name: (AUG-CC-PVDZ AUX)
    Role: JKFIT
    Keyword: DF_BASIS_SCF
    atoms 1-3 entry C          line   154 file /home/akrom/software/anaconda3/envs/ffpenv/share/psi4/basis/aug-cc-pvdz-jkfit.gbs 
    atoms 4-9 entry H          line    70 file /home/akrom/software/anaconda3/envs/ffpenv/share/psi4/basis/aug-cc-pvdz-jkfit.gbs 

  ==> Pre-Iterations <==

   -------------------------------------------------------
    Irrep   Nso     Nmo     Nalpha   Nbeta   Ndocc  Nsocc
   -------------------------------------------------------
     A'        75      75       0       0       0       0
     A"        48      48       0       0       0       0
   -------------------------------------------------------
    Total     123     123      12      12      12       0
   -------------------------------------------------------

  ==> Integral Setup <==

  DFHelper Memory: AOs need 0.055 GiB; user supplied 0.055 GiB. Using in-core AOs.

  ==> MemDFJK: Density-Fitted J/K Matrices <==

    J tasked:                   Yes
    K tasked:                   Yes
    wK tasked:                   No
    OpenMP threads:               1
    Memory [MiB]:                56
    Algorithm:                 Core
    Schwarz Cutoff:           1E-12
    Mask sparsity (%):       0.0000
    Fitting Condition:        1E-10

   => Auxiliary Basis Set <=

  Basis Set: (AUG-CC-PVDZ AUX)
    Blend: AUG-CC-PVDZ-JKFIT
    Number of shells: 156
    Number of basis function: 450
    Number of Cartesian functions: 513
    Spherical Harmonics?: true
    Max angular momentum: 3

  Cached 20.0% of DFT collocation blocks in 0.349 [GiB].

  Minimum eigenvalue in the overlap matrix is 1.0767193003E-04.
  Using Symmetric Orthogonalization.

  SCF Guess: Superposition of Atomic Densities via on-the-fly atomic UHF.

  ==> Iterations <==

                           Total Energy        Delta E     RMS |[F,P]|

   @DF-RKS iter SAD:  -117.42376930024918   -1.17424e+02   0.00000e+00 
   @DF-RKS iter   1:  -117.55682320785056   -1.33054e-01   8.20154e-03 DIIS
   @DF-RKS iter   2:  -117.55144620181397    5.37701e-03   8.25732e-03 DIIS
   @DF-RKS iter   3:  -117.84532825397092   -2.93882e-01   3.65642e-04 DIIS
   @DF-RKS iter   4:  -117.84590087409526   -5.72620e-04   5.54483e-05 DIIS
   @DF-RKS iter   5:  -117.84591774050563   -1.68664e-05   6.94421e-06 DIIS
   @DF-RKS iter   6:  -117.84591818476537   -4.44260e-07   9.16575e-07 DIIS
   @DF-RKS iter   7:  -117.84591819550600   -1.07406e-08   3.78340e-07 DIIS
   @DF-RKS iter   8:  -117.84591819609183   -5.85828e-10   1.16383e-07 DIIS
   @DF-RKS iter   9:  -117.84591819616018   -6.83542e-11   7.02611e-09 DIIS
  Energy and wave function converged.


  ==> Post-Iterations <==

    Orbital Energies [Eh]
    ---------------------

    Doubly Occupied:                                                      

       1Ap   -10.547885     2Ap   -10.547317     3Ap   -10.547299  
       4Ap    -0.943882     5Ap    -0.677401     6Ap    -0.677310  
       1App   -0.563699     7Ap    -0.526892     2App   -0.422287  
       3App   -0.422170     8Ap    -0.349126     9Ap    -0.348734  

    Virtual:                                                              

      10Ap     0.002729     4App    0.015107    11Ap     0.017726  
      12Ap     0.017729     5App    0.048383     6App    0.048392  
      13Ap     0.066683    14Ap     0.074618    15Ap     0.074658  
      16Ap     0.109143    17Ap     0.111622    18Ap     0.111645  
       7App    0.118536    19Ap     0.134668     8App    0.149804  
       9App    0.149847    20Ap     0.164472    21Ap     0.164492  
      22Ap     0.201041    10App    0.204376    23Ap     0.215737  
      11App    0.259436    12App    0.259511    24Ap     0.279148  
      25Ap     0.279303    26Ap     0.293507    27Ap     0.344519  
      28Ap     0.344609    29Ap     0.370244    30Ap     0.370306  
      13App    0.376055    14App    0.389061    15App    0.389098  
      16App    0.399578    31Ap     0.446886    17App    0.464208  
      18App    0.464246    19App    0.477623    32Ap     0.499750  
      33Ap     0.504943    34Ap     0.505120    35Ap     0.512458  
      20App    0.521952    36Ap     0.542589    37Ap     0.542609  
      21App    0.570147    22App    0.570286    38Ap     0.574894  
      39Ap     0.574985    40Ap     0.623704    23App    0.639465  
      24App    0.639509    41Ap     0.652190    42Ap     0.652254  
      43Ap     0.690333    44Ap     0.715637    45Ap     0.715729  
      25App    0.777556    26App    0.777604    46Ap     0.798919  
      27App    0.840901    47Ap     0.982746    48Ap     0.982957  
      28App    1.015816    49Ap     1.038936    50Ap     1.038990  
      29App    1.053905    30App    1.054035    31App    1.126512  
      51Ap     1.194716    52Ap     1.336033    32App    1.422897  
      33App    1.423185    53Ap     1.433199    54Ap     1.469943  
      55Ap     1.470135    34App    1.583666    35App    1.583901  
      56Ap     1.640849    57Ap     1.640956    58Ap     1.687787  
      36App    1.728575    59Ap     1.764059    60Ap     1.764594  
      37App    1.768558    38App    1.831917    39App    1.849135  
      40App    1.849372    61Ap     1.942883    62Ap     1.943143  
      63Ap     1.996485    64Ap     2.051659    65Ap     2.051788  
      41App    2.062164    42App    2.062320    66Ap     2.080832  
      67Ap     2.268601    68Ap     2.316132    43App    2.322923  
      44App    2.323339    69Ap     2.378812    70Ap     2.379360  
      45App    2.493316    71Ap     2.533982    72Ap     2.534245  
      46App    2.605198    73Ap     2.732968    74Ap     2.838092  
      75Ap     2.839119    47App    2.909484    48App    2.910299  

    Final Occupation by Irrep:
             Ap   App 
    DOCC [     9,    3 ]

  @DF-RKS Final Energy:  -117.84591819616018

   => Energetics <=

    Nuclear Repulsion Energy =             75.2866593043809615
    One-Electron Energy =                -305.7972587287906663
    Two-Electron Energy =                 121.5689007254452747
    DFT Exchange-Correlation Energy =      -8.9042194971957631
    Empirical Dispersion Energy =           0.0000000000000000
    VV10 Nonlocal Energy =                  0.0000000000000000
    Total Energy =                       -117.8459181961601843

Computation Completed


Properties will be evaluated at   0.000000,   0.000000,   0.000000 [a0]

Properties computed using the SCF density matrix

  Nuclear Dipole Moment: [e a0]
     X:     0.0015      Y:    -0.0002      Z:     0.0000

  Electronic Dipole Moment: [e a0]
     X:    -0.0016      Y:     0.0003      Z:     0.0000

  Dipole Moment: [e a0]
     X:    -0.0001      Y:     0.0002      Z:     0.0000     Total:     0.0002

  Dipole Moment: [D]
     X:    -0.0002      Y:     0.0004      Z:     0.0000     Total:     0.0004


*** tstop() called on atlantis at Tue Apr 19 10:27:42 2022
Module time:
	user time   =      19.49 seconds =       0.32 minutes
	system time =       0.06 seconds =       0.00 minutes
	total time  =         19 seconds =       0.32 minutes
Total time:
	user time   =      80.22 seconds =       1.34 minutes
	system time =       0.35 seconds =       0.01 minutes
	total time  =         80 seconds =       1.33 minutes

*** tstart() called on atlantis
*** at Tue Apr 19 10:27:42 2022


         ------------------------------------------------------------
                                   SCF GRAD                          
                          Rob Parrish, Justin Turney,                
                       Andy Simmonett, and Alex Sokolov              
         ------------------------------------------------------------

  ==> Geometry <==

    Molecular point group: cs
    Full point group: Cs

    Geometry (in Angstrom), charge = 0, multiplicity = 1:

       Center              X                  Y                   Z               Mass       
    ------------   -----------------  -----------------  -----------------  -----------------
         C            0.320981935461     0.813179232929     0.000000000000    12.000000000000
         C           -0.864778117207    -0.127947314912     0.000000000000    12.000000000000
         C            0.543659460418    -0.685217540638     0.000000000000    12.000000000000
         H            0.538602639069     1.360553886373    -0.920390000000     1.007825032230
         H            0.538602639069     1.360553886373     0.920390000000     1.007825032230
         H           -1.447170192407    -0.214118381478     0.920340000000     1.007825032230
         H           -1.447170192407    -0.214118381478    -0.920340000000     1.007825032230
         H            0.909381512053    -1.146521099385    -0.920370000000     1.007825032230
         H            0.909381512053    -1.146521099385     0.920370000000     1.007825032230

  Nuclear repulsion =   75.286659304380962

  ==> Basis Set <==

  Basis Set: AUG-CC-PVDZ
    Blend: AUG-CC-PVDZ
    Number of shells: 57
    Number of basis function: 123
    Number of Cartesian functions: 129
    Spherical Harmonics?: true
    Max angular momentum: 2

  ==> DFJKGrad: Density-Fitted SCF Gradients <==

    Gradient:                    1
    J tasked:                  Yes
    K tasked:                  Yes
    wK tasked:                  No
    OpenMP threads:              1
    Integrals threads:           1
    Memory [MiB]:              375
    Schwarz Cutoff:          0E+00
    Fitting Condition:       1E-10

   => Auxiliary Basis Set <=

  Basis Set: (AUG-CC-PVDZ AUX)
    Blend: AUG-CC-PVDZ-JKFIT
    Number of shells: 156
    Number of basis function: 450
    Number of Cartesian functions: 513
    Spherical Harmonics?: true
    Max angular momentum: 3

  ==> DFT Potential <==

   => Composite Functional: M06-2X <= 

    Hybrid M06-2X Meta-GGA XC Functional

    Y. Zhao and D. G. Truhlar,  Theor. Chem. Acc., 120, 215, 2008


    Deriv               =              1
    GGA                 =           TRUE
    Meta                =           TRUE

    Exchange Hybrid     =           TRUE
    MP2 Hybrid          =          FALSE

   => Exchange Functionals <=

    1.0000   XC_HYB_MGGA_X_M06_2X

   => Exact (HF) Exchange <=

    0.5400               HF 

   => Correlation Functionals <=

    1.0000   XC_MGGA_C_M06_2X

   => Molecular Quadrature <=

    Radial Scheme          =       TREUTLER
    Pruning Scheme         =           FLAT
    Nuclear Scheme         =       TREUTLER

    BS radius alpha        =              1
    Pruning alpha          =              1
    Radial Points          =             75
    Spherical Points       =            302
    Total Points           =         203850
    Total Blocks           =           1568
    Max Points             =            256
    Max Functions          =            123


  -Total Gradient:
     Atom            X                  Y                   Z
    ------   -----------------  -----------------  -----------------
       1        0.001078967381     0.003825676213     0.000000000000
       2       -0.004009885750    -0.000470501490     0.000000000000
       3        0.002797809762    -0.003407006114     0.000000000000
       4        0.000970600594     0.002239520513    -0.003203781927
       5        0.000970600594     0.002239520513     0.003203781927
       6       -0.002266770054    -0.000315159711     0.003147216952
       7       -0.002266770054    -0.000315159711    -0.003147216952
       8        0.001481818228    -0.001812208736    -0.003135263320
       9        0.001481818228    -0.001812208736     0.003135263320


*** tstop() called on atlantis at Tue Apr 19 10:27:46 2022
Module time:
	user time   =       3.56 seconds =       0.06 minutes
	system time =       0.02 seconds =       0.00 minutes
	total time  =          4 seconds =       0.07 minutes
Total time:
	user time   =      83.78 seconds =       1.40 minutes
	system time =       0.37 seconds =       0.01 minutes
	total time  =         84 seconds =       1.40 minutes

  //>>>>>>>>>>>>>>>>>>>>>>>>>>>>>>>>>>>//
  //    Loading displacement 3 of 34   //
  //<<<<<<<<<<<<<<<<<<<<<<<<<<<<<<<<<<<//
gradient() will perform analytic gradient computation.

*** tstart() called on atlantis
*** at Tue Apr 19 10:27:46 2022

   => Loading Basis Set <=

    Name: AUG-CC-PVDZ
    Role: ORBITAL
    Keyword: BASIS
    atoms 1-3 entry C          line   178 file /home/akrom/software/anaconda3/envs/ffpenv/share/psi4/basis/aug-cc-pvdz.gbs 
    atoms 4-9 entry H          line    36 file /home/akrom/software/anaconda3/envs/ffpenv/share/psi4/basis/aug-cc-pvdz.gbs 


         ---------------------------------------------------------
                                   SCF
               by Justin Turney, Rob Parrish, Andy Simmonett
                          and Daniel G. A. Smith
                              RKS Reference
                        1 Threads,    500 MiB Core
         ---------------------------------------------------------

  ==> Geometry <==

    Molecular point group: cs
    Full point group: Cs

    Geometry (in Angstrom), charge = 0, multiplicity = 1:

       Center              X                  Y                   Z               Mass       
    ------------   -----------------  -----------------  -----------------  -----------------
         C            0.322081944250     0.813343688021     0.000000000000    12.000000000000
         C           -0.865318003082    -0.128389764139     0.000000000000    12.000000000000
         C            0.543404419293    -0.684939538412     0.000000000000    12.000000000000
         H            0.537301240642     1.360829034576    -0.920390000000     1.007825032230
         H            0.537301240642     1.360829034576     0.920390000000     1.007825032230
         H           -1.447665927882    -0.214858697572     0.920340000000     1.007825032230
         H           -1.447665927882    -0.214858697572    -0.920340000000     1.007825032230
         H            0.909362367658    -1.146055979665    -0.920370000000     1.007825032230
         H            0.909362367658    -1.146055979665     0.920370000000     1.007825032230

  Running in cs symmetry.

  Rotational constants: A =      0.66489  B =      0.66431  C =      0.41639 [cm^-1]
  Rotational constants: A =  19932.94970  B =  19915.53021  C =  12482.92073 [MHz]
  Nuclear repulsion =   75.276267816162189

  Charge       = 0
  Multiplicity = 1
  Electrons    = 24
  Nalpha       = 12
  Nbeta        = 12

  ==> Algorithm <==

  SCF Algorithm Type is DF.
  DIIS enabled.
  MOM disabled.
  Fractional occupation disabled.
  Guess Type is SAD.
  Energy threshold   = 1.00e-08
  Density threshold  = 1.00e-08
  Integral threshold = 0.00e+00

  ==> Primary Basis <==

  Basis Set: AUG-CC-PVDZ
    Blend: AUG-CC-PVDZ
    Number of shells: 57
    Number of basis function: 123
    Number of Cartesian functions: 129
    Spherical Harmonics?: true
    Max angular momentum: 2

  ==> DFT Potential <==

   => Composite Functional: M06-2X <= 

    Hybrid M06-2X Meta-GGA XC Functional

    Y. Zhao and D. G. Truhlar,  Theor. Chem. Acc., 120, 215, 2008


    Deriv               =              1
    GGA                 =           TRUE
    Meta                =           TRUE

    Exchange Hybrid     =           TRUE
    MP2 Hybrid          =          FALSE

   => Exchange Functionals <=

    1.0000   XC_HYB_MGGA_X_M06_2X

   => Exact (HF) Exchange <=

    0.5400               HF 

   => Correlation Functionals <=

    1.0000   XC_MGGA_C_M06_2X

   => Molecular Quadrature <=

    Radial Scheme          =       TREUTLER
    Pruning Scheme         =           FLAT
    Nuclear Scheme         =       TREUTLER

    BS radius alpha        =              1
    Pruning alpha          =              1
    Radial Points          =             75
    Spherical Points       =            302
    Total Points           =         203850
    Total Blocks           =           1573
    Max Points             =            256
    Max Functions          =            123

   => Loading Basis Set <=

    Name: (AUG-CC-PVDZ AUX)
    Role: JKFIT
    Keyword: DF_BASIS_SCF
    atoms 1-3 entry C          line   154 file /home/akrom/software/anaconda3/envs/ffpenv/share/psi4/basis/aug-cc-pvdz-jkfit.gbs 
    atoms 4-9 entry H          line    70 file /home/akrom/software/anaconda3/envs/ffpenv/share/psi4/basis/aug-cc-pvdz-jkfit.gbs 

  ==> Pre-Iterations <==

   -------------------------------------------------------
    Irrep   Nso     Nmo     Nalpha   Nbeta   Ndocc  Nsocc
   -------------------------------------------------------
     A'        75      75       0       0       0       0
     A"        48      48       0       0       0       0
   -------------------------------------------------------
    Total     123     123      12      12      12       0
   -------------------------------------------------------

  ==> Integral Setup <==

  DFHelper Memory: AOs need 0.055 GiB; user supplied 0.055 GiB. Using in-core AOs.

  ==> MemDFJK: Density-Fitted J/K Matrices <==

    J tasked:                   Yes
    K tasked:                   Yes
    wK tasked:                   No
    OpenMP threads:               1
    Memory [MiB]:                56
    Algorithm:                 Core
    Schwarz Cutoff:           1E-12
    Mask sparsity (%):       0.0000
    Fitting Condition:        1E-10

   => Auxiliary Basis Set <=

  Basis Set: (AUG-CC-PVDZ AUX)
    Blend: AUG-CC-PVDZ-JKFIT
    Number of shells: 156
    Number of basis function: 450
    Number of Cartesian functions: 513
    Spherical Harmonics?: true
    Max angular momentum: 3

  Cached 20.0% of DFT collocation blocks in 0.351 [GiB].

  Minimum eigenvalue in the overlap matrix is 1.0781869769E-04.
  Using Symmetric Orthogonalization.

  SCF Guess: Superposition of Atomic Densities via on-the-fly atomic UHF.

  ==> Iterations <==

                           Total Energy        Delta E     RMS |[F,P]|

   @DF-RKS iter SAD:  -117.42277642240434   -1.17423e+02   0.00000e+00 
   @DF-RKS iter   1:  -117.55714463215348   -1.34368e-01   8.19661e-03 DIIS
   @DF-RKS iter   2:  -117.55201085682205    5.13378e-03   8.24929e-03 DIIS
   @DF-RKS iter   3:  -117.84532814621757   -2.93317e-01   3.65553e-04 DIIS
   @DF-RKS iter   4:  -117.84590029530520   -5.72149e-04   5.54542e-05 DIIS
   @DF-RKS iter   5:  -117.84591716634890   -1.68710e-05   6.93595e-06 DIIS
   @DF-RKS iter   6:  -117.84591760977375   -4.43425e-07   9.05635e-07 DIIS
   @DF-RKS iter   7:  -117.84591762055315   -1.07794e-08   3.31729e-07 DIIS
   @DF-RKS iter   8:  -117.84591762100159   -4.48438e-10   1.22866e-07 DIIS
   @DF-RKS iter   9:  -117.84591762107391   -7.23190e-11   7.05726e-09 DIIS
  Energy and wave function converged.


  ==> Post-Iterations <==

    Orbital Energies [Eh]
    ---------------------

    Doubly Occupied:                                                      

       1Ap   -10.547911     2Ap   -10.547344     3Ap   -10.547326  
       4Ap    -0.943681     5Ap    -0.677437     6Ap    -0.677356  
       1App   -0.563681     7Ap    -0.526796     2App   -0.422391  
       3App   -0.422270     8Ap    -0.349057     9Ap    -0.348668  

    Virtual:                                                              

      10Ap     0.002729     4App    0.015114    11Ap     0.017726  
      12Ap     0.017729     5App    0.048378     6App    0.048389  
      13Ap     0.066683    14Ap     0.074622    15Ap     0.074668  
      16Ap     0.109120    17Ap     0.111615    18Ap     0.111643  
       7App    0.118562    19Ap     0.134669     8App    0.149799  
       9App    0.149848    20Ap     0.164454    21Ap     0.164481  
      22Ap     0.200910    10App    0.204433    23Ap     0.215721  
      11App    0.259436    12App    0.259527    24Ap     0.279090  
      25Ap     0.279262    26Ap     0.293565    27Ap     0.344449  
      28Ap     0.344545    29Ap     0.370251    30Ap     0.370317  
      13App    0.376045    14App    0.389058    15App    0.389082  
      16App    0.399573    31Ap     0.446860    17App    0.464178  
      18App    0.464240    19App    0.477612    32Ap     0.499708  
      33Ap     0.504876    34Ap     0.505059    35Ap     0.512457  
      20App    0.521951    36Ap     0.542582    37Ap     0.542609  
      21App    0.570148    22App    0.570320    38Ap     0.574783  
      39Ap     0.574900    40Ap     0.623610    23App    0.639475  
      24App    0.639527    41Ap     0.652103    42Ap     0.652188  
      43Ap     0.690306    44Ap     0.715584    45Ap     0.715678  
      25App    0.777554    26App    0.777591    46Ap     0.799142  
      27App    0.840862    47Ap     0.982888    48Ap     0.983088  
      28App    1.015906    49Ap     1.038839    50Ap     1.038932  
      29App    1.053906    30App    1.054002    31App    1.126431  
      51Ap     1.194748    52Ap     1.336029    32App    1.422850  
      33App    1.423196    53Ap     1.433125    54Ap     1.469838  
      55Ap     1.470120    34App    1.583686    35App    1.583877  
      56Ap     1.640562    57Ap     1.640656    58Ap     1.687939  
      36App    1.728879    59Ap     1.763927    60Ap     1.764485  
      37App    1.768531    38App    1.831772    39App    1.849130  
      40App    1.849384    61Ap     1.942890    62Ap     1.943058  
      63Ap     1.996410    64Ap     2.051409    65Ap     2.051546  
      41App    2.062263    42App    2.062406    66Ap     2.080811  
      67Ap     2.268383    68Ap     2.315982    43App    2.323117  
      44App    2.323477    69Ap     2.379083    70Ap     2.379483  
      45App    2.493241    71Ap     2.534172    72Ap     2.534388  
      46App    2.605438    73Ap     2.732406    74Ap     2.837993  
      75Ap     2.839089    47App    2.909220    48App    2.910391  

    Final Occupation by Irrep:
             Ap   App 
    DOCC [     9,    3 ]

  @DF-RKS Final Energy:  -117.84591762107391

   => Energetics <=

    Nuclear Repulsion Energy =             75.2762678161621892
    One-Electron Energy =                -305.7767289162171664
    Two-Electron Energy =                 121.5586812854725025
    DFT Exchange-Correlation Energy =      -8.9041378064914465
    Empirical Dispersion Energy =           0.0000000000000000
    VV10 Nonlocal Energy =                  0.0000000000000000
    Total Energy =                       -117.8459176210739088

Computation Completed


Properties will be evaluated at   0.000000,   0.000000,   0.000000 [a0]

Properties computed using the SCF density matrix

  Nuclear Dipole Moment: [e a0]
     X:    -0.0019      Y:    -0.0002      Z:     0.0000

  Electronic Dipole Moment: [e a0]
     X:     0.0021      Y:    -0.0001      Z:     0.0000

  Dipole Moment: [e a0]
     X:     0.0002      Y:    -0.0003      Z:     0.0000     Total:     0.0003

  Dipole Moment: [D]
     X:     0.0004      Y:    -0.0007      Z:     0.0000     Total:     0.0008


*** tstop() called on atlantis at Tue Apr 19 10:28:05 2022
Module time:
	user time   =      19.54 seconds =       0.33 minutes
	system time =       0.06 seconds =       0.00 minutes
	total time  =         19 seconds =       0.32 minutes
Total time:
	user time   =     103.32 seconds =       1.72 minutes
	system time =       0.43 seconds =       0.01 minutes
	total time  =        103 seconds =       1.72 minutes

*** tstart() called on atlantis
*** at Tue Apr 19 10:28:05 2022


         ------------------------------------------------------------
                                   SCF GRAD                          
                          Rob Parrish, Justin Turney,                
                       Andy Simmonett, and Alex Sokolov              
         ------------------------------------------------------------

  ==> Geometry <==

    Molecular point group: cs
    Full point group: Cs

    Geometry (in Angstrom), charge = 0, multiplicity = 1:

       Center              X                  Y                   Z               Mass       
    ------------   -----------------  -----------------  -----------------  -----------------
         C            0.322081944250     0.813343688021     0.000000000000    12.000000000000
         C           -0.865318003082    -0.128389764139     0.000000000000    12.000000000000
         C            0.543404419293    -0.684939538412     0.000000000000    12.000000000000
         H            0.537301240642     1.360829034576    -0.920390000000     1.007825032230
         H            0.537301240642     1.360829034576     0.920390000000     1.007825032230
         H           -1.447665927882    -0.214858697572     0.920340000000     1.007825032230
         H           -1.447665927882    -0.214858697572    -0.920340000000     1.007825032230
         H            0.909362367658    -1.146055979665    -0.920370000000     1.007825032230
         H            0.909362367658    -1.146055979665     0.920370000000     1.007825032230

  Nuclear repulsion =   75.276267816162189

  ==> Basis Set <==

  Basis Set: AUG-CC-PVDZ
    Blend: AUG-CC-PVDZ
    Number of shells: 57
    Number of basis function: 123
    Number of Cartesian functions: 129
    Spherical Harmonics?: true
    Max angular momentum: 2

  ==> DFJKGrad: Density-Fitted SCF Gradients <==

    Gradient:                    1
    J tasked:                  Yes
    K tasked:                  Yes
    wK tasked:                  No
    OpenMP threads:              1
    Integrals threads:           1
    Memory [MiB]:              375
    Schwarz Cutoff:          0E+00
    Fitting Condition:       1E-10

   => Auxiliary Basis Set <=

  Basis Set: (AUG-CC-PVDZ AUX)
    Blend: AUG-CC-PVDZ-JKFIT
    Number of shells: 156
    Number of basis function: 450
    Number of Cartesian functions: 513
    Spherical Harmonics?: true
    Max angular momentum: 3

  ==> DFT Potential <==

   => Composite Functional: M06-2X <= 

    Hybrid M06-2X Meta-GGA XC Functional

    Y. Zhao and D. G. Truhlar,  Theor. Chem. Acc., 120, 215, 2008


    Deriv               =              1
    GGA                 =           TRUE
    Meta                =           TRUE

    Exchange Hybrid     =           TRUE
    MP2 Hybrid          =          FALSE

   => Exchange Functionals <=

    1.0000   XC_HYB_MGGA_X_M06_2X

   => Exact (HF) Exchange <=

    0.5400               HF 

   => Correlation Functionals <=

    1.0000   XC_MGGA_C_M06_2X

   => Molecular Quadrature <=

    Radial Scheme          =       TREUTLER
    Pruning Scheme         =           FLAT
    Nuclear Scheme         =       TREUTLER

    BS radius alpha        =              1
    Pruning alpha          =              1
    Radial Points          =             75
    Spherical Points       =            302
    Total Points           =         203850
    Total Blocks           =           1573
    Max Points             =            256
    Max Functions          =            123


  -Total Gradient:
     Atom            X                  Y                   Z
    ------   -----------------  -----------------  -----------------
       1        0.002154543679     0.004375731939     0.000000000000
       2       -0.004595785336    -0.000776644937     0.000000000000
       3        0.002711788772    -0.003373750337     0.000000000000
       4        0.000765256975     0.002101809888    -0.003021285780
       5        0.000765256975     0.002101809888     0.003021285780
       6       -0.002302400008    -0.000347492455     0.003132783644
       7       -0.002302400008    -0.000347492455    -0.003132783644
       8        0.001462683365    -0.001776336711    -0.003156489377
       9        0.001462683365    -0.001776336711     0.003156489377


*** tstop() called on atlantis at Tue Apr 19 10:28:09 2022
Module time:
	user time   =       3.52 seconds =       0.06 minutes
	system time =       0.03 seconds =       0.00 minutes
	total time  =          4 seconds =       0.07 minutes
Total time:
	user time   =     106.84 seconds =       1.78 minutes
	system time =       0.46 seconds =       0.01 minutes
	total time  =        107 seconds =       1.78 minutes

  //>>>>>>>>>>>>>>>>>>>>>>>>>>>>>>>>>>>//
  //    Loading displacement 4 of 34   //
  //<<<<<<<<<<<<<<<<<<<<<<<<<<<<<<<<<<<//
gradient() will perform analytic gradient computation.

*** tstart() called on atlantis
*** at Tue Apr 19 10:28:09 2022

   => Loading Basis Set <=

    Name: AUG-CC-PVDZ
    Role: ORBITAL
    Keyword: BASIS
    atoms 1-3 entry C          line   178 file /home/akrom/software/anaconda3/envs/ffpenv/share/psi4/basis/aug-cc-pvdz.gbs 
    atoms 4-9 entry H          line    36 file /home/akrom/software/anaconda3/envs/ffpenv/share/psi4/basis/aug-cc-pvdz.gbs 


         ---------------------------------------------------------
                                   SCF
               by Justin Turney, Rob Parrish, Andy Simmonett
                          and Daniel G. A. Smith
                              RKS Reference
                        1 Threads,    500 MiB Core
         ---------------------------------------------------------

  ==> Geometry <==

    Molecular point group: cs
    Full point group: Cs

    Geometry (in Angstrom), charge = 0, multiplicity = 1:

       Center              X                  Y                   Z               Mass       
    ------------   -----------------  -----------------  -----------------  -----------------
         C            0.321531939855     0.812635159068     0.000000000000    12.000000000000
         C           -0.865072120902    -0.128008550426     0.000000000000    12.000000000000
         C            0.543576026536    -0.684746186637     0.000000000000    12.000000000000
         H            0.537745691682     1.361023130555    -0.920390000000     1.007825032230
         H            0.537745691682     1.361023130555     0.920390000000     1.007825032230
         H           -1.447431558178    -0.214399813329     0.920340000000     1.007825032230
         H           -1.447431558178    -0.214399813329    -0.920340000000     1.007825032230
[...]

    Exchange Hybrid     =           TRUE
    MP2 Hybrid          =          FALSE

   => Exchange Functionals <=

    1.0000   XC_HYB_MGGA_X_M06_2X

   => Exact (HF) Exchange <=

    0.5400               HF 

   => Correlation Functionals <=

    1.0000   XC_MGGA_C_M06_2X

   => Molecular Quadrature <=

    Radial Scheme          =       TREUTLER
    Pruning Scheme         =           FLAT
    Nuclear Scheme         =       TREUTLER

    BS radius alpha        =              1
    Pruning alpha          =              1
    Radial Points          =             75
    Spherical Points       =            302
    Total Points           =         203850
    Total Blocks           =           1569
    Max Points             =            256
    Max Functions          =            123


  -Total Gradient:
     Atom            X                  Y                   Z
    ------   -----------------  -----------------  -----------------
       1        0.001638378409     0.004101299106     0.000006528829
       2       -0.004315409035    -0.000594086777     0.000461843186
       3        0.002770500045    -0.003467601850    -0.001281086029
       4        0.000877103437     0.002164803335    -0.003104149035
       5        0.000880281687     0.002177911174     0.003101236051
       6       -0.002135268106    -0.000310907797     0.002824987780
       7       -0.002492887290    -0.000320645704    -0.003398064127
       8        0.001145521685    -0.001496673704    -0.002403608715
       9        0.001869896875    -0.002225021736     0.003790966352


*** tstop() called on atlantis at Tue Apr 19 10:40:09 2022
Module time:
	user time   =       3.52 seconds =       0.06 minutes
	system time =       0.03 seconds =       0.00 minutes
	total time  =          3 seconds =       0.05 minutes
Total time:
	user time   =     823.78 seconds =      13.73 minutes
	system time =       2.88 seconds =       0.05 minutes
	total time  =        827 seconds =      13.78 minutes

         ----------------------------------------------------------
                                   FINDIF
                     R. A. King and Jonathon Misiewicz
         ---------------------------------------------------------

  Computing second-derivative from gradients using projected, 
  symmetry-adapted, cartesian coordinates.

  34 gradients passed in, including the reference geometry.
  Generating complete list of displacements from unique ones.

    Operation 2 takes plus displacements of irrep A" to minus ones.

-------------------------------------------------------------


  ==> Harmonic Vibrational Analysis <==

  non-mass-weighted Hessian:       Symmetric? True   Hermitian? True   Lin Dep Dim?  6 (0)
  projection of translations (True) and rotations (True) removed 6 degrees of freedom (6)
  total projector:                 Symmetric? True   Hermitian? True   Lin Dep Dim?  6 (6)
  mass-weighted Hessian:           Symmetric? True   Hermitian? True   Lin Dep Dim?  6 (0)
  pre-proj  low-frequency mode:    0.0000i [cm^-1]
  pre-proj  low-frequency mode:    0.0000i [cm^-1]
  pre-proj  low-frequency mode:    0.0000  [cm^-1]
  pre-proj  low-frequency mode:    0.0000  [cm^-1]
  pre-proj  low-frequency mode:    0.0000  [cm^-1]
  pre-proj  low-frequency mode:    0.0000  [cm^-1]
  pre-proj  all modes:['0.0000i' '0.0000i' '0.0000' '0.0000' '0.0000' '0.0000' '749.1513'
 '757.5043' '864.2336' '887.3698' '905.2935' '1021.3014' '1029.7670'
 '1091.5094' '1149.0537' '1197.6999' '1200.1973' '1213.0876' '1455.1592'
 '1475.0947' '1524.4148' '3121.2509' '3126.3722' '3133.1988' '3209.4471'
 '3209.7770' '3227.8006']
  projected mass-weighted Hessian: Symmetric? True   Hermitian? True   Lin Dep Dim?  6 (6)
  post-proj low-frequency mode:    0.0000i [cm^-1] (TR)
  post-proj low-frequency mode:    0.0000i [cm^-1] (TR)
  post-proj low-frequency mode:    0.0000  [cm^-1] (TR)
  post-proj low-frequency mode:    0.0000  [cm^-1] (TR)
  post-proj low-frequency mode:    0.0000  [cm^-1] (TR)
  post-proj low-frequency mode:    0.0000  [cm^-1] (TR)
  post-proj  all modes:['0.0000i' '0.0000i' '0.0000' '0.0000' '0.0000' '0.0000' '749.1513'
 '757.5043' '864.2336' '887.3698' '905.2935' '1021.3014' '1029.7670'
 '1091.5094' '1149.0537' '1197.6999' '1200.1973' '1213.0876' '1455.1592'
 '1475.0947' '1524.4148' '3121.2509' '3126.3722' '3133.1988' '3209.4471'
 '3209.7770' '3227.8006']

  Vibration                       7                   8                   9           
  Freq [cm^-1]                 749.1513            757.5043            864.2336       
  Irrep                          App                 App                 App          
  Reduced mass [u]              1.0219              1.0233              1.0437        
  Force const [mDyne/A]         0.3379              0.3460              0.4593        
  Turning point v=0 [a0]        0.3966              0.3941              0.3653        
  RMS dev v=0 [a0 u^1/2]        0.2835              0.2819              0.2639        
  Char temp [K]               1077.8619           1089.8801           1243.4398       
  ----------------------------------------------------------------------------------
      1   C                0.00 -0.00 -0.00    0.00  0.00  0.03    0.00  0.00 -0.03   
      2   C               -0.00 -0.00 -0.02   -0.00 -0.00 -0.02    0.00 -0.00 -0.03   
      3   C               -0.00 -0.00  0.03   -0.00  0.00 -0.01   -0.00  0.00 -0.03   
      4   H                0.43 -0.11  0.03   -0.05 -0.33 -0.18    0.11  0.34  0.19   
      5   H               -0.43  0.11  0.03    0.05  0.33 -0.18   -0.11 -0.34  0.19   
      6   H                0.22  0.32  0.15    0.25 -0.31  0.11    0.35  0.04  0.19   
      7   H               -0.22 -0.32  0.15   -0.25  0.31  0.11   -0.35 -0.04  0.19   
      8   H               -0.06  0.32 -0.16    0.39  0.17  0.06    0.23 -0.29  0.20   
      9   H                0.06 -0.32 -0.16   -0.39 -0.17  0.06   -0.23  0.29  0.20   

  Vibration                       10                  11                  12          
  Freq [cm^-1]                 887.3698            905.2935           1021.3014       
  Irrep                           Ap                  Ap                  Ap          
  Reduced mass [u]              2.5220              4.0417              1.5452        
  Force const [mDyne/A]         1.1701              1.9516              0.9496        
  Turning point v=0 [a0]        0.2319              0.1814              0.2762        
  RMS dev v=0 [a0 u^1/2]        0.2605              0.2579              0.2428        
  Char temp [K]               1276.7276           1302.5159           1469.4253       
  ----------------------------------------------------------------------------------
      1   C               -0.16  0.13  0.00   -0.20 -0.26 -0.00   -0.05  0.03 -0.00   
      2   C                0.23  0.07  0.00   -0.10  0.25 -0.00   -0.01  0.16  0.00   
      3   C                0.01 -0.19  0.00    0.31 -0.01 -0.00   -0.03 -0.13 -0.00   
      4   H               -0.33  0.16 -0.02   -0.18 -0.27  0.00    0.18 -0.00  0.03   
      5   H               -0.33  0.16  0.02   -0.18 -0.27 -0.00    0.18 -0.00 -0.03   
      6   H                0.19  0.12 -0.02   -0.10  0.44  0.02    0.01 -0.55 -0.05   
      7   H                0.19  0.12  0.02   -0.10  0.44 -0.02    0.01 -0.55  0.05   
      8   H               -0.30 -0.39 -0.02    0.21 -0.06 -0.02    0.34  0.15  0.01   
      9   H               -0.30 -0.39  0.02    0.21 -0.06  0.02    0.34  0.15 -0.01   

  Vibration                       13                  14                  15          
  Freq [cm^-1]                1029.7670           1091.5094           1149.0537       
  Irrep                           Ap                  Ap                 App          
  Reduced mass [u]              1.3342              1.2722              1.0099        
  Force const [mDyne/A]         0.8336              0.8930              0.7856        
  Turning point v=0 [a0]        0.2960              0.2945              0.3221        
  RMS dev v=0 [a0 u^1/2]        0.2418              0.2348              0.2289        
  Char temp [K]               1481.6055           1570.4389           1653.2325       
  ----------------------------------------------------------------------------------
      1   C               -0.08  0.05 -0.00   -0.12  0.05 -0.00    0.00 -0.00 -0.01   
      2   C                0.06 -0.07  0.00    0.01 -0.03  0.00   -0.00  0.00  0.01   
      3   C               -0.07 -0.09  0.00    0.05  0.05  0.00    0.00 -0.00 -0.01   
      4   H                0.20 -0.07 -0.01    0.58 -0.24 -0.01    0.40 -0.14  0.01   
      5   H                0.20 -0.07  0.01    0.58 -0.24  0.01   -0.40  0.14  0.01   
      6   H               -0.04  0.46 -0.01    0.02 -0.07  0.00    0.03 -0.41 -0.00   
      7   H               -0.04  0.46  0.01    0.02 -0.07 -0.00   -0.03  0.41 -0.00   
      8   H                0.40  0.26  0.01   -0.27 -0.11 -0.04   -0.29 -0.25  0.01   
      9   H                0.40  0.26 -0.01   -0.27 -0.11  0.04    0.29  0.25  0.01   

  Vibration                       16                  17                  18          
  Freq [cm^-1]                1197.6999           1200.1973           1213.0876       
  Irrep                          App                 App                  Ap          
  Reduced mass [u]              1.4412              1.4473              2.4699        
  Force const [mDyne/A]         1.2181              1.2284              2.1415        
  Turning point v=0 [a0]        0.2641              0.2633              0.2005        
  RMS dev v=0 [a0 u^1/2]        0.2242              0.2240              0.2228        
  Char temp [K]               1723.2234           1726.8167           1745.3630       
  ----------------------------------------------------------------------------------
      1   C                0.00 -0.00 -0.09    0.00 -0.00 -0.13   -0.06 -0.19  0.00   
      2   C                0.00 -0.00  0.16    0.00  0.00 -0.02    0.21  0.06 -0.00   
      3   C               -0.00  0.00 -0.07   -0.00  0.00  0.15   -0.16  0.14 -0.00   
      4   H                0.35  0.11  0.05   -0.09  0.38  0.07   -0.15 -0.33 -0.07   
      5   H               -0.35 -0.11  0.05    0.09 -0.38  0.07   -0.15 -0.33  0.07   
      6   H               -0.39 -0.05 -0.08    0.10 -0.38  0.01    0.35 -0.11  0.05   
      7   H                0.39  0.05 -0.08   -0.10  0.38  0.01    0.35 -0.11 -0.05   
      8   H                0.41  0.12  0.03   -0.10  0.39 -0.08   -0.12  0.37 -0.07   
      9   H               -0.41 -0.12  0.03    0.10 -0.39 -0.08   -0.12  0.37  0.07   

  Vibration                       19                  20                  21          
  Freq [cm^-1]                1455.1592           1475.0947           1524.4148       
  Irrep                           Ap                  Ap                  Ap          
  Reduced mass [u]              1.1015              1.0940              1.3676        
  Force const [mDyne/A]         1.3742              1.4025              1.8725        
  Turning point v=0 [a0]        0.2741              0.2731              0.2403        
  RMS dev v=0 [a0 u^1/2]        0.2034              0.2020              0.1987        
  Char temp [K]               2093.6501           2122.3328           2193.2935       
  ----------------------------------------------------------------------------------
      1   C               -0.04 -0.08  0.00   -0.01  0.02  0.00   -0.04 -0.09  0.00   
      2   C               -0.03 -0.01  0.00   -0.05  0.00 -0.00    0.11  0.01 -0.00   
      3   C                0.00 -0.02 -0.00   -0.05  0.05 -0.00   -0.06  0.09  0.00   
      4   H                0.17  0.45  0.34   -0.01 -0.12 -0.08    0.11  0.23  0.22   
      5   H                0.17  0.45 -0.34   -0.01 -0.12  0.08    0.11  0.23 -0.22   
      6   H                0.30  0.05  0.20    0.36  0.01  0.25   -0.33 -0.03 -0.27   
      7   H                0.30  0.05 -0.20    0.36  0.01 -0.25   -0.33 -0.03  0.27   
      8   H               -0.06  0.09 -0.08    0.26 -0.35  0.31    0.17 -0.29  0.28   
      9   H               -0.06  0.09  0.08    0.26 -0.35 -0.31    0.17 -0.29 -0.28   

  Vibration                       22                  23                  24          
  Freq [cm^-1]                3121.2509           3126.3722           3133.1988       
  Irrep                           Ap                  Ap                  Ap          
  Reduced mass [u]              1.0503              1.0511              1.0641        
  Force const [mDyne/A]         6.0289              6.0529              6.1546        
  Turning point v=0 [a0]        0.1916              0.1914              0.1900        
  RMS dev v=0 [a0 u^1/2]        0.1389              0.1388              0.1386        
  Char temp [K]               4490.7852           4498.1535           4507.9755       
  ----------------------------------------------------------------------------------
      1   C               -0.02 -0.04 -0.00    0.01  0.02  0.00    0.02  0.04  0.00   
      2   C               -0.00 -0.00 -0.00    0.06  0.01 -0.00   -0.03 -0.01 -0.00   
      3   C                0.03 -0.03 -0.00    0.01 -0.02 -0.00    0.03 -0.03 -0.00   
      4   H                0.09  0.23 -0.42   -0.04 -0.11  0.19   -0.09 -0.22  0.39   
      5   H                0.09  0.23  0.42   -0.04 -0.11 -0.19   -0.09 -0.22 -0.39   
      6   H                0.01  0.00 -0.02   -0.32 -0.04  0.53    0.17  0.03 -0.28   
      7   H                0.01  0.00  0.02   -0.32 -0.04 -0.53    0.17  0.03  0.28   
      8   H               -0.16  0.21  0.43   -0.08  0.10  0.21   -0.14  0.17  0.36   
      9   H               -0.16  0.21 -0.43   -0.08  0.10 -0.21   -0.14  0.17 -0.36   

  Vibration                       25                  26                  27          
  Freq [cm^-1]                3209.4471           3209.7770           3227.8006       
  Irrep                          App                 App                 App          
  Reduced mass [u]              1.1213              1.1212              1.1164        
  Force const [mDyne/A]         6.8051              6.8056              6.8533        
  Turning point v=0 [a0]        0.1829              0.1829              0.1828        
  RMS dev v=0 [a0 u^1/2]        0.1370              0.1369              0.1366        
  Char temp [K]               4617.6798           4618.1545           4644.0864       
  ----------------------------------------------------------------------------------
      1   C               -0.00 -0.00  0.01    0.00 -0.00 -0.08    0.00 -0.00 -0.06   
      2   C               -0.00 -0.00 -0.08   -0.00 -0.00  0.04   -0.00 -0.00 -0.06   
      3   C               -0.00  0.00  0.07    0.00 -0.00  0.05   -0.00  0.00 -0.06   
      4   H                0.00  0.02 -0.04   -0.11 -0.29  0.49   -0.08 -0.20  0.34   
      5   H               -0.00 -0.02 -0.04    0.11  0.29  0.49    0.08  0.20  0.34   
      6   H               -0.27 -0.04  0.44    0.13  0.02 -0.21   -0.22 -0.03  0.34   
      7   H                0.27  0.04  0.44   -0.13 -0.02 -0.21    0.22  0.03  0.34   
      8   H                0.15 -0.20 -0.40    0.11 -0.13 -0.27   -0.14  0.17  0.34   
      9   H               -0.15  0.20 -0.40   -0.11  0.13 -0.27    0.14 -0.17  0.34   

  ==> Thermochemistry Components <==

  Entropy, S
    Electronic S            0.000 [cal/(mol K)]        0.000 [J/(mol K)]       0.00000000 [mEh/K] (multiplicity = 1)
    Translational S        37.135 [cal/(mol K)]      155.375 [J/(mol K)]       0.05917914 [mEh/K] (mol. weight = 42.0470 [u], P = 101325.00 [Pa])
    Rotational S           21.699 [cal/(mol K)]       90.789 [J/(mol K)]       0.03457982 [mEh/K] (symmetry no. = 1)
    Vibrational S           1.387 [cal/(mol K)]        5.802 [J/(mol K)]       0.00220986 [mEh/K]
  Total S                  60.221 [cal/(mol K)]      251.966 [J/(mol K)]       0.09596882 [mEh/K]
  Correction S              0.000 [cal/(mol K)]        0.000 [J/(mol K)]       0.00000000 [mEh/K]

  Constant volume heat capacity, Cv
    Electronic Cv           0.000 [cal/(mol K)]        0.000 [J/(mol K)]       0.00000000 [mEh/K]
    Translational Cv        2.981 [cal/(mol K)]       12.472 [J/(mol K)]       0.00475022 [mEh/K]
    Rotational Cv           2.981 [cal/(mol K)]       12.472 [J/(mol K)]       0.00475022 [mEh/K]
    Vibrational Cv          5.097 [cal/(mol K)]       21.325 [J/(mol K)]       0.00812239 [mEh/K]
  Total Cv                 11.058 [cal/(mol K)]       46.269 [J/(mol K)]       0.01762282 [mEh/K]
  Correction Cv             0.000 [cal/(mol K)]        0.000 [J/(mol K)]       0.00000000 [mEh/K]

  Constant pressure heat capacity, Cp
    Electronic Cp           0.000 [cal/(mol K)]        0.000 [J/(mol K)]       0.00000000 [mEh/K]
    Translational Cp        4.968 [cal/(mol K)]       20.786 [J/(mol K)]       0.00791703 [mEh/K]
    Rotational Cp           2.981 [cal/(mol K)]       12.472 [J/(mol K)]       0.00475022 [mEh/K]
    Vibrational Cp          5.097 [cal/(mol K)]       21.325 [J/(mol K)]       0.00812239 [mEh/K]
  Total Cp                 13.046 [cal/(mol K)]       54.583 [J/(mol K)]       0.02078963 [mEh/K]
  Correction Cp             0.000 [cal/(mol K)]        0.000 [J/(mol K)]       0.00000000 [mEh/K]

  ==> Thermochemistry Energy Analysis <==

  Raw electronic energy, E0
  Total E0, Electronic energy at well bottom at 0 [K]                 -117.84589795 [Eh]

  Zero-point energy, ZPE_vib = Sum_i nu_i / 2
    Electronic ZPE          0.000 [kcal/mol]        0.000 [kJ/mol]       0.00000000 [Eh]
    Translational ZPE       0.000 [kcal/mol]        0.000 [kJ/mol]       0.00000000 [Eh]
    Rotational ZPE          0.000 [kcal/mol]        0.000 [kJ/mol]       0.00000000 [Eh]
    Vibrational ZPE        50.819 [kcal/mol]      212.628 [kJ/mol]       0.08098586 [Eh]       17774.342 [cm^-1]
  Correction ZPE           50.819 [kcal/mol]      212.628 [kJ/mol]       0.08098586 [Eh]       17774.342 [cm^-1]
  Total ZPE, Electronic energy at 0 [K]                               -117.76491209 [Eh]

  Thermal Energy, E (includes ZPE)
    Electronic E            0.000 [kcal/mol]        0.000 [kJ/mol]       0.00000000 [Eh]
    Translational E         0.889 [kcal/mol]        3.718 [kJ/mol]       0.00141628 [Eh]
    Rotational E            0.889 [kcal/mol]        3.718 [kJ/mol]       0.00141628 [Eh]
    Vibrational E          51.156 [kcal/mol]      214.035 [kJ/mol]       0.08152163 [Eh]
  Correction E             52.933 [kcal/mol]      221.472 [kJ/mol]       0.08435418 [Eh]
  Total E, Electronic energy at  298.15 [K]                           -117.76154377 [Eh]

  Enthalpy, H_trans = E_trans + k_B * T
    Electronic H            0.000 [kcal/mol]        0.000 [kJ/mol]       0.00000000 [Eh]
    Translational H         1.481 [kcal/mol]        6.197 [kJ/mol]       0.00236046 [Eh]
    Rotational H            0.889 [kcal/mol]        3.718 [kJ/mol]       0.00141628 [Eh]
    Vibrational H          51.156 [kcal/mol]      214.035 [kJ/mol]       0.08152163 [Eh]
  Correction H             53.526 [kcal/mol]      223.951 [kJ/mol]       0.08529836 [Eh]
  Total H, Enthalpy at  298.15 [K]                                    -117.76059959 [Eh]

  Gibbs free energy, G = H - T * S
    Electronic G            0.000 [kcal/mol]        0.000 [kJ/mol]       0.00000000 [Eh]
    Translational G        -9.591 [kcal/mol]      -40.128 [kJ/mol]      -0.01528380 [Eh]
    Rotational G           -5.581 [kcal/mol]      -23.350 [kJ/mol]      -0.00889370 [Eh]
    Vibrational G          50.742 [kcal/mol]      212.305 [kJ/mol]       0.08086276 [Eh]
  Correction G             35.571 [kcal/mol]      148.827 [kJ/mol]       0.05668526 [Eh]
  Total G, Free enthalpy at  298.15 [K]                               -117.78921269 [Eh]

    Psi4 stopped on: Tuesday, 19 April 2022 10:40AM
    Psi4 wall time for execution: 0:13:47.64

*** Psi4 exiting successfully. Buy a developer a beer!
