
    -----------------------------------------------------------------------
          Psi4: An Open-Source Ab Initio Electronic Structure Package
                               Psi4 1.3.2 release

                         Git: Rev {HEAD} ecbda83 


    R. M. Parrish, L. A. Burns, D. G. A. Smith, A. C. Simmonett,
    A. E. DePrince III, E. G. Hohenstein, U. Bozkaya, A. Yu. Sokolov,
    R. Di Remigio, R. M. Richard, J. F. Gonthier, A. M. James,
    H. R. McAlexander, A. Kumar, M. Saitow, X. Wang, B. P. Pritchard,
    P. Verma, H. F. Schaefer III, K. Patkowski, R. A. King, E. F. Valeev,
    F. A. Evangelista, J. M. Turney, T. D. Crawford, and C. D. Sherrill,
    J. Chem. Theory Comput. 13(7) pp 3185--3197 (2017).
    (doi: 10.1021/acs.jctc.7b00174)


                         Additional Contributions by
    P. Kraus, H. Kruse, M. H. Lechner, M. C. Schieber, R. A. Shaw,
    A. Alenaizan, R. Galvelis, Z. L. Glick, S. Lehtola, and J. P. Misiewicz

    -----------------------------------------------------------------------


    Psi4 started on: Tuesday, 19 April 2022 10:05AM

    Process ID: 28114
    Host:       atlantis
    PSIDATADIR: /home/akrom/software/anaconda3/envs/ffpenv/share/psi4
    Memory:     500.0 MiB
    Threads:    1
    
  ==> Input File <==

--------------------------------------------------------------------------
set basis  6-31++G**
molecule {
0 1
   C        0.32153        0.81326        0.00000
   C       -0.86505       -0.12817        0.00000
   C        0.54353       -0.68508        0.00000
   H        0.53795        1.36069       -0.92039
   H        0.53795        1.36069        0.92039
   H       -1.44742       -0.21449        0.92034
   H       -1.44742       -0.21449       -0.92034
   H        0.90937       -1.14629       -0.92037
   H        0.90937       -1.14629        0.92037
}
energy('m06-2x')
frequencies('m06-2x')
--------------------------------------------------------------------------

*** tstart() called on atlantis
*** at Tue Apr 19 10:05:58 2022

   => Loading Basis Set <=

    Name: 6-31++G**
    Role: ORBITAL
    Keyword: BASIS
    atoms 1-3 entry C          line   115 file /home/akrom/software/anaconda3/envs/ffpenv/share/psi4/basis/6-31ppgss.gbs 
    atoms 4-9 entry H          line    46 file /home/akrom/software/anaconda3/envs/ffpenv/share/psi4/basis/6-31ppgss.gbs 


         ---------------------------------------------------------
                                   SCF
               by Justin Turney, Rob Parrish, Andy Simmonett
                          and Daniel G. A. Smith
                              RKS Reference
                        1 Threads,    500 MiB Core
         ---------------------------------------------------------

  ==> Geometry <==

    Molecular point group: cs
    Full point group: Cs

    Geometry (in Angstrom), charge = 0, multiplicity = 1:

       Center              X                  Y                   Z               Mass       
    ------------   -----------------  -----------------  -----------------  -----------------
         C            0.321531939855     0.813261460475     0.000000000000    12.000000000000
         C           -0.865048060145    -0.128168539525     0.000000000000    12.000000000000
         C            0.543531939855    -0.685078539525     0.000000000000    12.000000000000
         H            0.537951939855     1.360691460475    -0.920390000000     1.007825032230
         H            0.537951939855     1.360691460475     0.920390000000     1.007825032230
         H           -1.447418060145    -0.214488539525     0.920340000000     1.007825032230
         H           -1.447418060145    -0.214488539525    -0.920340000000     1.007825032230
         H            0.909371939855    -1.146288539525    -0.920370000000     1.007825032230
         H            0.909371939855    -1.146288539525     0.920370000000     1.007825032230

  Running in cs symmetry.

  Rotational constants: A =      0.66472  B =      0.66470  C =      0.41647 [cm^-1]
  Rotational constants: A =  19927.70596  B =  19927.20236  C =  12485.44714 [MHz]
  Nuclear repulsion =   75.281464809014025

  Charge       = 0
  Multiplicity = 1
  Electrons    = 24
  Nalpha       = 12
  Nbeta        = 12

  ==> Algorithm <==

  SCF Algorithm Type is DF.
  DIIS enabled.
  MOM disabled.
  Fractional occupation disabled.
  Guess Type is SAD.
  Energy threshold   = 1.00e-06
  Density threshold  = 1.00e-06
  Integral threshold = 0.00e+00

  ==> Primary Basis <==

  Basis Set: 6-31++G**
    Blend: 6-31++G**
    Number of shells: 48
    Number of basis function: 93
    Number of Cartesian functions: 93
    Spherical Harmonics?: false
    Max angular momentum: 2

  ==> DFT Potential <==

   => Composite Functional: M06-2X <= 

    Hybrid M06-2X Meta-GGA XC Functional

    Y. Zhao and D. G. Truhlar,  Theor. Chem. Acc., 120, 215, 2008


    Deriv               =              1
    GGA                 =           TRUE
    Meta                =           TRUE

    Exchange Hybrid     =           TRUE
    MP2 Hybrid          =          FALSE

   => Exchange Functionals <=

    1.0000   XC_HYB_MGGA_X_M06_2X

   => Exact (HF) Exchange <=

    0.5400               HF 

   => Correlation Functionals <=

    1.0000   XC_MGGA_C_M06_2X

   => Molecular Quadrature <=

    Radial Scheme          =       TREUTLER
    Pruning Scheme         =           FLAT
    Nuclear Scheme         =       TREUTLER

    BS radius alpha        =              1
    Pruning alpha          =              1
    Radial Points          =             75
    Spherical Points       =            302
    Total Points           =         203850
    Total Blocks           =           1576
    Max Points             =            256
    Max Functions          =             93

   => Loading Basis Set <=

    Name: (6-31++G** AUX)
    Role: JKFIT
    Keyword: DF_BASIS_SCF
    atoms 1-3 entry C          line   154 file /home/akrom/software/anaconda3/envs/ffpenv/share/psi4/basis/aug-cc-pvdz-jkfit.gbs 
    atoms 4-9 entry H          line    70 file /home/akrom/software/anaconda3/envs/ffpenv/share/psi4/basis/aug-cc-pvdz-jkfit.gbs 

  ==> Pre-Iterations <==

   -------------------------------------------------------
    Irrep   Nso     Nmo     Nalpha   Nbeta   Ndocc  Nsocc
   -------------------------------------------------------
     A'        60      60       0       0       0       0
     A"        33      33       0       0       0       0
   -------------------------------------------------------
    Total      93      93      12      12      12       0
   -------------------------------------------------------

  ==> Integral Setup <==

  DFHelper Memory: AOs need 0.037 GiB; user supplied 0.037 GiB. Using in-core AOs.

  ==> MemDFJK: Density-Fitted J/K Matrices <==

    J tasked:                   Yes
    K tasked:                   Yes
    wK tasked:                   No
    OpenMP threads:               1
    Memory [MiB]:                37
    Algorithm:                 Core
    Schwarz Cutoff:           1E-12
    Mask sparsity (%):       0.0000
    Fitting Condition:        1E-10

   => Auxiliary Basis Set <=

  Basis Set: (6-31++G** AUX)
    Blend: AUG-CC-PVDZ-JKFIT
    Number of shells: 156
    Number of basis function: 513
    Number of Cartesian functions: 513
    Spherical Harmonics?: false
    Max angular momentum: 3

  Cached 33.4% of DFT collocation blocks in 0.407 [GiB].

  Minimum eigenvalue in the overlap matrix is 1.8844418511E-04.
  Using Symmetric Orthogonalization.

  SCF Guess: Superposition of Atomic Densities via on-the-fly atomic UHF.

  ==> Iterations <==

                           Total Energy        Delta E     RMS |[F,P]|

   @DF-RKS iter SAD:  -117.39249583417028   -1.17392e+02   0.00000e+00 
   @DF-RKS iter   1:  -117.54679434731628   -1.54299e-01   1.07462e-02 DIIS
   @DF-RKS iter   2:  -117.55289298893159   -6.09864e-03   1.06733e-02 DIIS
   @DF-RKS iter   3:  -117.84031720506115   -2.87424e-01   4.91821e-04 DIIS
   @DF-RKS iter   4:  -117.84094587173789   -6.28667e-04   6.33800e-05 DIIS
   @DF-RKS iter   5:  -117.84096283324627   -1.69615e-05   1.24190e-05 DIIS
   @DF-RKS iter   6:  -117.84096349489984   -6.61654e-07   1.48694e-06 DIIS
   @DF-RKS iter   7:  -117.84096351664451   -2.17447e-08   1.78352e-07 DIIS
  Energy and wave function converged.


  ==> Post-Iterations <==

    Orbital Energies [Eh]
    ---------------------

    Doubly Occupied:                                                      

       1Ap   -10.549327     2Ap   -10.548756     3Ap   -10.548743  
       4Ap    -0.944106     5Ap    -0.678173     6Ap    -0.678156  
       1App   -0.564699     7Ap    -0.527768     2App   -0.423977  
       3App   -0.423949     8Ap    -0.348780     9Ap    -0.348749  

    Virtual:                                                              

      10Ap     0.005198     4App    0.018394    11Ap     0.020978  
      12Ap     0.020979     5App    0.056761     6App    0.056765  
      13Ap     0.079847    14Ap     0.091361    15Ap     0.091364  
      16Ap     0.116567    17Ap     0.131398    18Ap     0.131404  
       7App    0.157159    19Ap     0.171648     8App    0.178638  
       9App    0.178647    20Ap     0.179271    21Ap     0.179273  
      22Ap     0.226414    10App    0.226462    23Ap     0.271105  
      24Ap     0.326938    25Ap     0.326966    11App    0.340047  
      12App    0.340069    26Ap     0.390401    27Ap     0.390416  
      28Ap     0.638869    29Ap     0.715894    30Ap     0.715928  
      13App    0.773262    31Ap     0.806908    32Ap     0.806918  
      33Ap     0.817911    14App    0.848442    15App    0.848475  
      16App    0.968079    34Ap     0.979036    35Ap     1.055548  
      17App    1.101261    18App    1.101386    36Ap     1.129082  
      37Ap     1.129214    38Ap     1.322119    39Ap     1.322131  
      40Ap     1.594129    19App    1.666156    20App    1.669874  
      21App    1.669951    41Ap     1.831972    42Ap     1.832028  
      22App    1.933532    43Ap     2.127430    23App    2.133632  
      24App    2.133914    25App    2.262541    44Ap     2.264611  
      45Ap     2.264637    46Ap     2.328623    47Ap     2.328684  
      26App    2.409748    27App    2.409853    48Ap     2.438733  
      49Ap     2.556355    50Ap     2.556464    51Ap     2.697544  
      28App    2.703794    29App    2.703825    30App    2.829949  
      52Ap     2.838219    53Ap     2.938699    54Ap     2.938802  
      55Ap     3.192850    31App    3.309572    56Ap     3.385518  
      57Ap     3.385730    32App    3.550629    33App    3.550953  
      58Ap     4.309188    59Ap     4.575955    60Ap     4.576006  

    Final Occupation by Irrep:
             Ap   App 
    DOCC [     9,    3 ]

  @DF-RKS Final Energy:  -117.84096351664451

   => Energetics <=

    Nuclear Repulsion Energy =             75.2814648090140253
    One-Electron Energy =                -305.7658597895823505
    Two-Electron Energy =                 121.5349863622015221
    DFT Exchange-Correlation Energy =      -8.8915548982777182
    Empirical Dispersion Energy =           0.0000000000000000
    VV10 Nonlocal Energy =                  0.0000000000000000
    Total Energy =                       -117.8409635166445071

Computation Completed


Properties will be evaluated at   0.000000,   0.000000,   0.000000 [a0]

Properties computed using the SCF density matrix

  Nuclear Dipole Moment: [e a0]
     X:    -0.0002      Y:    -0.0002      Z:     0.0000

  Electronic Dipole Moment: [e a0]
     X:     0.0003      Y:    -0.0000      Z:     0.0000

  Dipole Moment: [e a0]
     X:     0.0001      Y:    -0.0002      Z:     0.0000     Total:     0.0002

  Dipole Moment: [D]
     X:     0.0003      Y:    -0.0005      Z:     0.0000     Total:     0.0006


*** tstop() called on atlantis at Tue Apr 19 10:06:08 2022
Module time:
	user time   =      10.26 seconds =       0.17 minutes
	system time =       0.12 seconds =       0.00 minutes
	total time  =         10 seconds =       0.17 minutes
Total time:
	user time   =      10.26 seconds =       0.17 minutes
	system time =       0.12 seconds =       0.00 minutes
	total time  =         10 seconds =       0.17 minutes
gradient() will perform analytic gradient computation.

*** tstart() called on atlantis
*** at Tue Apr 19 10:06:08 2022

   => Loading Basis Set <=

    Name: 6-31++G**
    Role: ORBITAL
    Keyword: BASIS
    atoms 1-3 entry C          line   115 file /home/akrom/software/anaconda3/envs/ffpenv/share/psi4/basis/6-31ppgss.gbs 
    atoms 4-9 entry H          line    46 file /home/akrom/software/anaconda3/envs/ffpenv/share/psi4/basis/6-31ppgss.gbs 


         ---------------------------------------------------------
                                   SCF
               by Justin Turney, Rob Parrish, Andy Simmonett
                          and Daniel G. A. Smith
                              RKS Reference
                        1 Threads,    500 MiB Core
         ---------------------------------------------------------

  ==> Geometry <==

    Molecular point group: cs
    Full point group: Cs

    Geometry (in Angstrom), charge = 0, multiplicity = 1:

       Center              X                  Y                   Z               Mass       
    ------------   -----------------  -----------------  -----------------  -----------------
         C            0.321531939855     0.813261460475     0.000000000000    12.000000000000
         C           -0.865048060145    -0.128168539525     0.000000000000    12.000000000000
         C            0.543531939855    -0.685078539525     0.000000000000    12.000000000000
         H            0.537951939855     1.360691460475    -0.920390000000     1.007825032230
         H            0.537951939855     1.360691460475     0.920390000000     1.007825032230
         H           -1.447418060145    -0.214488539525     0.920340000000     1.007825032230
         H           -1.447418060145    -0.214488539525    -0.920340000000     1.007825032230
         H            0.909371939855    -1.146288539525    -0.920370000000     1.007825032230
         H            0.909371939855    -1.146288539525     0.920370000000     1.007825032230

  Running in cs symmetry.

  Rotational constants: A =      0.66472  B =      0.66470  C =      0.41647 [cm^-1]
  Rotational constants: A =  19927.70596  B =  19927.20236  C =  12485.44714 [MHz]
  Nuclear repulsion =   75.281464809014025

  Charge       = 0
  Multiplicity = 1
  Electrons    = 24
  Nalpha       = 12
  Nbeta        = 12

  ==> Algorithm <==

  SCF Algorithm Type is DF.
  DIIS enabled.
  MOM disabled.
  Fractional occupation disabled.
  Guess Type is SAD.
  Energy threshold   = 1.00e-08
  Density threshold  = 1.00e-08
  Integral threshold = 0.00e+00

  ==> Primary Basis <==

  Basis Set: 6-31++G**
    Blend: 6-31++G**
    Number of shells: 48
    Number of basis function: 93
    Number of Cartesian functions: 93
    Spherical Harmonics?: false
    Max angular momentum: 2

  ==> DFT Potential <==

   => Composite Functional: M06-2X <= 

    Hybrid M06-2X Meta-GGA XC Functional

    Y. Zhao and D. G. Truhlar,  Theor. Chem. Acc., 120, 215, 2008


    Deriv               =              1
    GGA                 =           TRUE
    Meta                =           TRUE

    Exchange Hybrid     =           TRUE
    MP2 Hybrid          =          FALSE

   => Exchange Functionals <=

    1.0000   XC_HYB_MGGA_X_M06_2X

   => Exact (HF) Exchange <=

    0.5400               HF 

   => Correlation Functionals <=

    1.0000   XC_MGGA_C_M06_2X

   => Molecular Quadrature <=

    Radial Scheme          =       TREUTLER
    Pruning Scheme         =           FLAT
    Nuclear Scheme         =       TREUTLER

    BS radius alpha        =              1
    Pruning alpha          =              1
    Radial Points          =             75
    Spherical Points       =            302
    Total Points           =         203850
    Total Blocks           =           1576
    Max Points             =            256
    Max Functions          =             93

   => Loading Basis Set <=

    Name: (6-31++G** AUX)
    Role: JKFIT
    Keyword: DF_BASIS_SCF
    atoms 1-3 entry C          line   154 file /home/akrom/software/anaconda3/envs/ffpenv/share/psi4/basis/aug-cc-pvdz-jkfit.gbs 
    atoms 4-9 entry H          line    70 file /home/akrom/software/anaconda3/envs/ffpenv/share/psi4/basis/aug-cc-pvdz-jkfit.gbs 

  ==> Pre-Iterations <==

   -------------------------------------------------------
    Irrep   Nso     Nmo     Nalpha   Nbeta   Ndocc  Nsocc
   -------------------------------------------------------
     A'        60      60       0       0       0       0
     A"        33      33       0       0       0       0
   -------------------------------------------------------
    Total      93      93      12      12      12       0
   -------------------------------------------------------

  ==> Integral Setup <==

  DFHelper Memory: AOs need 0.037 GiB; user supplied 0.037 GiB. Using in-core AOs.

  ==> MemDFJK: Density-Fitted J/K Matrices <==

    J tasked:                   Yes
    K tasked:                   Yes
    wK tasked:                   No
    OpenMP threads:               1
    Memory [MiB]:                37
    Algorithm:                 Core
    Schwarz Cutoff:           1E-12
    Mask sparsity (%):       0.0000
    Fitting Condition:        1E-10

   => Auxiliary Basis Set <=

  Basis Set: (6-31++G** AUX)
    Blend: AUG-CC-PVDZ-JKFIT
    Number of shells: 156
    Number of basis function: 513
    Number of Cartesian functions: 513
    Spherical Harmonics?: false
    Max angular momentum: 3

  Cached 33.4% of DFT collocation blocks in 0.407 [GiB].

  Minimum eigenvalue in the overlap matrix is 1.8844418511E-04.
  Using Symmetric Orthogonalization.

  SCF Guess: Superposition of Atomic Densities via on-the-fly atomic UHF.

  ==> Iterations <==

                           Total Energy        Delta E     RMS |[F,P]|

   @DF-RKS iter SAD:  -117.39249583419912   -1.17392e+02   0.00000e+00 
   @DF-RKS iter   1:  -117.54679434735117   -1.54299e-01   1.07462e-02 DIIS
   @DF-RKS iter   2:  -117.55289298898019   -6.09864e-03   1.06733e-02 DIIS
   @DF-RKS iter   3:  -117.84031720509432   -2.87424e-01   4.91821e-04 DIIS
   @DF-RKS iter   4:  -117.84094587177086   -6.28667e-04   6.33800e-05 DIIS
   @DF-RKS iter   5:  -117.84096283327908   -1.69615e-05   1.24190e-05 DIIS
   @DF-RKS iter   6:  -117.84096349493295   -6.61654e-07   1.48694e-06 DIIS
   @DF-RKS iter   7:  -117.84096351667733   -2.17444e-08   1.78353e-07 DIIS
   @DF-RKS iter   8:  -117.84096351685882   -1.81487e-10   1.09355e-07 DIIS
   @DF-RKS iter   9:  -117.84096351688713   -2.83080e-11   1.50222e-08 DIIS
   @DF-RKS iter  10:  -117.84096351688794   -8.10019e-13   6.20248e-10 DIIS
  Energy and wave function converged.


  ==> Post-Iterations <==

    Orbital Energies [Eh]
    ---------------------

    Doubly Occupied:                                                      

       1Ap   -10.549327     2Ap   -10.548753     3Ap   -10.548746  
       4Ap    -0.944105     5Ap    -0.678173     6Ap    -0.678157  
       1App   -0.564698     7Ap    -0.527768     2App   -0.423976  
       3App   -0.423950     8Ap    -0.348779     9Ap    -0.348749  

    Virtual:                                                              

      10Ap     0.005198     4App    0.018394    11Ap     0.020978  
      12Ap     0.020979     5App    0.056761     6App    0.056765  
      13Ap     0.079847    14Ap     0.091361    15Ap     0.091363  
      16Ap     0.116567    17Ap     0.131398    18Ap     0.131404  
       7App    0.157159    19Ap     0.171648     8App    0.178638  
       9App    0.178647    20Ap     0.179271    21Ap     0.179273  
      22Ap     0.226415    10App    0.226463    23Ap     0.271105  
      24Ap     0.326938    25Ap     0.326966    11App    0.340046  
      12App    0.340070    26Ap     0.390401    27Ap     0.390416  
      28Ap     0.638870    29Ap     0.715894    30Ap     0.715928  
      13App    0.773262    31Ap     0.806908    32Ap     0.806918  
      33Ap     0.817911    14App    0.848442    15App    0.848476  
      16App    0.968080    34Ap     0.979036    35Ap     1.055548  
      17App    1.101261    18App    1.101387    36Ap     1.129082  
      37Ap     1.129214    38Ap     1.322120    39Ap     1.322131  
      40Ap     1.594129    19App    1.666156    20App    1.669874  
      21App    1.669952    41Ap     1.831972    42Ap     1.832027  
      22App    1.933532    43Ap     2.127430    23App    2.133631  
      24App    2.133914    25App    2.262541    44Ap     2.264611  
      45Ap     2.264638    46Ap     2.328623    47Ap     2.328684  
      26App    2.409748    27App    2.409853    48Ap     2.438733  
      49Ap     2.556355    50Ap     2.556464    51Ap     2.697544  
      28App    2.703794    29App    2.703825    30App    2.829950  
      52Ap     2.838219    53Ap     2.938700    54Ap     2.938802  
      55Ap     3.192850    31App    3.309571    56Ap     3.385517  
      57Ap     3.385731    32App    3.550629    33App    3.550953  
      58Ap     4.309188    59Ap     4.575956    60Ap     4.576006  

    Final Occupation by Irrep:
             Ap   App 
    DOCC [     9,    3 ]

  @DF-RKS Final Energy:  -117.84096351688794

   => Energetics <=

    Nuclear Repulsion Energy =             75.2814648090140253
    One-Electron Energy =                -305.7658323513978758
    Two-Electron Energy =                 121.5349579036107599
    DFT Exchange-Correlation Energy =      -8.8915538781148591
    Empirical Dispersion Energy =           0.0000000000000000
    VV10 Nonlocal Energy =                  0.0000000000000000
    Total Energy =                       -117.8409635168879390

Computation Completed


Properties will be evaluated at   0.000000,   0.000000,   0.000000 [a0]

Properties computed using the SCF density matrix

  Nuclear Dipole Moment: [e a0]
     X:    -0.0002      Y:    -0.0002      Z:     0.0000

  Electronic Dipole Moment: [e a0]
     X:     0.0003      Y:    -0.0000      Z:     0.0000

  Dipole Moment: [e a0]
     X:     0.0001      Y:    -0.0002      Z:     0.0000     Total:     0.0002

  Dipole Moment: [D]
     X:     0.0003      Y:    -0.0005      Z:     0.0000     Total:     0.0006


*** tstop() called on atlantis at Tue Apr 19 10:06:22 2022
Module time:
	user time   =      13.70 seconds =       0.23 minutes
	system time =       0.07 seconds =       0.00 minutes
	total time  =         14 seconds =       0.23 minutes
Total time:
	user time   =      23.97 seconds =       0.40 minutes
	system time =       0.19 seconds =       0.00 minutes
	total time  =         24 seconds =       0.40 minutes

*** tstart() called on atlantis
*** at Tue Apr 19 10:06:22 2022


         ------------------------------------------------------------
                                   SCF GRAD                          
                          Rob Parrish, Justin Turney,                
                       Andy Simmonett, and Alex Sokolov              
         ------------------------------------------------------------

  ==> Geometry <==

    Molecular point group: cs
    Full point group: Cs

    Geometry (in Angstrom), charge = 0, multiplicity = 1:

       Center              X                  Y                   Z               Mass       
    ------------   -----------------  -----------------  -----------------  -----------------
         C            0.321531939855     0.813261460475     0.000000000000    12.000000000000
         C           -0.865048060145    -0.128168539525     0.000000000000    12.000000000000
         C            0.543531939855    -0.685078539525     0.000000000000    12.000000000000
         H            0.537951939855     1.360691460475    -0.920390000000     1.007825032230
         H            0.537951939855     1.360691460475     0.920390000000     1.007825032230
         H           -1.447418060145    -0.214488539525     0.920340000000     1.007825032230
         H           -1.447418060145    -0.214488539525    -0.920340000000     1.007825032230
         H            0.909371939855    -1.146288539525    -0.920370000000     1.007825032230
         H            0.909371939855    -1.146288539525     0.920370000000     1.007825032230

  Nuclear repulsion =   75.281464809014025

  ==> Basis Set <==

  Basis Set: 6-31++G**
    Blend: 6-31++G**
    Number of shells: 48
    Number of basis function: 93
    Number of Cartesian functions: 93
    Spherical Harmonics?: false
    Max angular momentum: 2

  ==> DFJKGrad: Density-Fitted SCF Gradients <==

    Gradient:                    1
    J tasked:                  Yes
    K tasked:                  Yes
    wK tasked:                  No
    OpenMP threads:              1
    Integrals threads:           1
    Memory [MiB]:              375
    Schwarz Cutoff:          0E+00
    Fitting Condition:       1E-10

   => Auxiliary Basis Set <=

  Basis Set: (6-31++G** AUX)
    Blend: AUG-CC-PVDZ-JKFIT
    Number of shells: 156
    Number of basis function: 513
    Number of Cartesian functions: 513
    Spherical Harmonics?: false
    Max angular momentum: 3

  ==> DFT Potential <==

   => Composite Functional: M06-2X <= 

    Hybrid M06-2X Meta-GGA XC Functional

    Y. Zhao and D. G. Truhlar,  Theor. Chem. Acc., 120, 215, 2008


    Deriv               =              1
    GGA                 =           TRUE
    Meta                =           TRUE

    Exchange Hybrid     =           TRUE
    MP2 Hybrid          =          FALSE

   => Exchange Functionals <=

    1.0000   XC_HYB_MGGA_X_M06_2X

   => Exact (HF) Exchange <=

    0.5400               HF 

   => Correlation Functionals <=

    1.0000   XC_MGGA_C_M06_2X

   => Molecular Quadrature <=

    Radial Scheme          =       TREUTLER
    Pruning Scheme         =           FLAT
    Nuclear Scheme         =       TREUTLER

    BS radius alpha        =              1
    Pruning alpha          =              1
    Radial Points          =             75
    Spherical Points       =            302
    Total Points           =         203850
    Total Blocks           =           1576
    Max Points             =            256
    Max Functions          =             93


  -Total Gradient:
     Atom            X                  Y                   Z
    ------   -----------------  -----------------  -----------------
       1        0.001672702398     0.004183368284     0.000000000000
       2       -0.004415348536    -0.000630440827     0.000000000000
       3        0.002824045611    -0.003551282800     0.000000000000
       4        0.001110207686     0.002783919734    -0.004936062828
       5        0.001110207686     0.002783919734     0.004936062828
       6       -0.002965855997    -0.000438278555     0.004926872660
       7       -0.002965855997    -0.000438278555    -0.004926872660
       8        0.001894264689    -0.002379203394    -0.004921416019
       9        0.001894264689    -0.002379203394     0.004921416019


*** tstop() called on atlantis at Tue Apr 19 10:06:24 2022
Module time:
	user time   =       2.20 seconds =       0.04 minutes
	system time =       0.00 seconds =       0.00 minutes
	total time  =          2 seconds =       0.03 minutes
Total time:
	user time   =      26.17 seconds =       0.44 minutes
	system time =       0.19 seconds =       0.00 minutes
	total time  =         26 seconds =       0.43 minutes

  Based on options and gradient (rms=3.11E-03), recommend projecting translations and projecting rotations.
hessian() will perform frequency computation by finite difference of analytic gradients.

         ----------------------------------------------------------
                                   FINDIF
                     R. A. King and Jonathon Misiewicz
         ---------------------------------------------------------

  Using finite-differences of gradients to determine vibrational frequencies and 
  normal modes.  Resulting frequencies are only valid at stationary points.
    Generating geometries for use with 3-point formula.
    Displacement size will be 5.00e-03.
    Number of atoms is 9.
    Number of irreps is 2.
    Number of SALCs is 21.
    Translations projected? 1. Rotations projected? 1.
    Index of SALCs per irrep:
     1 :  0  1  2  3  4  5  6  7  8  9  10  11 
     2 :  12  13  14  15  16  17  18  19  20 
    Number of SALCs per irrep:
     Irrep 1: 12
     Irrep 2: 9
    Number of geometries (including reference) is 34.
    Number of displacements per irrep:
      Irrep 1: 24
      Irrep 2: 9

  //>>>>>>>>>>>>>>>>>>>>>>>>>>>>>>>>>>>//
  //    Loading displacement 1 of 34   //
  //<<<<<<<<<<<<<<<<<<<<<<<<<<<<<<<<<<<//
gradient() will perform analytic gradient computation.

*** tstart() called on atlantis
*** at Tue Apr 19 10:06:25 2022

   => Loading Basis Set <=

    Name: 6-31++G**
    Role: ORBITAL
    Keyword: BASIS
    atoms 1-3 entry C          line   115 file /home/akrom/software/anaconda3/envs/ffpenv/share/psi4/basis/6-31ppgss.gbs 
    atoms 4-9 entry H          line    46 file /home/akrom/software/anaconda3/envs/ffpenv/share/psi4/basis/6-31ppgss.gbs 


         ---------------------------------------------------------
                                   SCF
               by Justin Turney, Rob Parrish, Andy Simmonett
                          and Daniel G. A. Smith
                              RKS Reference
                        1 Threads,    500 MiB Core
         ---------------------------------------------------------

  ==> Geometry <==

    Molecular point group: cs
    Full point group: Cs

    Geometry (in Angstrom), charge = 0, multiplicity = 1:

       Center              X                  Y                   Z               Mass       
    ------------   -----------------  -----------------  -----------------  -----------------
         C            0.321531939855     0.813261460475     0.000000000000    12.000000000000
         C           -0.865048060145    -0.128168539525     0.000000000000    12.000000000000
         C            0.543531939855    -0.685078539525     0.000000000000    12.000000000000
         H            0.537951939855     1.360691460475    -0.920390000000     1.007825032230
         H            0.537951939855     1.360691460475     0.920390000000     1.007825032230
         H           -1.447418060145    -0.214488539525     0.920340000000     1.007825032230
         H           -1.447418060145    -0.214488539525    -0.920340000000     1.007825032230
         H            0.909371939855    -1.146288539525    -0.920370000000     1.007825032230
         H            0.909371939855    -1.146288539525     0.920370000000     1.007825032230

  Running in cs symmetry.

  Rotational constants: A =      0.66472  B =      0.66470  C =      0.41647 [cm^-1]
  Rotational constants: A =  19927.70596  B =  19927.20236  C =  12485.44714 [MHz]
  Nuclear repulsion =   75.281464809014025

  Charge       = 0
  Multiplicity = 1
  Electrons    = 24
  Nalpha       = 12
  Nbeta        = 12

  ==> Algorithm <==

  SCF Algorithm Type is DF.
  DIIS enabled.
  MOM disabled.
  Fractional occupation disabled.
  Guess Type is SAD.
  Energy threshold   = 1.00e-08
  Density threshold  = 1.00e-08
  Integral threshold = 0.00e+00

  ==> Primary Basis <==

  Basis Set: 6-31++G**
    Blend: 6-31++G**
    Number of shells: 48
    Number of basis function: 93
    Number of Cartesian functions: 93
    Spherical Harmonics?: false
    Max angular momentum: 2

  ==> DFT Potential <==

   => Composite Functional: M06-2X <= 

    Hybrid M06-2X Meta-GGA XC Functional

    Y. Zhao and D. G. Truhlar,  Theor. Chem. Acc., 120, 215, 2008


    Deriv               =              1
    GGA                 =           TRUE
    Meta                =           TRUE

    Exchange Hybrid     =           TRUE
    MP2 Hybrid          =          FALSE

   => Exchange Functionals <=

    1.0000   XC_HYB_MGGA_X_M06_2X

   => Exact (HF) Exchange <=

    0.5400               HF 

   => Correlation Functionals <=

    1.0000   XC_MGGA_C_M06_2X

   => Molecular Quadrature <=

    Radial Scheme          =       TREUTLER
    Pruning Scheme         =           FLAT
    Nuclear Scheme         =       TREUTLER

    BS radius alpha        =              1
    Pruning alpha          =              1
    Radial Points          =             75
    Spherical Points       =            302
    Total Points           =         203850
    Total Blocks           =           1576
    Max Points             =            256
    Max Functions          =             93

   => Loading Basis Set <=

    Name: (6-31++G** AUX)
    Role: JKFIT
    Keyword: DF_BASIS_SCF
    atoms 1-3 entry C          line   154 file /home/akrom/software/anaconda3/envs/ffpenv/share/psi4/basis/aug-cc-pvdz-jkfit.gbs 
    atoms 4-9 entry H          line    70 file /home/akrom/software/anaconda3/envs/ffpenv/share/psi4/basis/aug-cc-pvdz-jkfit.gbs 

  ==> Pre-Iterations <==

   -------------------------------------------------------
    Irrep   Nso     Nmo     Nalpha   Nbeta   Ndocc  Nsocc
   -------------------------------------------------------
     A'        60      60       0       0       0       0
     A"        33      33       0       0       0       0
   -------------------------------------------------------
    Total      93      93      12      12      12       0
   -------------------------------------------------------

  ==> Integral Setup <==

  DFHelper Memory: AOs need 0.037 GiB; user supplied 0.037 GiB. Using in-core AOs.

  ==> MemDFJK: Density-Fitted J/K Matrices <==

    J tasked:                   Yes
    K tasked:                   Yes
    wK tasked:                   No
    OpenMP threads:               1
    Memory [MiB]:                37
    Algorithm:                 Core
    Schwarz Cutoff:           1E-12
    Mask sparsity (%):       0.0000
    Fitting Condition:        1E-10

   => Auxiliary Basis Set <=

  Basis Set: (6-31++G** AUX)
    Blend: AUG-CC-PVDZ-JKFIT
    Number of shells: 156
    Number of basis function: 513
    Number of Cartesian functions: 513
    Spherical Harmonics?: false
    Max angular momentum: 3

  Cached 33.4% of DFT collocation blocks in 0.407 [GiB].

  Minimum eigenvalue in the overlap matrix is 1.8844418511E-04.
  Using Symmetric Orthogonalization.

  SCF Guess: Superposition of Atomic Densities via on-the-fly atomic UHF.

  ==> Iterations <==

                           Total Energy        Delta E     RMS |[F,P]|

   @DF-RKS iter SAD:  -117.39249583419921   -1.17392e+02   0.00000e+00 
   @DF-RKS iter   1:  -117.54679434735159   -1.54299e-01   1.07462e-02 DIIS
   @DF-RKS iter   2:  -117.55289298898130   -6.09864e-03   1.06733e-02 DIIS
   @DF-RKS iter   3:  -117.84031720509435   -2.87424e-01   4.91821e-04 DIIS
   @DF-RKS iter   4:  -117.84094587177077   -6.28667e-04   6.33800e-05 DIIS
   @DF-RKS iter   5:  -117.84096283327943   -1.69615e-05   1.24190e-05 DIIS
   @DF-RKS iter   6:  -117.84096349493258   -6.61653e-07   1.48694e-06 DIIS
   @DF-RKS iter   7:  -117.84096351667741   -2.17448e-08   1.78353e-07 DIIS
   @DF-RKS iter   8:  -117.84096351685852   -1.81117e-10   1.09355e-07 DIIS
   @DF-RKS iter   9:  -117.84096351688723   -2.87059e-11   1.50222e-08 DIIS
   @DF-RKS iter  10:  -117.84096351688760   -3.69482e-13   6.20248e-10 DIIS
  Energy and wave function converged.


  ==> Post-Iterations <==

    Orbital Energies [Eh]
    ---------------------

    Doubly Occupied:                                                      

       1Ap   -10.549327     2Ap   -10.548753     3Ap   -10.548746  
       4Ap    -0.944105     5Ap    -0.678173     6Ap    -0.678157  
       1App   -0.564698     7Ap    -0.527768     2App   -0.423976  
       3App   -0.423950     8Ap    -0.348779     9Ap    -0.348749  

    Virtual:                                                              

      10Ap     0.005198     4App    0.018394    11Ap     0.020978  
      12Ap     0.020979     5App    0.056761     6App    0.056765  
      13Ap     0.079847    14Ap     0.091361    15Ap     0.091363  
      16Ap     0.116567    17Ap     0.131398    18Ap     0.131404  
       7App    0.157159    19Ap     0.171648     8App    0.178638  
       9App    0.178647    20Ap     0.179271    21Ap     0.179273  
      22Ap     0.226415    10App    0.226463    23Ap     0.271105  
      24Ap     0.326938    25Ap     0.326966    11App    0.340046  
      12App    0.340070    26Ap     0.390401    27Ap     0.390416  
      28Ap     0.638870    29Ap     0.715894    30Ap     0.715928  
      13App    0.773262    31Ap     0.806908    32Ap     0.806918  
      33Ap     0.817911    14App    0.848442    15App    0.848476  
      16App    0.968080    34Ap     0.979036    35Ap     1.055548  
      17App    1.101261    18App    1.101387    36Ap     1.129082  
      37Ap     1.129214    38Ap     1.322120    39Ap     1.322131  
      40Ap     1.594129    19App    1.666156    20App    1.669874  
      21App    1.669952    41Ap     1.831972    42Ap     1.832027  
      22App    1.933532    43Ap     2.127430    23App    2.133631  
      24App    2.133914    25App    2.262541    44Ap     2.264611  
      45Ap     2.264638    46Ap     2.328623    47Ap     2.328684  
      26App    2.409748    27App    2.409853    48Ap     2.438733  
      49Ap     2.556355    50Ap     2.556464    51Ap     2.697544  
      28App    2.703794    29App    2.703825    30App    2.829950  
      52Ap     2.838219    53Ap     2.938700    54Ap     2.938802  
      55Ap     3.192850    31App    3.309571    56Ap     3.385517  
      57Ap     3.385731    32App    3.550629    33App    3.550953  
      58Ap     4.309188    59Ap     4.575956    60Ap     4.576006  

    Final Occupation by Irrep:
             Ap   App 
    DOCC [     9,    3 ]

  @DF-RKS Final Energy:  -117.84096351688760

   => Energetics <=

    Nuclear Repulsion Energy =             75.2814648090140253
    One-Electron Energy =                -305.7658323514010021
    Two-Electron Energy =                 121.5349579036143837
    DFT Exchange-Correlation Energy =      -8.8915538781150119
    Empirical Dispersion Energy =           0.0000000000000000
    VV10 Nonlocal Energy =                  0.0000000000000000
    Total Energy =                       -117.8409635168875980

Computation Completed


Properties will be evaluated at   0.000000,   0.000000,   0.000000 [a0]

Properties computed using the SCF density matrix

  Nuclear Dipole Moment: [e a0]
     X:    -0.0002      Y:    -0.0002      Z:     0.0000

  Electronic Dipole Moment: [e a0]
     X:     0.0003      Y:    -0.0000      Z:     0.0000

  Dipole Moment: [e a0]
     X:     0.0001      Y:    -0.0002      Z:     0.0000     Total:     0.0002

  Dipole Moment: [D]
     X:     0.0003      Y:    -0.0005      Z:     0.0000     Total:     0.0006


*** tstop() called on atlantis at Tue Apr 19 10:06:38 2022
Module time:
	user time   =      13.75 seconds =       0.23 minutes
	system time =       0.02 seconds =       0.00 minutes
	total time  =         13 seconds =       0.22 minutes
Total time:
	user time   =      40.21 seconds =       0.67 minutes
	system time =       0.22 seconds =       0.00 minutes
	total time  =         40 seconds =       0.67 minutes

*** tstart() called on atlantis
*** at Tue Apr 19 10:06:38 2022


         ------------------------------------------------------------
                                   SCF GRAD                          
                          Rob Parrish, Justin Turney,                
                       Andy Simmonett, and Alex Sokolov              
         ------------------------------------------------------------

  ==> Geometry <==

    Molecular point group: cs
    Full point group: Cs

    Geometry (in Angstrom), charge = 0, multiplicity = 1:

       Center              X                  Y                   Z               Mass       
    ------------   -----------------  -----------------  -----------------  -----------------
         C            0.321531939855     0.813261460475     0.000000000000    12.000000000000
         C           -0.865048060145    -0.128168539525     0.000000000000    12.000000000000
         C            0.543531939855    -0.685078539525     0.000000000000    12.000000000000
         H            0.537951939855     1.360691460475    -0.920390000000     1.007825032230
         H            0.537951939855     1.360691460475     0.920390000000     1.007825032230
         H           -1.447418060145    -0.214488539525     0.920340000000     1.007825032230
         H           -1.447418060145    -0.214488539525    -0.920340000000     1.007825032230
         H            0.909371939855    -1.146288539525    -0.920370000000     1.007825032230
         H            0.909371939855    -1.146288539525     0.920370000000     1.007825032230

  Nuclear repulsion =   75.281464809014025

  ==> Basis Set <==

  Basis Set: 6-31++G**
    Blend: 6-31++G**
    Number of shells: 48
    Number of basis function: 93
    Number of Cartesian functions: 93
    Spherical Harmonics?: false
    Max angular momentum: 2

  ==> DFJKGrad: Density-Fitted SCF Gradients <==

    Gradient:                    1
    J tasked:                  Yes
    K tasked:                  Yes
    wK tasked:                  No
    OpenMP threads:              1
    Integrals threads:           1
    Memory [MiB]:              375
    Schwarz Cutoff:          0E+00
    Fitting Condition:       1E-10

   => Auxiliary Basis Set <=

  Basis Set: (6-31++G** AUX)
    Blend: AUG-CC-PVDZ-JKFIT
    Number of shells: 156
    Number of basis function: 513
    Number of Cartesian functions: 513
    Spherical Harmonics?: false
    Max angular momentum: 3

  ==> DFT Potential <==

   => Composite Functional: M06-2X <= 

    Hybrid M06-2X Meta-GGA XC Functional

    Y. Zhao and D. G. Truhlar,  Theor. Chem. Acc., 120, 215, 2008


    Deriv               =              1
    GGA                 =           TRUE
    Meta                =           TRUE

    Exchange Hybrid     =           TRUE
    MP2 Hybrid          =          FALSE

   => Exchange Functionals <=

    1.0000   XC_HYB_MGGA_X_M06_2X

   => Exact (HF) Exchange <=

    0.5400               HF 

   => Correlation Functionals <=

    1.0000   XC_MGGA_C_M06_2X

   => Molecular Quadrature <=

    Radial Scheme          =       TREUTLER
    Pruning Scheme         =           FLAT
    Nuclear Scheme         =       TREUTLER

    BS radius alpha        =              1
    Pruning alpha          =              1
    Radial Points          =             75
    Spherical Points       =            302
    Total Points           =         203850
    Total Blocks           =           1576
    Max Points             =            256
    Max Functions          =             93


  -Total Gradient:
     Atom            X                  Y                   Z
    ------   -----------------  -----------------  -----------------
       1        0.001672725654     0.004183384892     0.000000000000
       2       -0.004415370052    -0.000630413362     0.000000000000
       3        0.002824116124    -0.003551286555     0.000000000000
       4        0.001110202812     0.002783899771    -0.004936029238
       5        0.001110202812     0.002783899771     0.004936029238
       6       -0.002965870621    -0.000438289479     0.004926866388
       7       -0.002965870621    -0.000438289479    -0.004926866388
       8        0.001894248059    -0.002379192666    -0.004921384460
       9        0.001894248059    -0.002379192666     0.004921384460


*** tstop() called on atlantis at Tue Apr 19 10:06:41 2022
Module time:
	user time   =       2.18 seconds =       0.04 minutes
	system time =       0.01 seconds =       0.00 minutes
	total time  =          3 seconds =       0.05 minutes
Total time:
	user time   =      42.39 seconds =       0.71 minutes
	system time =       0.23 seconds =       0.00 minutes
	total time  =         43 seconds =       0.72 minutes

  //>>>>>>>>>>>>>>>>>>>>>>>>>>>>>>>>>>>//
  //    Loading displacement 2 of 34   //
  //<<<<<<<<<<<<<<<<<<<<<<<<<<<<<<<<<<<//
gradient() will perform analytic gradient computation.

*** tstart() called on atlantis
*** at Tue Apr 19 10:06:41 2022

   => Loading Basis Set <=

    Name: 6-31++G**
    Role: ORBITAL
    Keyword: BASIS
    atoms 1-3 entry C          line   115 file /home/akrom/software/anaconda3/envs/ffpenv/share/psi4/basis/6-31ppgss.gbs 
    atoms 4-9 entry H          line    46 file /home/akrom/software/anaconda3/envs/ffpenv/share/psi4/basis/6-31ppgss.gbs 


         ---------------------------------------------------------
                                   SCF
               by Justin Turney, Rob Parrish, Andy Simmonett
                          and Daniel G. A. Smith
                              RKS Reference
                        1 Threads,    500 MiB Core
         ---------------------------------------------------------

  ==> Geometry <==

    Molecular point group: cs
    Full point group: Cs

    Geometry (in Angstrom), charge = 0, multiplicity = 1:

       Center              X                  Y                   Z               Mass       
    ------------   -----------------  -----------------  -----------------  -----------------
         C            0.320981935461     0.813179232929     0.000000000000    12.000000000000
         C           -0.864778117207    -0.127947314912     0.000000000000    12.000000000000
         C            0.543659460418    -0.685217540638     0.000000000000    12.000000000000
         H            0.538602639069     1.360553886373    -0.920390000000     1.007825032230
         H            0.538602639069     1.360553886373     0.920390000000     1.007825032230
         H           -1.447170192407    -0.214118381478     0.920340000000     1.007825032230
         H           -1.447170192407    -0.214118381478    -0.920340000000     1.007825032230
         H            0.909381512053    -1.146521099385    -0.920370000000     1.007825032230
         H            0.909381512053    -1.146521099385     0.920370000000     1.007825032230

  Running in cs symmetry.

  Rotational constants: A =      0.66511  B =      0.66452  C =      0.41655 [cm^-1]
  Rotational constants: A =  19939.46144  B =  19921.88173  C =  12487.97026 [MHz]
  Nuclear repulsion =   75.286659304380962

  Charge       = 0
  Multiplicity = 1
  Electrons    = 24
  Nalpha       = 12
  Nbeta        = 12

  ==> Algorithm <==

  SCF Algorithm Type is DF.
  DIIS enabled.
  MOM disabled.
  Fractional occupation disabled.
  Guess Type is SAD.
  Energy threshold   = 1.00e-08
  Density threshold  = 1.00e-08
  Integral threshold = 0.00e+00

  ==> Primary Basis <==

  Basis Set: 6-31++G**
    Blend: 6-31++G**
    Number of shells: 48
    Number of basis function: 93
    Number of Cartesian functions: 93
    Spherical Harmonics?: false
    Max angular momentum: 2

  ==> DFT Potential <==

   => Composite Functional: M06-2X <= 

    Hybrid M06-2X Meta-GGA XC Functional

    Y. Zhao and D. G. Truhlar,  Theor. Chem. Acc., 120, 215, 2008


    Deriv               =              1
    GGA                 =           TRUE
    Meta                =           TRUE

    Exchange Hybrid     =           TRUE
    MP2 Hybrid          =          FALSE

   => Exchange Functionals <=

    1.0000   XC_HYB_MGGA_X_M06_2X

   => Exact (HF) Exchange <=

    0.5400               HF 

   => Correlation Functionals <=

    1.0000   XC_MGGA_C_M06_2X

   => Molecular Quadrature <=

    Radial Scheme          =       TREUTLER
    Pruning Scheme         =           FLAT
    Nuclear Scheme         =       TREUTLER

    BS radius alpha        =              1
    Pruning alpha          =              1
    Radial Points          =             75
    Spherical Points       =            302
    Total Points           =         203850
    Total Blocks           =           1568
    Max Points             =            256
    Max Functions          =             93

   => Loading Basis Set <=

    Name: (6-31++G** AUX)
    Role: JKFIT
    Keyword: DF_BASIS_SCF
    atoms 1-3 entry C          line   154 file /home/akrom/software/anaconda3/envs/ffpenv/share/psi4/basis/aug-cc-pvdz-jkfit.gbs 
    atoms 4-9 entry H          line    70 file /home/akrom/software/anaconda3/envs/ffpenv/share/psi4/basis/aug-cc-pvdz-jkfit.gbs 

  ==> Pre-Iterations <==

   -------------------------------------------------------
    Irrep   Nso     Nmo     Nalpha   Nbeta   Ndocc  Nsocc
   -------------------------------------------------------
     A'        60      60       0       0       0       0
     A"        33      33       0       0       0       0
   -------------------------------------------------------
    Total      93      93      12      12      12       0
   -------------------------------------------------------

  ==> Integral Setup <==

  DFHelper Memory: AOs need 0.037 GiB; user supplied 0.037 GiB. Using in-core AOs.

  ==> MemDFJK: Density-Fitted J/K Matrices <==

    J tasked:                   Yes
    K tasked:                   Yes
    wK tasked:                   No
    OpenMP threads:               1
    Memory [MiB]:                37
    Algorithm:                 Core
    Schwarz Cutoff:           1E-12
    Mask sparsity (%):       0.0000
    Fitting Condition:        1E-10

   => Auxiliary Basis Set <=

  Basis Set: (6-31++G** AUX)
    Blend: AUG-CC-PVDZ-JKFIT
    Number of shells: 156
    Number of basis function: 513
    Number of Cartesian functions: 513
    Spherical Harmonics?: false
    Max angular momentum: 3

  Cached 33.4% of DFT collocation blocks in 0.399 [GiB].

  Minimum eigenvalue in the overlap matrix is 1.8798543955E-04.
  Using Symmetric Orthogonalization.

  SCF Guess: Superposition of Atomic Densities via on-the-fly atomic UHF.

  ==> Iterations <==

                           Total Energy        Delta E     RMS |[F,P]|

   @DF-RKS iter SAD:  -117.39301687818102   -1.17393e+02   0.00000e+00 
   @DF-RKS iter   1:  -117.54664616664756   -1.53629e-01   1.07496e-02 DIIS
   @DF-RKS iter   2:  -117.55261467530195   -5.96851e-03   1.06789e-02 DIIS
   @DF-RKS iter   3:  -117.84032986722897   -2.87715e-01   4.92003e-04 DIIS
   @DF-RKS iter   4:  -117.84095903338562   -6.29166e-04   6.34067e-05 DIIS
   @DF-RKS iter   5:  -117.84097600557236   -1.69722e-05   1.24296e-05 DIIS
   @DF-RKS iter   6:  -117.84097666791942   -6.62347e-07   1.53064e-06 DIIS
   @DF-RKS iter   7:  -117.84097668948326   -2.15638e-08   4.92595e-07 DIIS
   @DF-RKS iter   8:  -117.84097669006111   -5.77856e-10   2.11026e-07 DIIS
   @DF-RKS iter   9:  -117.84097669018433   -1.23222e-10   1.10322e-08 DIIS
   @DF-RKS iter  10:  -117.84097669018513   -7.95808e-13   7.22226e-10 DIIS
  Energy and wave function converged.


  ==> Post-Iterations <==

    Orbital Energies [Eh]
    ---------------------

    Doubly Occupied:                                                      

       1Ap   -10.549314     2Ap   -10.548743     3Ap   -10.548728  
       4Ap    -0.944213     5Ap    -0.678194     6Ap    -0.678103  
       1App   -0.564707     7Ap    -0.527832     2App   -0.423966  
       3App   -0.423850     8Ap    -0.348993     9Ap    -0.348595  

    Virtual:                                                              

      10Ap     0.005197     4App    0.018389    11Ap     0.020977  
      12Ap     0.020980     5App    0.056757     6App    0.056774  
      13Ap     0.079848    14Ap     0.091332    15Ap     0.091385  
      16Ap     0.116587    17Ap     0.131398    18Ap     0.131412  
       7App    0.157136    19Ap     0.171647     8App    0.178598  
       9App    0.178681    20Ap     0.179271    21Ap     0.179277  
      10App    0.226421    22Ap     0.226490    23Ap     0.271106  
      24Ap     0.326903    25Ap     0.327103    11App    0.339890  
      12App    0.340195    26Ap     0.390387    27Ap     0.390568  
      28Ap     0.638800    29Ap     0.715787    30Ap     0.715975  
      13App    0.773320    31Ap     0.806871    32Ap     0.807127  
      33Ap     0.817951    14App    0.848327    15App    0.848584  
      16App    0.967967    34Ap     0.979046    35Ap     1.055590  
      17App    1.101057    18App    1.101528    36Ap     1.129124  
      37Ap     1.129288    38Ap     1.322210    39Ap     1.322231  
      40Ap     1.594127    19App    1.666250    20App    1.669906  
      21App    1.669985    41Ap     1.832116    42Ap     1.832314  
      22App    1.933436    43Ap     2.127649    23App    2.133723  
      24App    2.133845    25App    2.262609    44Ap     2.264487  
      45Ap     2.265035    46Ap     2.328635    47Ap     2.328816  
      26App    2.409457    27App    2.410060    48Ap     2.438818  
      49Ap     2.556402    50Ap     2.556552    51Ap     2.697454  
      28App    2.703655    29App    2.703857    30App    2.829878  
      52Ap     2.838399    53Ap     2.938486    54Ap     2.939060  
      55Ap     3.192595    31App    3.309514    56Ap     3.385044  
      57Ap     3.385651    32App    3.550673    33App    3.551531  
      58Ap     4.309301    59Ap     4.576092    60Ap     4.576142  

    Final Occupation by Irrep:
             Ap   App 
    DOCC [     9,    3 ]

  @DF-RKS Final Energy:  -117.84097669018513

   => Energetics <=

    Nuclear Repulsion Energy =             75.2866593043809615
    One-Electron Energy =                -305.7761090620544451
    Two-Electron Energy =                 121.5400822972072490
    DFT Exchange-Correlation Energy =      -8.8916092297189113
    Empirical Dispersion Energy =           0.0000000000000000
    VV10 Nonlocal Energy =                  0.0000000000000000
    Total Energy =                       -117.8409766901851299

Computation Completed


Properties will be evaluated at   0.000000,   0.000000,   0.000000 [a0]

Properties computed using the SCF density matrix

  Nuclear Dipole Moment: [e a0]
     X:     0.0015      Y:    -0.0002      Z:     0.0000

  Electronic Dipole Moment: [e a0]
     X:    -0.0016      Y:     0.0003      Z:     0.0000

  Dipole Moment: [e a0]
     X:    -0.0001      Y:     0.0001      Z:     0.0000     Total:     0.0002

  Dipole Moment: [D]
     X:    -0.0002      Y:     0.0004      Z:     0.0000     Total:     0.0004


*** tstop() called on atlantis at Tue Apr 19 10:06:54 2022
Module time:
	user time   =      13.68 seconds =       0.23 minutes
	system time =       0.04 seconds =       0.00 minutes
	total time  =         13 seconds =       0.22 minutes
Total time:
	user time   =      56.07 seconds =       0.93 minutes
	system time =       0.27 seconds =       0.00 minutes
	total time  =         56 seconds =       0.93 minutes

*** tstart() called on atlantis
*** at Tue Apr 19 10:06:54 2022


         ------------------------------------------------------------
                                   SCF GRAD                          
                          Rob Parrish, Justin Turney,                
                       Andy Simmonett, and Alex Sokolov              
         ------------------------------------------------------------

  ==> Geometry <==

    Molecular point group: cs
    Full point group: Cs

    Geometry (in Angstrom), charge = 0, multiplicity = 1:

       Center              X                  Y                   Z               Mass       
    ------------   -----------------  -----------------  -----------------  -----------------
         C            0.320981935461     0.813179232929     0.000000000000    12.000000000000
         C           -0.864778117207    -0.127947314912     0.000000000000    12.000000000000
         C            0.543659460418    -0.685217540638     0.000000000000    12.000000000000
         H            0.538602639069     1.360553886373    -0.920390000000     1.007825032230
         H            0.538602639069     1.360553886373     0.920390000000     1.007825032230
         H           -1.447170192407    -0.214118381478     0.920340000000     1.007825032230
         H           -1.447170192407    -0.214118381478    -0.920340000000     1.007825032230
         H            0.909381512053    -1.146521099385    -0.920370000000     1.007825032230
         H            0.909381512053    -1.146521099385     0.920370000000     1.007825032230

  Nuclear repulsion =   75.286659304380962

  ==> Basis Set <==

  Basis Set: 6-31++G**
    Blend: 6-31++G**
    Number of shells: 48
    Number of basis function: 93
    Number of Cartesian functions: 93
    Spherical Harmonics?: false
    Max angular momentum: 2

  ==> DFJKGrad: Density-Fitted SCF Gradients <==

    Gradient:                    1
    J tasked:                  Yes
    K tasked:                  Yes
    wK tasked:                  No
    OpenMP threads:              1
    Integrals threads:           1
    Memory [MiB]:              375
    Schwarz Cutoff:          0E+00
    Fitting Condition:       1E-10

   => Auxiliary Basis Set <=

  Basis Set: (6-31++G** AUX)
    Blend: AUG-CC-PVDZ-JKFIT
    Number of shells: 156
    Number of basis function: 513
    Number of Cartesian functions: 513
    Spherical Harmonics?: false
    Max angular momentum: 3

  ==> DFT Potential <==

   => Composite Functional: M06-2X <= 

    Hybrid M06-2X Meta-GGA XC Functional

    Y. Zhao and D. G. Truhlar,  Theor. Chem. Acc., 120, 215, 2008


    Deriv               =              1
    GGA                 =           TRUE
    Meta                =           TRUE

    Exchange Hybrid     =           TRUE
    MP2 Hybrid          =          FALSE

   => Exchange Functionals <=

    1.0000   XC_HYB_MGGA_X_M06_2X

   => Exact (HF) Exchange <=

    0.5400               HF 

   => Correlation Functionals <=

    1.0000   XC_MGGA_C_M06_2X

   => Molecular Quadrature <=

    Radial Scheme          =       TREUTLER
    Pruning Scheme         =           FLAT
    Nuclear Scheme         =       TREUTLER

    BS radius alpha        =              1
    Pruning alpha          =              1
    Radial Points          =             75
    Spherical Points       =            302
    Total Points           =         203850
    Total Blocks           =           1568
    Max Points             =            256
    Max Functions          =             93


  -Total Gradient:
     Atom            X                  Y                   Z
    ------   -----------------  -----------------  -----------------
       1        0.001105247602     0.003935230931     0.000000000000
       2       -0.004129882856    -0.000500445295     0.000000000000
       3        0.002849476941    -0.003504161959     0.000000000000
       4        0.001213195835     0.002862234385    -0.005022517759
       5        0.001213195835     0.002862234385     0.005022517759
       6       -0.002942876381    -0.000419646076     0.004936553283
       7       -0.002942876381    -0.000419646076    -0.004936553283
       8        0.001871608758    -0.002360975371    -0.004941347059
       9        0.001871608758    -0.002360975371     0.004941347059


*** tstop() called on atlantis at Tue Apr 19 10:06:57 2022
Module time:
	user time   =       2.16 seconds =       0.04 minutes
	system time =       0.00 seconds =       0.00 minutes
	total time  =          3 seconds =       0.05 minutes
Total time:
	user time   =      58.23 seconds =       0.97 minutes
	system time =       0.27 seconds =       0.00 minutes
	total time  =         59 seconds =       0.98 minutes

  //>>>>>>>>>>>>>>>>>>>>>>>>>>>>>>>>>>>//
  //    Loading displacement 3 of 34   //
  //<<<<<<<<<<<<<<<<<<<<<<<<<<<<<<<<<<<//
gradient() will perform analytic gradient computation.

*** tstart() called on atlantis
*** at Tue Apr 19 10:06:57 2022

   => Loading Basis Set <=

    Name: 6-31++G**
    Role: ORBITAL
    Keyword: BASIS
    atoms 1-3 entry C          line   115 file /home/akrom/software/anaconda3/envs/ffpenv/share/psi4/basis/6-31ppgss.gbs 
    atoms 4-9 entry H          line    46 file /home/akrom/software/anaconda3/envs/ffpenv/share/psi4/basis/6-31ppgss.gbs 


         ---------------------------------------------------------
                                   SCF
               by Justin Turney, Rob Parrish, Andy Simmonett
                          and Daniel G. A. Smith
                              RKS Reference
                        1 Threads,    500 MiB Core
         ---------------------------------------------------------

  ==> Geometry <==

    Molecular point group: cs
    Full point group: Cs

    Geometry (in Angstrom), charge = 0, multiplicity = 1:

       Center              X                  Y                   Z               Mass       
    ------------   -----------------  -----------------  -----------------  -----------------
         C            0.322081944250     0.813343688021     0.000000000000    12.000000000000
         C           -0.865318003082    -0.128389764139     0.000000000000    12.000000000000
         C            0.543404419293    -0.684939538412     0.000000000000    12.000000000000
         H            0.537301240642     1.360829034576    -0.920390000000     1.007825032230
         H            0.537301240642     1.360829034576     0.920390000000     1.007825032230
         H           -1.447665927882    -0.214858697572     0.920340000000     1.007825032230
         H           -1.447665927882    -0.214858697572    -0.920340000000     1.007825032230
         H            0.909362367658    -1.146055979665    -0.920370000000     1.007825032230
         H            0.909362367658    -1.146055979665     0.920370000000     1.007825032230

  Running in cs symmetry.

  Rotational constants: A =      0.66489  B =      0.66431  C =      0.41639 [cm^-1]
  Rotational constants: A =  19932.94970  B =  19915.53021  C =  12482.92073 [MHz]
  Nuclear repulsion =   75.276267816162189

  Charge       = 0
  Multiplicity = 1
  Electrons    = 24
  Nalpha       = 12
  Nbeta        = 12

  ==> Algorithm <==

  SCF Algorithm Type is DF.
  DIIS enabled.
  MOM disabled.
  Fractional occupation disabled.
  Guess Type is SAD.
  Energy threshold   = 1.00e-08
  Density threshold  = 1.00e-08
  Integral threshold = 0.00e+00

  ==> Primary Basis <==

  Basis Set: 6-31++G**
    Blend: 6-31++G**
    Number of shells: 48
    Number of basis function: 93
    Number of Cartesian functions: 93
    Spherical Harmonics?: false
    Max angular momentum: 2

  ==> DFT Potential <==

   => Composite Functional: M06-2X <= 

    Hybrid M06-2X Meta-GGA XC Functional

    Y. Zhao and D. G. Truhlar,  Theor. Chem. Acc., 120, 215, 2008


    Deriv               =              1
    GGA                 =           TRUE
    Meta                =           TRUE

    Exchange Hybrid     =           TRUE
    MP2 Hybrid          =          FALSE

   => Exchange Functionals <=

    1.0000   XC_HYB_MGGA_X_M06_2X

   => Exact (HF) Exchange <=

    0.5400               HF 

   => Correlation Functionals <=

    1.0000   XC_MGGA_C_M06_2X

   => Molecular Quadrature <=

    Radial Scheme          =       TREUTLER
    Pruning Scheme         =           FLAT
    Nuclear Scheme         =       TREUTLER

    BS radius alpha        =              1
    Pruning alpha          =              1
    Radial Points          =             75
    Spherical Points       =            302
    Total Points           =         203850
    Total Blocks           =           1573
    Max Points             =            256
    Max Functions          =             93

   => Loading Basis Set <=

    Name: (6-31++G** AUX)
    Role: JKFIT
    Keyword: DF_BASIS_SCF
    atoms 1-3 entry C          line   154 file /home/akrom/software/anaconda3/envs/ffpenv/share/psi4/basis/aug-cc-pvdz-jkfit.gbs 
    atoms 4-9 entry H          line    70 file /home/akrom/software/anaconda3/envs/ffpenv/share/psi4/basis/aug-cc-pvdz-jkfit.gbs 

  ==> Pre-Iterations <==

   -------------------------------------------------------
    Irrep   Nso     Nmo     Nalpha   Nbeta   Ndocc  Nsocc
   -------------------------------------------------------
     A'        60      60       0       0       0       0
     A"        33      33       0       0       0       0
   -------------------------------------------------------
    Total      93      93      12      12      12       0
   -------------------------------------------------------

  ==> Integral Setup <==

  DFHelper Memory: AOs need 0.037 GiB; user supplied 0.037 GiB. Using in-core AOs.

  ==> MemDFJK: Density-Fitted J/K Matrices <==

    J tasked:                   Yes
    K tasked:                   Yes
    wK tasked:                   No
    OpenMP threads:               1
    Memory [MiB]:                37
    Algorithm:                 Core
    Schwarz Cutoff:           1E-12
    Mask sparsity (%):       0.0000
    Fitting Condition:        1E-10

   => Auxiliary Basis Set <=

  Basis Set: (6-31++G** AUX)
    Blend: AUG-CC-PVDZ-JKFIT
    Number of shells: 156
    Number of basis function: 513
    Number of Cartesian functions: 513
    Spherical Harmonics?: false
    Max angular momentum: 3

  Cached 33.4% of DFT collocation blocks in 0.407 [GiB].

  Minimum eigenvalue in the overlap matrix is 1.8832294420E-04.
  Using Symmetric Orthogonalization.

  SCF Guess: Superposition of Atomic Densities via on-the-fly atomic UHF.

  ==> Iterations <==

                           Total Energy        Delta E     RMS |[F,P]|

   @DF-RKS iter SAD:  -117.39199790733409   -1.17392e+02   0.00000e+00 
   @DF-RKS iter   1:  -117.54696958521532   -1.54972e-01   1.07432e-02 DIIS
   @DF-RKS iter   2:  -117.55318014350652   -6.21056e-03   1.06683e-02 DIIS
   @DF-RKS iter   3:  -117.84032869969340   -2.87149e-01   4.91843e-04 DIIS
   @DF-RKS iter   4:  -117.84095716358652   -6.28464e-04   6.34294e-05 DIIS
   @DF-RKS iter   5:  -117.84097414575072   -1.69822e-05   1.24177e-05 DIIS
   @DF-RKS iter   6:  -117.84097480732022   -6.61570e-07   1.50935e-06 DIIS
   @DF-RKS iter   7:  -117.84097482894188   -2.16217e-08   3.78758e-07 DIIS
   @DF-RKS iter   8:  -117.84097482928675   -3.44869e-10   2.19869e-07 DIIS
   @DF-RKS iter   9:  -117.84097482941162   -1.24871e-10   1.12055e-08 DIIS
   @DF-RKS iter  10:  -117.84097482941222   -5.96856e-13   6.91732e-10 DIIS
  Energy and wave function converged.


  ==> Post-Iterations <==

    Orbital Energies [Eh]
    ---------------------

    Doubly Occupied:                                                      

       1Ap   -10.549338     2Ap   -10.548770     3Ap   -10.548752  
       4Ap    -0.944013     5Ap    -0.678227     6Ap    -0.678149  
       1App   -0.564690     7Ap    -0.527734     2App   -0.424070  
       3App   -0.423950     8Ap    -0.348922     9Ap    -0.348529  

    Virtual:                                                              

      10Ap     0.005198     4App    0.018398    11Ap     0.020977  
      12Ap     0.020981     5App    0.056750     6App    0.056772  
      13Ap     0.079847    14Ap     0.091338    15Ap     0.091396  
      16Ap     0.116552    17Ap     0.131386    18Ap     0.131410  
       7App    0.157181    19Ap     0.171648     8App    0.178596  
       9App    0.178689    20Ap     0.179272    21Ap     0.179277  
      22Ap     0.226350    10App    0.226487    23Ap     0.271120  
      24Ap     0.326817    25Ap     0.327044    11App    0.339919  
      12App    0.340261    26Ap     0.390249    27Ap     0.390436  
      28Ap     0.639000    29Ap     0.715855    30Ap     0.716065  
      13App    0.773196    31Ap     0.806709    32Ap     0.806955  
      33Ap     0.817885    14App    0.848335    15App    0.848601  
      16App    0.968216    34Ap     0.979069    35Ap     1.055635  
      17App    1.101093    18App    1.101694    36Ap     1.129159  
      37Ap     1.129295    38Ap     1.321984    39Ap     1.322106  
      40Ap     1.594162    19App    1.666077    20App    1.669803  
      21App    1.669995    41Ap     1.831802    42Ap     1.831975  
      22App    1.933720    43Ap     2.127442    23App    2.133495  
      24App    2.133844    25App    2.262688    44Ap     2.264316  
      45Ap     2.264913    46Ap     2.328650    47Ap     2.328860  
      26App    2.409743    27App    2.410280    48Ap     2.438756  
      49Ap     2.556305    50Ap     2.556472    51Ap     2.697585  
      28App    2.703847    29App    2.703948    30App    2.829863  
      52Ap     2.837958    53Ap     2.938458    54Ap     2.938892  
      55Ap     3.193046    31App    3.309849    56Ap     3.385462  
      57Ap     3.386088    32App    3.550502    33App    3.551643  
      58Ap     4.309185    59Ap     4.575898    60Ap     4.576020  

    Final Occupation by Irrep:
             Ap   App 
    DOCC [     9,    3 ]

  @DF-RKS Final Energy:  -117.84097482941222

   => Energetics <=

    Nuclear Repulsion Energy =             75.2762678161621892
    One-Electron Energy =                -305.7555980823924529
    Two-Electron Energy =                 121.5298824560648399
    DFT Exchange-Correlation Energy =      -8.8915270192468157
    Empirical Dispersion Energy =           0.0000000000000000
    VV10 Nonlocal Energy =                  0.0000000000000000
    Total Energy =                       -117.8409748294122323

Computation Completed


Properties will be evaluated at   0.000000,   0.000000,   0.000000 [a0]

Properties computed using the SCF density matrix

  Nuclear Dipole Moment: [e a0]
     X:    -0.0019      Y:    -0.0002      Z:     0.0000

  Electronic Dipole Moment: [e a0]
     X:     0.0021      Y:    -0.0002      Z:     0.0000

  Dipole Moment: [e a0]
     X:     0.0002      Y:    -0.0003      Z:     0.0000     Total:     0.0004

  Dipole Moment: [D]
     X:     0.0005      Y:    -0.0008      Z:     0.0000     Total:     0.0010


*** tstop() called on atlantis at Tue Apr 19 10:07:10 2022
Module time:
	user time   =      13.60 seconds =       0.23 minutes
	system time =       0.05 seconds =       0.00 minutes
	total time  =         13 seconds =       0.22 minutes
Total time:
	user time   =      71.84 seconds =       1.20 minutes
	system time =       0.32 seconds =       0.01 minutes
	total time  =         72 seconds =       1.20 minutes

*** tstart() called on atlantis
*** at Tue Apr 19 10:07:10 2022


         ------------------------------------------------------------
                                   SCF GRAD                          
                          Rob Parrish, Justin Turney,                
                       Andy Simmonett, and Alex Sokolov              
         ------------------------------------------------------------

  ==> Geometry <==

    Molecular point group: cs
    Full point group: Cs

    Geometry (in Angstrom), charge = 0, multiplicity = 1:

       Center              X                  Y                   Z               Mass       
    ------------   -----------------  -----------------  -----------------  -----------------
         C            0.322081944250     0.813343688021     0.000000000000    12.000000000000
         C           -0.865318003082    -0.128389764139     0.000000000000    12.000000000000
         C            0.543404419293    -0.684939538412     0.000000000000    12.000000000000
         H            0.537301240642     1.360829034576    -0.920390000000     1.007825032230
         H            0.537301240642     1.360829034576     0.920390000000     1.007825032230
         H           -1.447665927882    -0.214858697572     0.920340000000     1.007825032230
         H           -1.447665927882    -0.214858697572    -0.920340000000     1.007825032230
         H            0.909362367658    -1.146055979665    -0.920370000000     1.007825032230
         H            0.909362367658    -1.146055979665     0.920370000000     1.007825032230

  Nuclear repulsion =   75.276267816162189

  ==> Basis Set <==

  Basis Set: 6-31++G**
    Blend: 6-31++G**
    Number of shells: 48
    Number of basis function: 93
    Number of Cartesian functions: 93
    Spherical Harmonics?: false
    Max angular momentum: 2

  ==> DFJKGrad: Density-Fitted SCF Gradients <==

    Gradient:                    1
    J tasked:                  Yes
    K tasked:                  Yes
    wK tasked:                  No
    OpenMP threads:              1
    Integrals threads:           1
    Memory [MiB]:              375
    Schwarz Cutoff:          0E+00
    Fitting Condition:       1E-10

   => Auxiliary Basis Set <=

  Basis Set: (6-31++G** AUX)
    Blend: AUG-CC-PVDZ-JKFIT
    Number of shells: 156
    Number of basis function: 513
    Number of Cartesian functions: 513
    Spherical Harmonics?: false
    Max angular momentum: 3

  ==> DFT Potential <==

   => Composite Functional: M06-2X <= 

    Hybrid M06-2X Meta-GGA XC Functional

    Y. Zhao and D. G. Truhlar,  Theor. Chem. Acc., 120, 215, 2008


    Deriv               =              1
    GGA                 =           TRUE
    Meta                =           TRUE

    Exchange Hybrid     =           TRUE
    MP2 Hybrid          =          FALSE

   => Exchange Functionals <=

    1.0000   XC_HYB_MGGA_X_M06_2X

   => Exact (HF) Exchange <=

    0.5400               HF 

   => Correlation Functionals <=

    1.0000   XC_MGGA_C_M06_2X

   => Molecular Quadrature <=

    Radial Scheme          =       TREUTLER
    Pruning Scheme         =           FLAT
    Nuclear Scheme         =       TREUTLER

    BS radius alpha        =              1
    Pruning alpha          =              1
    Radial Points          =             75
    Spherical Points       =            302
    Total Points           =         203850
    Total Blocks           =           1573
    Max Points             =            256
    Max Functions          =             93


  -Total Gradient:
     Atom            X                  Y                   Z
    ------   -----------------  -----------------  -----------------
       1        0.002208069290     0.004472985526     0.000000000000
       2       -0.004706215377    -0.000803105977     0.000000000000
       3        0.002766940885    -0.003481412160     0.000000000000
       4        0.001013661488     0.002730843336    -0.004841024191
       5        0.001013661488     0.002730843336     0.004841024191
       6       -0.002980103791    -0.000466355266     0.004926273797
       7       -0.002980103791    -0.000466355266    -0.004926273797
       8        0.001864618253    -0.002321349896    -0.004951011875
       9        0.001864618253    -0.002321349896     0.004951011875


*** tstop() called on atlantis at Tue Apr 19 10:07:12 2022
Module time:
	user time   =       2.18 seconds =       0.04 minutes
	system time =       0.01 seconds =       0.00 minutes
	total time  =          2 seconds =       0.03 minutes
Total time:
	user time   =      74.02 seconds =       1.23 minutes
	system time =       0.33 seconds =       0.01 minutes
	total time  =         74 seconds =       1.23 minutes

  //>>>>>>>>>>>>>>>>>>>>>>>>>>>>>>>>>>>//
  //    Loading displacement 4 of 34   //
  //<<<<<<<<<<<<<<<<<<<<<<<<<<<<<<<<<<<//
gradient() will perform analytic gradient computation.

*** tstart() called on atlantis
*** at Tue Apr 19 10:07:12 2022

   => Loading Basis Set <=

    Name: 6-31++G**
    Role: ORBITAL
    Keyword: BASIS
    atoms 1-3 entry C          line   115 file /home/akrom/software/anaconda3/envs/ffpenv/share/psi4/basis/6-31ppgss.gbs 
    atoms 4-9 entry H          line    46 file /home/akrom/software/anaconda3/envs/ffpenv/share/psi4/basis/6-31ppgss.gbs 


         ---------------------------------------------------------
                                   SCF
               by Justin Turney, Rob Parrish, Andy Simmonett
                          and Daniel G. A. Smith
                              RKS Reference
                        1 Threads,    500 MiB Core
         ---------------------------------------------------------

  ==> Geometry <==

    Molecular point group: cs
    Full point group: Cs

    Geometry (in Angstrom), charge = 0, multiplicity = 1:

       Center              X                  Y                   Z               Mass       
    ------------   -----------------  -----------------  -----------------  -----------------
         C            0.321531939855     0.812635159068     0.000000000000    12.000000000000
         C           -0.865072120902    -0.128008550426     0.000000000000    12.000000000000
         C            0.543576026536    -0.684746186637     0.000000000000    12.000000000000
         H            0.537745691682     1.361023130555    -0.920390000000     1.007825032230
         H            0.537745691682     1.361023130555     0.920390000000     1.007825032230
         H           -1.447431558178    -0.214399813329     0.920340000000     1.007825032230
         H           -1.447431558178    -0.214399813329    -0.920340000000     1.007825032230
         H            0.909472463446    -1.145911419873    -0.920370000000     1.007825032230
         H            0.909472463446    -1.145911419873     0.920370000000     1.007825032230

  Running in cs symmetry.

  Rotational constants: A =      0.66518  B =      0.66468  C =      0.41665 [cm^-1]
  Rotational constants: A =  19941.69418  B =  19926.66026  C =  12490.72376 [MHz]
  Nuclear repulsion =   75.292327113354389

  Charge       = 0
  Multiplicity = 1
  Electrons    = 24
  Nalpha       = 12
  Nbeta        = 12

  ==> Algorithm <==

  SCF Algorithm Type is DF.
  DIIS enabled.
  MOM disabled.
  Fractional occupation disabled.
  Guess Type is SAD.
  Energy threshold   = 1.00e-08
  Density threshold  = 1.00e-08
  Integral threshold = 0.00e+00

  ==> Primary Basis <==

  Basis Set: 6-31++G**
    Blend: 6-31++G**
    Number of shells: 48
    Number of basis function: 93
    Number of Cartesian functions: 93
    Spherical Harmonics?: false
    Max angular momentum: 2

  ==> DFT Potential <==

   => Composite Functional: M06-2X <= 

    Hybrid M06-2X Meta-GGA XC Functional

    Y. Zhao and D. G. Truhlar,  Theor. Chem. Acc., 120, 215, 2008


    Deriv               =              1
    GGA                 =           TRUE
    Meta                =           TRUE

    Exchange Hybrid     =           TRUE
    MP2 Hybrid          =          FALSE

   => Exchange Functionals <=

    1.0000   XC_HYB_MGGA_X_M06_2X

   => Exact (HF) Exchange <=

    0.5400               HF 

   => Correlation Functionals <=

    1.0000   XC_MGGA_C_M06_2X

   => Molecular Quadrature <=

    Radial Scheme          =       TREUTLER
    Pruning Scheme         =           FLAT
    Nuclear Scheme         =       TREUTLER

    BS radius alpha        =              1
    Pruning alpha          =              1
    Radial Points          =             75
    Spherical Points       =            302
    Total Points           =         203850
    Total Blocks           =           1577
    Max Points             =            256
    Max Functions          =             93

   => Loading Basis Set <=

    Name: (6-31++G** AUX)
    Role: JKFIT
    Keyword: DF_BASIS_SCF
    atoms 1-3 entry C          line   154 file /home/akrom/software/anaconda3/envs/ffpenv/share/psi4/basis/aug-cc-pvdz-jkfit.gbs 
    atoms 4-9 entry H          line    70 file /home/akrom/software/anaconda3/envs/ffpenv/share/psi4/basis/aug-cc-pvdz-jkfit.gbs 

  ==> Pre-Iterations <==

   -------------------------------------------------------
    Irrep   Nso     Nmo     Nalpha   Nbeta   Ndocc  Nsocc
   -------------------------------------------------------
     A'        60      60       0       0       0       0
     A"        33      33       0       0       0       0
   -------------------------------------------------------
    Total      93      93      12      12      12       0
   -------------------------------------------------------

  ==> Integral Setup <==

  DFHelper Memory: AOs need 0.037 GiB; user supplied 0.037 GiB. Using in-core AOs.

  ==> MemDFJK: Density-Fitted J/K Matrices <==

    J tasked:                   Yes
[...]

    Exchange Hybrid     =           TRUE
    MP2 Hybrid          =          FALSE

   => Exchange Functionals <=

    1.0000   XC_HYB_MGGA_X_M06_2X

   => Exact (HF) Exchange <=

    0.5400               HF 

   => Correlation Functionals <=

    1.0000   XC_MGGA_C_M06_2X

   => Molecular Quadrature <=

    Radial Scheme          =       TREUTLER
    Pruning Scheme         =           FLAT
    Nuclear Scheme         =       TREUTLER

    BS radius alpha        =              1
    Pruning alpha          =              1
    Radial Points          =             75
    Spherical Points       =            302
    Total Points           =         203850
    Total Blocks           =           1569
    Max Points             =            256
    Max Functions          =             93


  -Total Gradient:
     Atom            X                  Y                   Z
    ------   -----------------  -----------------  -----------------
       1        0.001671412483     0.004184114181     0.000006075473
       2       -0.004415831825    -0.000631910342     0.000449133387
       3        0.002825189781    -0.003554697364    -0.001250714864
       4        0.001107436739     0.002777671767    -0.004937116391
       5        0.001111818040     0.002790260625     0.004934109442
       6       -0.002790196681    -0.000434191337     0.004644172647
       7       -0.003141338643    -0.000443136041    -0.005208089729
       8        0.001531803890    -0.002018817034    -0.004238133066
       9        0.002255613073    -0.002738802072     0.005599412505


*** tstop() called on atlantis at Tue Apr 19 10:15:25 2022
Module time:
	user time   =       2.18 seconds =       0.04 minutes
	system time =       0.00 seconds =       0.00 minutes
	total time  =          2 seconds =       0.03 minutes
Total time:
	user time   =     565.15 seconds =       9.42 minutes
	system time =       1.52 seconds =       0.03 minutes
	total time  =        567 seconds =       9.45 minutes

         ----------------------------------------------------------
                                   FINDIF
                     R. A. King and Jonathon Misiewicz
         ---------------------------------------------------------

  Computing second-derivative from gradients using projected, 
  symmetry-adapted, cartesian coordinates.

  34 gradients passed in, including the reference geometry.
  Generating complete list of displacements from unique ones.

    Operation 2 takes plus displacements of irrep A" to minus ones.

-------------------------------------------------------------


  ==> Harmonic Vibrational Analysis <==

  non-mass-weighted Hessian:       Symmetric? True   Hermitian? True   Lin Dep Dim?  6 (0)
  projection of translations (True) and rotations (True) removed 6 degrees of freedom (6)
  total projector:                 Symmetric? True   Hermitian? True   Lin Dep Dim?  6 (6)
  mass-weighted Hessian:           Symmetric? True   Hermitian? True   Lin Dep Dim?  6 (0)
  pre-proj  low-frequency mode:    0.0000i [cm^-1]
  pre-proj  low-frequency mode:    0.0000i [cm^-1]
  pre-proj  low-frequency mode:    0.0000i [cm^-1]
  pre-proj  low-frequency mode:    0.0000  [cm^-1]
  pre-proj  low-frequency mode:    0.0000  [cm^-1]
  pre-proj  low-frequency mode:    0.0000  [cm^-1]
  pre-proj  all modes:['0.0001i' '0.0000i' '0.0000i' '0.0000' '0.0000' '0.0000' '781.7695'
 '783.4892' '891.7310' '897.5823' '901.9005' '1072.4567' '1079.7631'
 '1107.5737' '1168.1505' '1209.8125' '1220.7712' '1222.1597' '1477.0278'
 '1489.7659' '1540.7788' '3101.4793' '3103.2112' '3109.0406' '3182.3599'
 '3182.9031' '3200.5519']
  projected mass-weighted Hessian: Symmetric? True   Hermitian? True   Lin Dep Dim?  6 (6)
  post-proj low-frequency mode:    0.0000i [cm^-1] (TR)
  post-proj low-frequency mode:    0.0000i [cm^-1] (TR)
  post-proj low-frequency mode:    0.0000i [cm^-1] (TR)
  post-proj low-frequency mode:    0.0000i [cm^-1] (TR)
  post-proj low-frequency mode:    0.0000  [cm^-1] (TR)
  post-proj low-frequency mode:    0.0000  [cm^-1] (TR)
  post-proj  all modes:['0.0000i' '0.0000i' '0.0000i' '0.0000i' '0.0000' '0.0000' '781.7695'
 '783.4892' '891.7310' '897.5823' '901.9005' '1072.4567' '1079.7631'
 '1107.5737' '1168.1505' '1209.8125' '1220.7712' '1222.1597' '1477.0278'
 '1489.7659' '1540.7788' '3101.4793' '3103.2112' '3109.0406' '3182.3599'
 '3182.9031' '3200.5519']

  Vibration                       7                   8                   9           
  Freq [cm^-1]                 781.7695            783.4892            891.7310       
  Irrep                          App                 App                 App          
  Reduced mass [u]              1.0220              1.0226              1.0440        
  Force const [mDyne/A]         0.3680              0.3698              0.4891        
  Turning point v=0 [a0]        0.3882              0.3877              0.3596        
  RMS dev v=0 [a0 u^1/2]        0.2775              0.2772              0.2598        
  Char temp [K]               1124.7922           1127.2665           1283.0023       
  ----------------------------------------------------------------------------------
      1   C               -0.00  0.00 -0.01    0.00  0.00  0.03   -0.00 -0.00 -0.03   
      2   C                0.00 -0.00 -0.02    0.00 -0.00 -0.02   -0.00  0.00 -0.03   
      3   C               -0.00 -0.00  0.03   -0.00 -0.00 -0.01    0.00  0.00 -0.03   
      4   H                0.43 -0.09  0.04   -0.03 -0.33 -0.18    0.12  0.34  0.20   
      5   H               -0.43  0.09  0.04    0.03  0.33 -0.18   -0.12 -0.34  0.20   
      6   H                0.20  0.33  0.14    0.26 -0.29  0.12    0.35  0.05  0.19   
      7   H               -0.20 -0.33  0.14   -0.26  0.29  0.12   -0.35 -0.05  0.19   
      8   H               -0.08  0.32 -0.17    0.39  0.18  0.06    0.22 -0.28  0.20   
      9   H                0.08 -0.32 -0.17   -0.39 -0.18  0.06   -0.22  0.28  0.20   

  Vibration                       10                  11                  12          
  Freq [cm^-1]                 897.5823            901.9005           1072.4567       
  Irrep                           Ap                  Ap                  Ap          
  Reduced mass [u]              3.8852              3.6124              1.2590        
  Force const [mDyne/A]         1.8442              1.7312              0.8532        
  Turning point v=0 [a0]        0.1858              0.1922              0.2986        
  RMS dev v=0 [a0 u^1/2]        0.2590              0.2584              0.2369        
  Char temp [K]               1291.4210           1297.6341           1543.0265       
  ----------------------------------------------------------------------------------
      1   C                0.11  0.29 -0.00    0.26 -0.09  0.00   -0.04  0.04 -0.00   
      2   C                0.19 -0.21 -0.00   -0.23 -0.18  0.00    0.03 -0.08 -0.00   
      3   C               -0.28 -0.05 -0.00   -0.07  0.27  0.00   -0.08 -0.08  0.00   
      4   H                0.07  0.27 -0.02    0.39 -0.13  0.01    0.19 -0.06 -0.01   
      5   H                0.07  0.27  0.02    0.39 -0.13 -0.01    0.19 -0.06  0.01   
      6   H                0.18 -0.32 -0.02   -0.18 -0.25  0.03   -0.06  0.39 -0.01   
      7   H                0.18 -0.32  0.02   -0.18 -0.25 -0.03   -0.06  0.39  0.01   
      8   H               -0.37 -0.13  0.01    0.06  0.34  0.02    0.43  0.32  0.00   
      9   H               -0.37 -0.13 -0.01    0.06  0.34 -0.02    0.43  0.32 -0.00   

  Vibration                       13                  14                  15          
  Freq [cm^-1]                1079.7631           1107.5737           1168.1505       
  Irrep                           Ap                  Ap                 App          
  Reduced mass [u]              1.2814              1.4015              1.0080        
  Force const [mDyne/A]         0.8802              1.0129              0.8104        
  Turning point v=0 [a0]        0.2950              0.2785              0.3198        
  RMS dev v=0 [a0 u^1/2]        0.2361              0.2331              0.2270        
  Char temp [K]               1553.5387           1593.5519           1680.7085       
  ----------------------------------------------------------------------------------
      1   C                0.08 -0.04  0.00   -0.13  0.04 -0.00   -0.00  0.00  0.00   
      2   C                0.01 -0.12 -0.00    0.02 -0.08  0.00    0.00 -0.00 -0.00   
      3   C                0.02  0.06 -0.00    0.08  0.08  0.00   -0.00 -0.00  0.00   
      4   H               -0.40  0.13 -0.01    0.49 -0.22 -0.01   -0.39  0.14 -0.00   
      5   H               -0.40  0.13  0.01    0.49 -0.22  0.01    0.39 -0.14 -0.00   
      6   H               -0.05  0.52  0.02   -0.00  0.23  0.01   -0.05  0.41  0.00   
      7   H               -0.05  0.52 -0.02   -0.00  0.23 -0.01    0.05 -0.41  0.00   
      8   H               -0.17 -0.11  0.01   -0.32 -0.21 -0.01    0.31  0.25 -0.00   
      9   H               -0.17 -0.11 -0.01   -0.32 -0.21  0.01   -0.31 -0.25 -0.00   

  Vibration                       16                  17                  18          
  Freq [cm^-1]                1209.8125           1220.7712           1222.1597       
  Irrep                           Ap                 App                 App          
  Reduced mass [u]              2.6383              1.4468              1.4486        
  Force const [mDyne/A]         2.2752              1.2704              1.2748        
  Turning point v=0 [a0]        0.1942              0.2611              0.2608        
  RMS dev v=0 [a0 u^1/2]        0.2231              0.2221              0.2219        
  Char temp [K]               1740.6508           1756.4180           1758.4157       
  ----------------------------------------------------------------------------------
      1   C               -0.07 -0.20 -0.00    0.00  0.00 -0.12    0.00  0.00 -0.12   
      2   C                0.22  0.05  0.00   -0.00 -0.00  0.16   -0.00 -0.00 -0.04   
      3   C               -0.16  0.16  0.00    0.00 -0.00 -0.04    0.00 -0.00  0.16   
      4   H               -0.15 -0.34 -0.07    0.35  0.16  0.06   -0.15  0.36  0.06   
      5   H               -0.15 -0.34  0.07   -0.35 -0.16  0.06    0.15 -0.36  0.06   
      6   H                0.36 -0.02  0.06   -0.37 -0.14 -0.08    0.16 -0.36  0.02   
      7   H                0.36 -0.02 -0.06    0.37  0.14 -0.08   -0.16  0.36  0.02   
      8   H               -0.16  0.34 -0.07    0.37  0.16  0.02   -0.16  0.37 -0.08   
      9   H               -0.16  0.34  0.07   -0.37 -0.16  0.02    0.16 -0.37 -0.08   

  Vibration                       19                  20                  21          
  Freq [cm^-1]                1477.0278           1489.7659           1540.7788       
  Irrep                           Ap                  Ap                  Ap          
  Reduced mass [u]              1.0957              1.0890              1.3309        
  Force const [mDyne/A]         1.4083              1.4240              1.8616        
  Turning point v=0 [a0]        0.2728              0.2724              0.2423        
  RMS dev v=0 [a0 u^1/2]        0.2019              0.2010              0.1977        
  Char temp [K]               2125.1142           2143.4414           2216.8377       
  ----------------------------------------------------------------------------------
      1   C               -0.03 -0.07  0.00   -0.01 -0.00  0.00   -0.04 -0.09  0.00   
      2   C               -0.03 -0.01 -0.00   -0.06 -0.00  0.00    0.10  0.01  0.00   
      3   C                0.02 -0.03  0.00   -0.04  0.04 -0.00   -0.06  0.08 -0.00   
      4   H                0.17  0.44  0.33    0.03  0.02  0.02    0.11  0.27  0.25   
      5   H                0.17  0.44 -0.33    0.03  0.02 -0.02    0.11  0.27 -0.25   
      6   H                0.20  0.04  0.14    0.42  0.04  0.30   -0.31 -0.04 -0.26   
      7   H                0.20  0.04 -0.14    0.42  0.04 -0.30   -0.31 -0.04  0.26   
      8   H               -0.15  0.20 -0.18    0.25 -0.30  0.27    0.18 -0.26  0.26   
      9   H               -0.15  0.20  0.18    0.25 -0.30 -0.27    0.18 -0.26 -0.26   

  Vibration                       22                  23                  24          
  Freq [cm^-1]                3101.4793           3103.2112           3109.0406       
  Irrep                           Ap                  Ap                  Ap          
  Reduced mass [u]              1.0502              1.0505              1.0636        
  Force const [mDyne/A]         5.9522              5.9603              6.0575        
  Turning point v=0 [a0]        0.1923              0.1922              0.1908        
  RMS dev v=0 [a0 u^1/2]        0.1393              0.1393              0.1392        
  Char temp [K]               4462.3382           4464.8300           4473.2172       
  ----------------------------------------------------------------------------------
      1   C                0.02  0.05 -0.00    0.00  0.01 -0.00    0.02  0.04 -0.00   
      2   C                0.01  0.00  0.00    0.05  0.01  0.00   -0.04 -0.01 -0.00   
      3   C               -0.02  0.03  0.00    0.02 -0.03  0.00    0.03 -0.03 -0.00   
      4   H               -0.11 -0.27  0.48   -0.02 -0.05  0.09   -0.08 -0.20  0.36   
      5   H               -0.11 -0.27 -0.48   -0.02 -0.05 -0.09   -0.08 -0.20 -0.36   
      6   H               -0.09 -0.01  0.14   -0.30 -0.04  0.49    0.19  0.03 -0.31   
      7   H               -0.09 -0.01 -0.14   -0.30 -0.04 -0.49    0.19  0.03  0.31   
      8   H                0.13 -0.16 -0.34   -0.13  0.16  0.33   -0.14  0.18  0.37   
      9   H                0.13 -0.16  0.34   -0.13  0.16 -0.33   -0.14  0.18 -0.37   

  Vibration                       25                  26                  27          
  Freq [cm^-1]                3182.3599           3182.9031           3200.5519       
  Irrep                          App                 App                 App          
  Reduced mass [u]              1.1208              1.1206              1.1162        
  Force const [mDyne/A]         6.6879              6.6890              6.7365        
  Turning point v=0 [a0]        0.1837              0.1837              0.1836        
  RMS dev v=0 [a0 u^1/2]        0.1375              0.1375              0.1371        
  Char temp [K]               4578.7074           4579.4890           4604.8816       
  ----------------------------------------------------------------------------------
      1   C                0.00  0.00  0.02   -0.00 -0.00 -0.08   -0.00 -0.00 -0.06   
      2   C                0.00  0.00  0.06   -0.00 -0.00  0.06    0.00 -0.00 -0.06   
      3   C               -0.00  0.00 -0.08   -0.00 -0.00  0.02    0.00 -0.00 -0.06   
      4   H                0.03  0.07 -0.12   -0.11 -0.28  0.47   -0.08 -0.21  0.35   
      5   H               -0.03 -0.07 -0.12    0.11  0.28  0.47    0.08  0.21  0.35   
      6   H                0.21  0.03 -0.34    0.22  0.03 -0.34   -0.22 -0.03  0.34   
      7   H               -0.21 -0.03 -0.34   -0.22 -0.03 -0.34    0.22  0.03  0.34   
      8   H               -0.19  0.24  0.47    0.05 -0.06 -0.13   -0.13  0.17  0.33   
      9   H                0.19 -0.24  0.47   -0.05  0.06 -0.13    0.13 -0.17  0.33   

  ==> Thermochemistry Components <==

  Entropy, S
    Electronic S            0.000 [cal/(mol K)]        0.000 [J/(mol K)]       0.00000000 [mEh/K] (multiplicity = 1)
    Translational S        37.135 [cal/(mol K)]      155.375 [J/(mol K)]       0.05917914 [mEh/K] (mol. weight = 42.0470 [u], P = 101325.00 [Pa])
    Rotational S           21.699 [cal/(mol K)]       90.789 [J/(mol K)]       0.03457982 [mEh/K] (symmetry no. = 1)
    Vibrational S           1.263 [cal/(mol K)]        5.286 [J/(mol K)]       0.00201326 [mEh/K]
  Total S                  60.098 [cal/(mol K)]      251.450 [J/(mol K)]       0.09577222 [mEh/K]
  Correction S              0.000 [cal/(mol K)]        0.000 [J/(mol K)]       0.00000000 [mEh/K]

  Constant volume heat capacity, Cv
    Electronic Cv           0.000 [cal/(mol K)]        0.000 [J/(mol K)]       0.00000000 [mEh/K]
    Translational Cv        2.981 [cal/(mol K)]       12.472 [J/(mol K)]       0.00475022 [mEh/K]
    Rotational Cv           2.981 [cal/(mol K)]       12.472 [J/(mol K)]       0.00475022 [mEh/K]
    Vibrational Cv          4.780 [cal/(mol K)]       19.998 [J/(mol K)]       0.00761681 [mEh/K]
  Total Cv                 10.741 [cal/(mol K)]       44.941 [J/(mol K)]       0.01711724 [mEh/K]
  Correction Cv             0.000 [cal/(mol K)]        0.000 [J/(mol K)]       0.00000000 [mEh/K]

  Constant pressure heat capacity, Cp
    Electronic Cp           0.000 [cal/(mol K)]        0.000 [J/(mol K)]       0.00000000 [mEh/K]
    Translational Cp        4.968 [cal/(mol K)]       20.786 [J/(mol K)]       0.00791703 [mEh/K]
    Rotational Cp           2.981 [cal/(mol K)]       12.472 [J/(mol K)]       0.00475022 [mEh/K]
    Vibrational Cp          4.780 [cal/(mol K)]       19.998 [J/(mol K)]       0.00761681 [mEh/K]
  Total Cp                 12.728 [cal/(mol K)]       53.256 [J/(mol K)]       0.02028405 [mEh/K]
  Correction Cp             0.000 [cal/(mol K)]        0.000 [J/(mol K)]       0.00000000 [mEh/K]

  ==> Thermochemistry Energy Analysis <==

  Raw electronic energy, E0
  Total E0, Electronic energy at well bottom at 0 [K]                 -117.84096352 [Eh]

  Zero-point energy, ZPE_vib = Sum_i nu_i / 2
    Electronic ZPE          0.000 [kcal/mol]        0.000 [kJ/mol]       0.00000000 [Eh]
    Translational ZPE       0.000 [kcal/mol]        0.000 [kJ/mol]       0.00000000 [Eh]
    Rotational ZPE          0.000 [kcal/mol]        0.000 [kJ/mol]       0.00000000 [Eh]
    Vibrational ZPE        51.070 [kcal/mol]      213.679 [kJ/mol]       0.08138589 [Eh]       17862.139 [cm^-1]
  Correction ZPE           51.070 [kcal/mol]      213.679 [kJ/mol]       0.08138589 [Eh]       17862.139 [cm^-1]
  Total ZPE, Electronic energy at 0 [K]                               -117.75957762 [Eh]

  Thermal Energy, E (includes ZPE)
    Electronic E            0.000 [kcal/mol]        0.000 [kJ/mol]       0.00000000 [Eh]
    Translational E         0.889 [kcal/mol]        3.718 [kJ/mol]       0.00141628 [Eh]
    Rotational E            0.889 [kcal/mol]        3.718 [kJ/mol]       0.00141628 [Eh]
    Vibrational E          51.378 [kcal/mol]      214.966 [kJ/mol]       0.08187641 [Eh]
  Correction E             53.156 [kcal/mol]      222.403 [kJ/mol]       0.08470896 [Eh]
  Total E, Electronic energy at  298.15 [K]                           -117.75625455 [Eh]

  Enthalpy, H_trans = E_trans + k_B * T
    Electronic H            0.000 [kcal/mol]        0.000 [kJ/mol]       0.00000000 [Eh]
    Translational H         1.481 [kcal/mol]        6.197 [kJ/mol]       0.00236046 [Eh]
    Rotational H            0.889 [kcal/mol]        3.718 [kJ/mol]       0.00141628 [Eh]
    Vibrational H          51.378 [kcal/mol]      214.966 [kJ/mol]       0.08187641 [Eh]
  Correction H             53.748 [kcal/mol]      224.882 [kJ/mol]       0.08565315 [Eh]
  Total H, Enthalpy at  298.15 [K]                                    -117.75531037 [Eh]

  Gibbs free energy, G = H - T * S
    Electronic G            0.000 [kcal/mol]        0.000 [kJ/mol]       0.00000000 [Eh]
    Translational G        -9.591 [kcal/mol]      -40.128 [kJ/mol]      -0.01528380 [Eh]
    Rotational G           -5.581 [kcal/mol]      -23.350 [kJ/mol]      -0.00889370 [Eh]
    Vibrational G          51.002 [kcal/mol]      213.391 [kJ/mol]       0.08127616 [Eh]
  Correction G             35.830 [kcal/mol]      149.913 [kJ/mol]       0.05709866 [Eh]
  Total G, Free enthalpy at  298.15 [K]                               -117.78386486 [Eh]

    Psi4 stopped on: Tuesday, 19 April 2022 10:15AM
    Psi4 wall time for execution: 0:09:27.51

*** Psi4 exiting successfully. Buy a developer a beer!
