
    -----------------------------------------------------------------------
          Psi4: An Open-Source Ab Initio Electronic Structure Package
                               Psi4 1.3.2 release

                         Git: Rev {HEAD} ecbda83 


    R. M. Parrish, L. A. Burns, D. G. A. Smith, A. C. Simmonett,
    A. E. DePrince III, E. G. Hohenstein, U. Bozkaya, A. Yu. Sokolov,
    R. Di Remigio, R. M. Richard, J. F. Gonthier, A. M. James,
    H. R. McAlexander, A. Kumar, M. Saitow, X. Wang, B. P. Pritchard,
    P. Verma, H. F. Schaefer III, K. Patkowski, R. A. King, E. F. Valeev,
    F. A. Evangelista, J. M. Turney, T. D. Crawford, and C. D. Sherrill,
    J. Chem. Theory Comput. 13(7) pp 3185--3197 (2017).
    (doi: 10.1021/acs.jctc.7b00174)


                         Additional Contributions by
    P. Kraus, H. Kruse, M. H. Lechner, M. C. Schieber, R. A. Shaw,
    A. Alenaizan, R. Galvelis, Z. L. Glick, S. Lehtola, and J. P. Misiewicz

    -----------------------------------------------------------------------


    Psi4 started on: Tuesday, 19 April 2022 02:36AM

    Process ID: 26105
    Host:       atlantis
    PSIDATADIR: /home/akrom/software/anaconda3/envs/ffpenv/share/psi4
    Memory:     500.0 MiB
    Threads:    1
    
  ==> Input File <==

--------------------------------------------------------------------------
set basis  cc-pVDZ
molecule {
0 1
   C        0.32153        0.81326        0.00000
   C       -0.86505       -0.12817        0.00000
   C        0.54353       -0.68508        0.00000
   H        0.53795        1.36069       -0.92039
   H        0.53795        1.36069        0.92039
   H       -1.44742       -0.21449        0.92034
   H       -1.44742       -0.21449       -0.92034
   H        0.90937       -1.14629       -0.92037
   H        0.90937       -1.14629        0.92037
}
energy('MP2')
frequencies('MP2')
--------------------------------------------------------------------------
    SCF Algorithm Type (re)set to DF.

*** tstart() called on atlantis
*** at Tue Apr 19 02:36:54 2022

   => Loading Basis Set <=

    Name: CC-PVDZ
    Role: ORBITAL
    Keyword: BASIS
    atoms 1-3 entry C          line   138 file /home/akrom/software/anaconda3/envs/ffpenv/share/psi4/basis/cc-pvdz.gbs 
    atoms 4-9 entry H          line    22 file /home/akrom/software/anaconda3/envs/ffpenv/share/psi4/basis/cc-pvdz.gbs 


         ---------------------------------------------------------
                                   SCF
               by Justin Turney, Rob Parrish, Andy Simmonett
                          and Daniel G. A. Smith
                              RHF Reference
                        1 Threads,    500 MiB Core
         ---------------------------------------------------------

  ==> Geometry <==

    Molecular point group: cs
    Full point group: Cs

    Geometry (in Angstrom), charge = 0, multiplicity = 1:

       Center              X                  Y                   Z               Mass       
    ------------   -----------------  -----------------  -----------------  -----------------
         C            0.321531939855     0.813261460475     0.000000000000    12.000000000000
         C           -0.865048060145    -0.128168539525     0.000000000000    12.000000000000
         C            0.543531939855    -0.685078539525     0.000000000000    12.000000000000
         H            0.537951939855     1.360691460475    -0.920390000000     1.007825032230
         H            0.537951939855     1.360691460475     0.920390000000     1.007825032230
         H           -1.447418060145    -0.214488539525     0.920340000000     1.007825032230
         H           -1.447418060145    -0.214488539525    -0.920340000000     1.007825032230
         H            0.909371939855    -1.146288539525    -0.920370000000     1.007825032230
         H            0.909371939855    -1.146288539525     0.920370000000     1.007825032230

  Running in cs symmetry.

  Rotational constants: A =      0.66472  B =      0.66470  C =      0.41647 [cm^-1]
  Rotational constants: A =  19927.70596  B =  19927.20236  C =  12485.44714 [MHz]
  Nuclear repulsion =   75.281464809014025

  Charge       = 0
  Multiplicity = 1
  Electrons    = 24
  Nalpha       = 12
  Nbeta        = 12

  ==> Algorithm <==

  SCF Algorithm Type is DF.
  DIIS enabled.
  MOM disabled.
  Fractional occupation disabled.
  Guess Type is SAD.
  Energy threshold   = 1.00e-08
  Density threshold  = 1.00e-08
  Integral threshold = 0.00e+00

  ==> Primary Basis <==

  Basis Set: CC-PVDZ
    Blend: CC-PVDZ
    Number of shells: 36
    Number of basis function: 72
    Number of Cartesian functions: 75
    Spherical Harmonics?: true
    Max angular momentum: 2

   => Loading Basis Set <=

    Name: (CC-PVDZ AUX)
    Role: JKFIT
    Keyword: DF_BASIS_SCF
    atoms 1-3 entry C          line   121 file /home/akrom/software/anaconda3/envs/ffpenv/share/psi4/basis/cc-pvdz-jkfit.gbs 
    atoms 4-9 entry H          line    51 file /home/akrom/software/anaconda3/envs/ffpenv/share/psi4/basis/cc-pvdz-jkfit.gbs 

  ==> Pre-Iterations <==

   -------------------------------------------------------
    Irrep   Nso     Nmo     Nalpha   Nbeta   Ndocc  Nsocc
   -------------------------------------------------------
     A'        45      45       0       0       0       0
     A"        27      27       0       0       0       0
   -------------------------------------------------------
    Total      72      72      12      12      12       0
   -------------------------------------------------------

  ==> Integral Setup <==

  DFHelper Memory: AOs need 0.015 GiB; user supplied 0.366 GiB. Using in-core AOs.

  ==> MemDFJK: Density-Fitted J/K Matrices <==

    J tasked:                   Yes
    K tasked:                   Yes
    wK tasked:                   No
    OpenMP threads:               1
    Memory [MiB]:               375
    Algorithm:                 Core
    Schwarz Cutoff:           1E-12
    Mask sparsity (%):       0.0000
    Fitting Condition:        1E-10

   => Auxiliary Basis Set <=

  Basis Set: (CC-PVDZ AUX)
    Blend: CC-PVDZ-JKFIT
    Number of shells: 126
    Number of basis function: 348
    Number of Cartesian functions: 393
    Spherical Harmonics?: true
    Max angular momentum: 3

  Minimum eigenvalue in the overlap matrix is 5.9278925342E-03.
  Using Symmetric Orthogonalization.

  SCF Guess: Superposition of Atomic Densities via on-the-fly atomic UHF.

  ==> Iterations <==

                           Total Energy        Delta E     RMS |[F,P]|

   @DF-RHF iter SAD:  -116.64824883268287   -1.16648e+02   0.00000e+00 
   @DF-RHF iter   1:  -116.99127166445324   -3.43023e-01   6.40833e-03 DIIS
   @DF-RHF iter   2:  -117.05314944765414   -6.18778e-02   2.92391e-03 DIIS
   @DF-RHF iter   3:  -117.06562992044158   -1.24805e-02   5.69540e-04 DIIS
   @DF-RHF iter   4:  -117.06644478583969   -8.14865e-04   6.06638e-05 DIIS
   @DF-RHF iter   5:  -117.06645839901415   -1.36132e-05   1.28622e-05 DIIS
   @DF-RHF iter   6:  -117.06645905023213   -6.51218e-07   2.03189e-06 DIIS
   @DF-RHF iter   7:  -117.06645906718813   -1.69560e-08   2.94751e-07 DIIS
   @DF-RHF iter   8:  -117.06645906751010   -3.21961e-10   3.07985e-08 DIIS
   @DF-RHF iter   9:  -117.06645906751287   -2.77112e-12   5.12982e-09 DIIS
  Energy and wave function converged.


  ==> Post-Iterations <==

    Orbital Energies [Eh]
    ---------------------

    Doubly Occupied:                                                      

       1Ap   -11.232380     2Ap   -11.231436     3Ap   -11.231431  
       4Ap    -1.126141     5Ap    -0.813681     6Ap    -0.813676  
       1App   -0.661805     7Ap    -0.620821     2App   -0.509038  
       3App   -0.509023     8Ap    -0.416077     9Ap    -0.416069  

    Virtual:                                                              

      10Ap     0.190159     4App    0.206158    11Ap     0.236709  
      12Ap     0.236712     5App    0.304406     6App    0.304414  
      13Ap     0.309161    14Ap     0.401392    15Ap     0.401399  
      16Ap     0.552980     7App    0.574810    17Ap     0.666608  
      18Ap     0.666635    19Ap     0.743855    20Ap     0.813597  
      21Ap     0.813603    22Ap     0.845922     8App    0.846137  
       9App    0.846206    10App    0.876214    11App    0.901185  
      12App    0.901187    23Ap     0.918705    24Ap     0.918713  
      25Ap     1.006348    13App    1.380882    26Ap     1.400490  
      27Ap     1.400499    14App    1.439251    15App    1.439262  
      28Ap     1.442910    16App    1.715701    29Ap     1.721602  
      30Ap     1.721628    31Ap     1.833394    32Ap     1.833414  
      17App    1.839768    18App    1.839812    19App    1.870345  
      33Ap     1.982503    34Ap     1.992659    20App    2.006803  
      21App    2.006821    35Ap     2.071478    36Ap     2.071484  
      37Ap     2.219254    38Ap     2.219259    39Ap     2.382852  
      40Ap     2.383824    22App    2.408026    23App    2.408030  
      41Ap     2.582352    42Ap     2.582401    24App    2.614416  
      43Ap     2.693091    25App    2.773511    44Ap     2.917180  
      45Ap     2.917264    26App    3.103432    27App    3.103446  

    Final Occupation by Irrep:
             Ap   App 
    DOCC [     9,    3 ]

  @DF-RHF Final Energy:  -117.06645906751287

   => Energetics <=

    Nuclear Repulsion Energy =             75.2814648090140253
    One-Electron Energy =                -305.5326916745165704
    Two-Electron Energy =                 113.1847677979896645
    Total Energy =                       -117.0664590675128665

Computation Completed


Properties will be evaluated at   0.000000,   0.000000,   0.000000 [a0]

Properties computed using the SCF density matrix

  Nuclear Dipole Moment: [e a0]
     X:    -0.0002      Y:    -0.0002      Z:     0.0000

  Electronic Dipole Moment: [e a0]
     X:     0.0002      Y:     0.0001      Z:     0.0000

  Dipole Moment: [e a0]
     X:    -0.0000      Y:    -0.0000      Z:     0.0000     Total:     0.0000

  Dipole Moment: [D]
     X:    -0.0001      Y:    -0.0001      Z:     0.0000     Total:     0.0001


*** tstop() called on atlantis at Tue Apr 19 02:36:55 2022
Module time:
	user time   =       0.61 seconds =       0.01 minutes
	system time =       0.00 seconds =       0.00 minutes
	total time  =          1 seconds =       0.02 minutes
Total time:
	user time   =       0.61 seconds =       0.01 minutes
	system time =       0.00 seconds =       0.00 minutes
	total time  =          1 seconds =       0.02 minutes

*** tstart() called on atlantis
*** at Tue Apr 19 02:36:55 2022


  //>>>>>>>>>>>>>>>>>>>>>>>>>>>>>>>>>>>//
  //               DFMP2               //
  //<<<<<<<<<<<<<<<<<<<<<<<<<<<<<<<<<<<//

   => Loading Basis Set <=

    Name: (CC-PVDZ AUX)
    Role: RIFIT
    Keyword: DF_BASIS_MP2
    atoms 1-3 entry C          line   159 file /home/akrom/software/anaconda3/envs/ffpenv/share/psi4/basis/cc-pvdz-ri.gbs 
    atoms 4-9 entry H          line    19 file /home/akrom/software/anaconda3/envs/ffpenv/share/psi4/basis/cc-pvdz-ri.gbs 

	 --------------------------------------------------------
	                          DF-MP2                         
	      2nd-Order Density-Fitted Moller-Plesset Theory     
	              RMP2 Wavefunction,   1 Threads             
	                                                         
	        Rob Parrish, Justin Turney, Andy Simmonett,      
	           Ed Hohenstein, and C. David Sherrill          
	 --------------------------------------------------------

   => Auxiliary Basis Set <=

  Basis Set: (CC-PVDZ AUX)
    Blend: CC-PVDZ-RI
    Number of shells: 90
    Number of basis function: 252
    Number of Cartesian functions: 288
    Spherical Harmonics?: true
    Max angular momentum: 3

	 --------------------------------------------------------
	                 NBF =    72, NAUX =   252
	 --------------------------------------------------------
	   CLASS    FOCC     OCC    AOCC    AVIR     VIR    FVIR
	   PAIRS       0      12      12      60      60       0
	 --------------------------------------------------------

	-----------------------------------------------------------
	 ==================> DF-MP2 Energies <==================== 
	-----------------------------------------------------------
	 Reference Energy          =    -117.0664590675128665 [Eh]
	 Singles Energy            =      -0.0000000000000000 [Eh]
	 Same-Spin Energy          =      -0.1006744112173311 [Eh]
	 Opposite-Spin Energy      =      -0.3316621602677964 [Eh]
	 Correlation Energy        =      -0.4323365714851276 [Eh]
	 Total Energy              =    -117.4987956389979900 [Eh]
	-----------------------------------------------------------
	 ================> DF-SCS-MP2 Energies <================== 
	-----------------------------------------------------------
	 SCS Same-Spin Scale       =       0.3333333333333333 [-]
	 SCS Opposite-Spin Scale   =       1.2000000000000000 [-]
	 SCS Same-Spin Energy      =      -0.0335581370724437 [Eh]
	 SCS Opposite-Spin Energy  =      -0.3979945923213557 [Eh]
	 SCS Correlation Energy    =      -0.4315527293937994 [Eh]
	 SCS Total Energy          =    -117.4980117969066669 [Eh]
	-----------------------------------------------------------


*** tstop() called on atlantis at Tue Apr 19 02:36:55 2022
Module time:
	user time   =       0.13 seconds =       0.00 minutes
	system time =       0.01 seconds =       0.00 minutes
	total time  =          0 seconds =       0.00 minutes
Total time:
	user time   =       0.74 seconds =       0.01 minutes
	system time =       0.01 seconds =       0.00 minutes
	total time  =          1 seconds =       0.02 minutes
gradient() will perform analytic gradient computation.
    SCF Algorithm Type (re)set to DF.

*** tstart() called on atlantis
*** at Tue Apr 19 02:36:55 2022

   => Loading Basis Set <=

    Name: CC-PVDZ
    Role: ORBITAL
    Keyword: BASIS
    atoms 1-3 entry C          line   138 file /home/akrom/software/anaconda3/envs/ffpenv/share/psi4/basis/cc-pvdz.gbs 
    atoms 4-9 entry H          line    22 file /home/akrom/software/anaconda3/envs/ffpenv/share/psi4/basis/cc-pvdz.gbs 


         ---------------------------------------------------------
                                   SCF
               by Justin Turney, Rob Parrish, Andy Simmonett
                          and Daniel G. A. Smith
                              RHF Reference
                        1 Threads,    500 MiB Core
         ---------------------------------------------------------

  ==> Geometry <==

    Molecular point group: cs
    Full point group: Cs

    Geometry (in Angstrom), charge = 0, multiplicity = 1:

       Center              X                  Y                   Z               Mass       
    ------------   -----------------  -----------------  -----------------  -----------------
         C            0.321531939855     0.813261460475     0.000000000000    12.000000000000
         C           -0.865048060145    -0.128168539525     0.000000000000    12.000000000000
         C            0.543531939855    -0.685078539525     0.000000000000    12.000000000000
         H            0.537951939855     1.360691460475    -0.920390000000     1.007825032230
         H            0.537951939855     1.360691460475     0.920390000000     1.007825032230
         H           -1.447418060145    -0.214488539525     0.920340000000     1.007825032230
         H           -1.447418060145    -0.214488539525    -0.920340000000     1.007825032230
         H            0.909371939855    -1.146288539525    -0.920370000000     1.007825032230
         H            0.909371939855    -1.146288539525     0.920370000000     1.007825032230

  Running in cs symmetry.

  Rotational constants: A =      0.66472  B =      0.66470  C =      0.41647 [cm^-1]
  Rotational constants: A =  19927.70596  B =  19927.20236  C =  12485.44714 [MHz]
  Nuclear repulsion =   75.281464809014025

  Charge       = 0
  Multiplicity = 1
  Electrons    = 24
  Nalpha       = 12
  Nbeta        = 12

  ==> Algorithm <==

  SCF Algorithm Type is DF.
  DIIS enabled.
  MOM disabled.
  Fractional occupation disabled.
  Guess Type is SAD.
  Energy threshold   = 1.00e-10
  Density threshold  = 1.00e-10
  Integral threshold = 0.00e+00

  ==> Primary Basis <==

  Basis Set: CC-PVDZ
    Blend: CC-PVDZ
    Number of shells: 36
    Number of basis function: 72
    Number of Cartesian functions: 75
    Spherical Harmonics?: true
    Max angular momentum: 2

   => Loading Basis Set <=

    Name: (CC-PVDZ AUX)
    Role: JKFIT
    Keyword: DF_BASIS_SCF
    atoms 1-3 entry C          line   121 file /home/akrom/software/anaconda3/envs/ffpenv/share/psi4/basis/cc-pvdz-jkfit.gbs 
    atoms 4-9 entry H          line    51 file /home/akrom/software/anaconda3/envs/ffpenv/share/psi4/basis/cc-pvdz-jkfit.gbs 

  ==> Pre-Iterations <==

   -------------------------------------------------------
    Irrep   Nso     Nmo     Nalpha   Nbeta   Ndocc  Nsocc
   -------------------------------------------------------
     A'        45      45       0       0       0       0
     A"        27      27       0       0       0       0
   -------------------------------------------------------
    Total      72      72      12      12      12       0
   -------------------------------------------------------

  ==> Integral Setup <==

  DFHelper Memory: AOs need 0.015 GiB; user supplied 0.366 GiB. Using in-core AOs.

  ==> MemDFJK: Density-Fitted J/K Matrices <==

    J tasked:                   Yes
    K tasked:                   Yes
    wK tasked:                   No
    OpenMP threads:               1
    Memory [MiB]:               375
    Algorithm:                 Core
    Schwarz Cutoff:           1E-12
    Mask sparsity (%):       0.0000
    Fitting Condition:        1E-10

   => Auxiliary Basis Set <=

  Basis Set: (CC-PVDZ AUX)
    Blend: CC-PVDZ-JKFIT
    Number of shells: 126
    Number of basis function: 348
    Number of Cartesian functions: 393
    Spherical Harmonics?: true
    Max angular momentum: 3

  Minimum eigenvalue in the overlap matrix is 5.9278925342E-03.
  Using Symmetric Orthogonalization.

  SCF Guess: Superposition of Atomic Densities via on-the-fly atomic UHF.

  ==> Iterations <==

                           Total Energy        Delta E     RMS |[F,P]|

   @DF-RHF iter SAD:  -116.64824883277406   -1.16648e+02   0.00000e+00 
   @DF-RHF iter   1:  -116.99127166454771   -3.43023e-01   6.40833e-03 DIIS
   @DF-RHF iter   2:  -117.05314944774982   -6.18778e-02   2.92391e-03 DIIS
   @DF-RHF iter   3:  -117.06562992053732   -1.24805e-02   5.69540e-04 DIIS
   @DF-RHF iter   4:  -117.06644478593553   -8.14865e-04   6.06638e-05 DIIS
   @DF-RHF iter   5:  -117.06645839910965   -1.36132e-05   1.28622e-05 DIIS
   @DF-RHF iter   6:  -117.06645905032791   -6.51218e-07   2.03189e-06 DIIS
   @DF-RHF iter   7:  -117.06645906728380   -1.69559e-08   2.94751e-07 DIIS
   @DF-RHF iter   8:  -117.06645906760585   -3.22046e-10   3.07985e-08 DIIS
   @DF-RHF iter   9:  -117.06645906760889   -3.04112e-12   5.12982e-09 DIIS
   @DF-RHF iter  10:  -117.06645906760913   -2.41585e-13   9.65921e-10 DIIS
   @DF-RHF iter  11:  -117.06645906760909    4.26326e-14   2.45677e-10 DIIS
   @DF-RHF iter  12:  -117.06645906760917   -8.52651e-14   1.91502e-11 DIIS
  Energy and wave function converged.


  ==> Post-Iterations <==

    Orbital Energies [Eh]
    ---------------------

    Doubly Occupied:                                                      

       1Ap   -11.232380     2Ap   -11.231436     3Ap   -11.231431  
       4Ap    -1.126141     5Ap    -0.813681     6Ap    -0.813676  
       1App   -0.661805     7Ap    -0.620821     2App   -0.509038  
       3App   -0.509023     8Ap    -0.416077     9Ap    -0.416069  

    Virtual:                                                              

      10Ap     0.190159     4App    0.206158    11Ap     0.236709  
      12Ap     0.236712     5App    0.304406     6App    0.304414  
      13Ap     0.309161    14Ap     0.401392    15Ap     0.401399  
      16Ap     0.552980     7App    0.574810    17Ap     0.666608  
      18Ap     0.666635    19Ap     0.743855    20Ap     0.813597  
      21Ap     0.813603    22Ap     0.845922     8App    0.846137  
       9App    0.846206    10App    0.876214    11App    0.901185  
      12App    0.901187    23Ap     0.918705    24Ap     0.918713  
      25Ap     1.006348    13App    1.380882    26Ap     1.400490  
      27Ap     1.400499    14App    1.439251    15App    1.439262  
      28Ap     1.442910    16App    1.715701    29Ap     1.721602  
      30Ap     1.721628    31Ap     1.833394    32Ap     1.833414  
      17App    1.839768    18App    1.839812    19App    1.870345  
      33Ap     1.982503    34Ap     1.992659    20App    2.006803  
      21App    2.006821    35Ap     2.071478    36Ap     2.071484  
      37Ap     2.219254    38Ap     2.219259    39Ap     2.382852  
      40Ap     2.383824    22App    2.408026    23App    2.408030  
      41Ap     2.582352    42Ap     2.582401    24App    2.614416  
      43Ap     2.693091    25App    2.773511    44Ap     2.917180  
      45Ap     2.917264    26App    3.103432    27App    3.103446  

    Final Occupation by Irrep:
             Ap   App 
    DOCC [     9,    3 ]

  @DF-RHF Final Energy:  -117.06645906760917

   => Energetics <=

    Nuclear Repulsion Energy =             75.2814648090140253
    One-Electron Energy =                -305.5326918331670640
    Two-Electron Energy =                 113.1847679565438511
    Total Energy =                       -117.0664590676091734

Computation Completed


Properties will be evaluated at   0.000000,   0.000000,   0.000000 [a0]

Properties computed using the SCF density matrix

  Nuclear Dipole Moment: [e a0]
     X:    -0.0002      Y:    -0.0002      Z:     0.0000

  Electronic Dipole Moment: [e a0]
     X:     0.0002      Y:     0.0001      Z:     0.0000

  Dipole Moment: [e a0]
     X:    -0.0000      Y:    -0.0000      Z:     0.0000     Total:     0.0000

  Dipole Moment: [D]
     X:    -0.0001      Y:    -0.0001      Z:     0.0000     Total:     0.0001


*** tstop() called on atlantis at Tue Apr 19 02:36:55 2022
Module time:
	user time   =       0.58 seconds =       0.01 minutes
	system time =       0.01 seconds =       0.00 minutes
	total time  =          0 seconds =       0.00 minutes
Total time:
	user time   =       1.33 seconds =       0.02 minutes
	system time =       0.02 seconds =       0.00 minutes
	total time  =          1 seconds =       0.02 minutes

*** tstart() called on atlantis
*** at Tue Apr 19 02:36:55 2022


  //>>>>>>>>>>>>>>>>>>>>>>>>>>>>>>>>>>>//
  //               DFMP2               //
  //<<<<<<<<<<<<<<<<<<<<<<<<<<<<<<<<<<<//

   => Loading Basis Set <=

    Name: (CC-PVDZ AUX)
    Role: RIFIT
    Keyword: DF_BASIS_MP2
    atoms 1-3 entry C          line   159 file /home/akrom/software/anaconda3/envs/ffpenv/share/psi4/basis/cc-pvdz-ri.gbs 
    atoms 4-9 entry H          line    19 file /home/akrom/software/anaconda3/envs/ffpenv/share/psi4/basis/cc-pvdz-ri.gbs 

	 --------------------------------------------------------
	                          DF-MP2                         
	      2nd-Order Density-Fitted Moller-Plesset Theory     
	              RMP2 Wavefunction,   1 Threads             
	                                                         
	        Rob Parrish, Justin Turney, Andy Simmonett,      
	           Ed Hohenstein, and C. David Sherrill          
	 --------------------------------------------------------

   => Auxiliary Basis Set <=

  Basis Set: (CC-PVDZ AUX)
    Blend: CC-PVDZ-RI
    Number of shells: 90
    Number of basis function: 252
    Number of Cartesian functions: 288
    Spherical Harmonics?: true
    Max angular momentum: 3

	 --------------------------------------------------------
	                 NBF =    72, NAUX =   252
	 --------------------------------------------------------
	   CLASS    FOCC     OCC    AOCC    AVIR     VIR    FVIR
	   PAIRS       0      12      12      60      60       0
	 --------------------------------------------------------

  DFHelper Memory: AOs need 0.015 GiB; user supplied 0.366 GiB. Using in-core AOs.


         ------------------------------------------------------------
                                     CPHF                           
                                  Rob Parrish                       
         ------------------------------------------------------------

  ==> Geometry <==

    Molecular point group: cs
    Full point group: Cs

    Geometry (in Angstrom), charge = 0, multiplicity = 1:

       Center              X                  Y                   Z               Mass       
    ------------   -----------------  -----------------  -----------------  -----------------
         C            0.321531939855     0.813261460475     0.000000000000    12.000000000000
         C           -0.865048060145    -0.128168539525     0.000000000000    12.000000000000
         C            0.543531939855    -0.685078539525     0.000000000000    12.000000000000
         H            0.537951939855     1.360691460475    -0.920390000000     1.007825032230
         H            0.537951939855     1.360691460475     0.920390000000     1.007825032230
         H           -1.447418060145    -0.214488539525     0.920340000000     1.007825032230
         H           -1.447418060145    -0.214488539525    -0.920340000000     1.007825032230
         H            0.909371939855    -1.146288539525    -0.920370000000     1.007825032230
         H            0.909371939855    -1.146288539525     0.920370000000     1.007825032230

  Nuclear repulsion =   75.281464809014025
  Reference energy  = -117.066459067609173

  ==> Basis Set <==

  Basis Set: CC-PVDZ
    Blend: CC-PVDZ
    Number of shells: 36
    Number of basis function: 72
    Number of Cartesian functions: 75
    Spherical Harmonics?: true
    Max angular momentum: 2

  ==> CGRSolver (by Rob Parrish) <==

   Number of roots    =         1
   Preconditioning    =    JACOBI
   Convergence cutoff =     1E-06
   Maximum iterations =       100

  ==> CPHFRHamiltonian (by Rob Parrish) <== 

  ==> MemDFJK: Density-Fitted J/K Matrices <==

    J tasked:                   Yes
    K tasked:                   Yes
    wK tasked:                   No
    OpenMP threads:               1
    Memory [MiB]:               375
    Algorithm:                 Core
    Schwarz Cutoff:           1E-12
    Mask sparsity (%):       0.0000
    Fitting Condition:        1E-10

   => Auxiliary Basis Set <=

  Basis Set: (CC-PVDZ AUX)
    Blend: CC-PVDZ-JKFIT
    Number of shells: 126
    Number of basis function: 348
    Number of Cartesian functions: 393
    Spherical Harmonics?: true
    Max angular momentum: 3

  ==> CPHF Iterations <==

  => Iterations <=

             Iter  Converged  Remaining    Residual
  CGR           1          0          1   7.807E-02
  CGR           2          0          1   1.228E-02
  CGR           3          0          1   2.036E-03
  CGR           4          0          1   3.526E-04
  CGR           5          0          1   4.143E-05
  CGR           6          0          1   3.910E-06
  CGR           7          1          0   5.972E-07

    CGRSolver converged.

  ==> DFCorrGrad: Density-Fitted Correlated Gradients <==

    OpenMP threads:              1
    Integrals threads:           1
    Memory [GiB]:            0.366
    Schwarz Cutoff:          0E+00
    Fitting Condition:       1E-10

   => Auxiliary Basis Set <=

  Basis Set: (CC-PVDZ AUX)
    Blend: CC-PVDZ-JKFIT
    Number of shells: 126
    Number of basis function: 348
    Number of Cartesian functions: 393
    Spherical Harmonics?: true
    Max angular momentum: 3

	-----------------------------------------------------------
	 ==================> DF-MP2 Energies <==================== 
	-----------------------------------------------------------
	 Reference Energy          =    -117.0664590676091734 [Eh]
	 Singles Energy            =      -0.0000000000000000 [Eh]
	 Same-Spin Energy          =      -0.1006744106954082 [Eh]
	 Opposite-Spin Energy      =      -0.3316621580186782 [Eh]
	 Correlation Energy        =      -0.4323365687140864 [Eh]
	 Total Energy              =    -117.4987956363232655 [Eh]
	-----------------------------------------------------------
	 ================> DF-SCS-MP2 Energies <================== 
	-----------------------------------------------------------
	 SCS Same-Spin Scale       =       0.3333333333333333 [-]
	 SCS Opposite-Spin Scale   =       1.2000000000000000 [-]
	 SCS Same-Spin Energy      =      -0.0335581368984694 [Eh]
	 SCS Opposite-Spin Energy  =      -0.3979945896224139 [Eh]
	 SCS Correlation Energy    =      -0.4315527265208833 [Eh]
	 SCS Total Energy          =    -117.4980117941300506 [Eh]
	-----------------------------------------------------------


  -Total Gradient:
     Atom            X                  Y                   Z
    ------   -----------------  -----------------  -----------------
       1        0.000439347924     0.001113860351     0.000000000000
       2       -0.001159998677    -0.000169256375     0.000000000000
       3        0.000741291425    -0.000926953081     0.000000000000
       4        0.000089510042     0.000229567356    -0.000129919546
       5        0.000089510042     0.000229567356     0.000129919546
       6       -0.000251727983    -0.000039743030     0.000120616446
       7       -0.000251727983    -0.000039743030    -0.000120616446
       8        0.000151897605    -0.000198649774    -0.000126351286
       9        0.000151897605    -0.000198649774     0.000126351286


*** tstop() called on atlantis at Tue Apr 19 02:36:57 2022
Module time:
	user time   =       1.26 seconds =       0.02 minutes
	system time =       0.01 seconds =       0.00 minutes
	total time  =          2 seconds =       0.03 minutes
Total time:
	user time   =       2.59 seconds =       0.04 minutes
	system time =       0.03 seconds =       0.00 minutes
	total time  =          3 seconds =       0.05 minutes

  Based on options and gradient (rms=4.17E-04), recommend projecting translations and projecting rotations.
hessian() will perform frequency computation by finite difference of analytic gradients.

         ----------------------------------------------------------
                                   FINDIF
                     R. A. King and Jonathon Misiewicz
         ---------------------------------------------------------

  Using finite-differences of gradients to determine vibrational frequencies and 
  normal modes.  Resulting frequencies are only valid at stationary points.
    Generating geometries for use with 3-point formula.
    Displacement size will be 5.00e-03.
    Number of atoms is 9.
    Number of irreps is 2.
    Number of SALCs is 21.
    Translations projected? 1. Rotations projected? 1.
    Index of SALCs per irrep:
     1 :  0  1  2  3  4  5  6  7  8  9  10  11 
     2 :  12  13  14  15  16  17  18  19  20 
    Number of SALCs per irrep:
     Irrep 1: 12
     Irrep 2: 9
    Number of geometries (including reference) is 34.
    Number of displacements per irrep:
      Irrep 1: 24
      Irrep 2: 9

  //>>>>>>>>>>>>>>>>>>>>>>>>>>>>>>>>>>>//
  //    Loading displacement 1 of 34   //
  //<<<<<<<<<<<<<<<<<<<<<<<<<<<<<<<<<<<//
gradient() will perform analytic gradient computation.
    SCF Algorithm Type (re)set to DF.

*** tstart() called on atlantis
*** at Tue Apr 19 02:36:57 2022

   => Loading Basis Set <=

    Name: CC-PVDZ
    Role: ORBITAL
    Keyword: BASIS
    atoms 1-3 entry C          line   138 file /home/akrom/software/anaconda3/envs/ffpenv/share/psi4/basis/cc-pvdz.gbs 
    atoms 4-9 entry H          line    22 file /home/akrom/software/anaconda3/envs/ffpenv/share/psi4/basis/cc-pvdz.gbs 


         ---------------------------------------------------------
                                   SCF
               by Justin Turney, Rob Parrish, Andy Simmonett
                          and Daniel G. A. Smith
                              RHF Reference
                        1 Threads,    500 MiB Core
         ---------------------------------------------------------

  ==> Geometry <==

    Molecular point group: cs
    Full point group: Cs

    Geometry (in Angstrom), charge = 0, multiplicity = 1:

       Center              X                  Y                   Z               Mass       
    ------------   -----------------  -----------------  -----------------  -----------------
         C            0.321531939855     0.813261460475     0.000000000000    12.000000000000
         C           -0.865048060145    -0.128168539525     0.000000000000    12.000000000000
         C            0.543531939855    -0.685078539525     0.000000000000    12.000000000000
         H            0.537951939855     1.360691460475    -0.920390000000     1.007825032230
         H            0.537951939855     1.360691460475     0.920390000000     1.007825032230
         H           -1.447418060145    -0.214488539525     0.920340000000     1.007825032230
         H           -1.447418060145    -0.214488539525    -0.920340000000     1.007825032230
         H            0.909371939855    -1.146288539525    -0.920370000000     1.007825032230
         H            0.909371939855    -1.146288539525     0.920370000000     1.007825032230

  Running in cs symmetry.

  Rotational constants: A =      0.66472  B =      0.66470  C =      0.41647 [cm^-1]
  Rotational constants: A =  19927.70596  B =  19927.20236  C =  12485.44714 [MHz]
  Nuclear repulsion =   75.281464809014025

  Charge       = 0
  Multiplicity = 1
  Electrons    = 24
  Nalpha       = 12
  Nbeta        = 12

  ==> Algorithm <==

  SCF Algorithm Type is DF.
  DIIS enabled.
  MOM disabled.
  Fractional occupation disabled.
  Guess Type is SAD.
  Energy threshold   = 1.00e-10
  Density threshold  = 1.00e-10
  Integral threshold = 0.00e+00

  ==> Primary Basis <==

  Basis Set: CC-PVDZ
    Blend: CC-PVDZ
    Number of shells: 36
    Number of basis function: 72
    Number of Cartesian functions: 75
    Spherical Harmonics?: true
    Max angular momentum: 2

   => Loading Basis Set <=

    Name: (CC-PVDZ AUX)
    Role: JKFIT
    Keyword: DF_BASIS_SCF
    atoms 1-3 entry C          line   121 file /home/akrom/software/anaconda3/envs/ffpenv/share/psi4/basis/cc-pvdz-jkfit.gbs 
    atoms 4-9 entry H          line    51 file /home/akrom/software/anaconda3/envs/ffpenv/share/psi4/basis/cc-pvdz-jkfit.gbs 

  ==> Pre-Iterations <==

   -------------------------------------------------------
    Irrep   Nso     Nmo     Nalpha   Nbeta   Ndocc  Nsocc
   -------------------------------------------------------
     A'        45      45       0       0       0       0
     A"        27      27       0       0       0       0
   -------------------------------------------------------
    Total      72      72      12      12      12       0
   -------------------------------------------------------

  ==> Integral Setup <==

  DFHelper Memory: AOs need 0.015 GiB; user supplied 0.366 GiB. Using in-core AOs.

  ==> MemDFJK: Density-Fitted J/K Matrices <==

    J tasked:                   Yes
    K tasked:                   Yes
    wK tasked:                   No
    OpenMP threads:               1
    Memory [MiB]:               375
    Algorithm:                 Core
    Schwarz Cutoff:           1E-12
    Mask sparsity (%):       0.0000
    Fitting Condition:        1E-10

   => Auxiliary Basis Set <=

  Basis Set: (CC-PVDZ AUX)
    Blend: CC-PVDZ-JKFIT
    Number of shells: 126
    Number of basis function: 348
    Number of Cartesian functions: 393
    Spherical Harmonics?: true
    Max angular momentum: 3

  Minimum eigenvalue in the overlap matrix is 5.9278925342E-03.
  Using Symmetric Orthogonalization.

  SCF Guess: Superposition of Atomic Densities via on-the-fly atomic UHF.

  ==> Iterations <==

                           Total Energy        Delta E     RMS |[F,P]|

   @DF-RHF iter SAD:  -116.64824883277406   -1.16648e+02   0.00000e+00 
   @DF-RHF iter   1:  -116.99127166454771   -3.43023e-01   6.40833e-03 DIIS
   @DF-RHF iter   2:  -117.05314944774982   -6.18778e-02   2.92391e-03 DIIS
   @DF-RHF iter   3:  -117.06562992053732   -1.24805e-02   5.69540e-04 DIIS
   @DF-RHF iter   4:  -117.06644478593553   -8.14865e-04   6.06638e-05 DIIS
   @DF-RHF iter   5:  -117.06645839910965   -1.36132e-05   1.28622e-05 DIIS
   @DF-RHF iter   6:  -117.06645905032791   -6.51218e-07   2.03189e-06 DIIS
   @DF-RHF iter   7:  -117.06645906728380   -1.69559e-08   2.94751e-07 DIIS
   @DF-RHF iter   8:  -117.06645906760585   -3.22046e-10   3.07985e-08 DIIS
   @DF-RHF iter   9:  -117.06645906760889   -3.04112e-12   5.12982e-09 DIIS
   @DF-RHF iter  10:  -117.06645906760913   -2.41585e-13   9.65921e-10 DIIS
   @DF-RHF iter  11:  -117.06645906760909    4.26326e-14   2.45677e-10 DIIS
   @DF-RHF iter  12:  -117.06645906760917   -8.52651e-14   1.91502e-11 DIIS
  Energy and wave function converged.


  ==> Post-Iterations <==

    Orbital Energies [Eh]
    ---------------------

    Doubly Occupied:                                                      

       1Ap   -11.232380     2Ap   -11.231436     3Ap   -11.231431  
       4Ap    -1.126141     5Ap    -0.813681     6Ap    -0.813676  
       1App   -0.661805     7Ap    -0.620821     2App   -0.509038  
       3App   -0.509023     8Ap    -0.416077     9Ap    -0.416069  

    Virtual:                                                              

      10Ap     0.190159     4App    0.206158    11Ap     0.236709  
      12Ap     0.236712     5App    0.304406     6App    0.304414  
      13Ap     0.309161    14Ap     0.401392    15Ap     0.401399  
      16Ap     0.552980     7App    0.574810    17Ap     0.666608  
      18Ap     0.666635    19Ap     0.743855    20Ap     0.813597  
      21Ap     0.813603    22Ap     0.845922     8App    0.846137  
       9App    0.846206    10App    0.876214    11App    0.901185  
      12App    0.901187    23Ap     0.918705    24Ap     0.918713  
      25Ap     1.006348    13App    1.380882    26Ap     1.400490  
      27Ap     1.400499    14App    1.439251    15App    1.439262  
      28Ap     1.442910    16App    1.715701    29Ap     1.721602  
      30Ap     1.721628    31Ap     1.833394    32Ap     1.833414  
      17App    1.839768    18App    1.839812    19App    1.870345  
      33Ap     1.982503    34Ap     1.992659    20App    2.006803  
      21App    2.006821    35Ap     2.071478    36Ap     2.071484  
      37Ap     2.219254    38Ap     2.219259    39Ap     2.382852  
      40Ap     2.383824    22App    2.408026    23App    2.408030  
      41Ap     2.582352    42Ap     2.582401    24App    2.614416  
      43Ap     2.693091    25App    2.773511    44Ap     2.917180  
      45Ap     2.917264    26App    3.103432    27App    3.103446  

    Final Occupation by Irrep:
             Ap   App 
    DOCC [     9,    3 ]

  @DF-RHF Final Energy:  -117.06645906760917

   => Energetics <=

    Nuclear Repulsion Energy =             75.2814648090140253
    One-Electron Energy =                -305.5326918331670640
    Two-Electron Energy =                 113.1847679565438511
    Total Energy =                       -117.0664590676091734

Computation Completed


Properties will be evaluated at   0.000000,   0.000000,   0.000000 [a0]

Properties computed using the SCF density matrix

  Nuclear Dipole Moment: [e a0]
     X:    -0.0002      Y:    -0.0002      Z:     0.0000

  Electronic Dipole Moment: [e a0]
     X:     0.0002      Y:     0.0001      Z:     0.0000

  Dipole Moment: [e a0]
     X:    -0.0000      Y:    -0.0000      Z:     0.0000     Total:     0.0000

  Dipole Moment: [D]
     X:    -0.0001      Y:    -0.0001      Z:     0.0000     Total:     0.0001


*** tstop() called on atlantis at Tue Apr 19 02:36:58 2022
Module time:
	user time   =       0.59 seconds =       0.01 minutes
	system time =       0.01 seconds =       0.00 minutes
	total time  =          1 seconds =       0.02 minutes
Total time:
	user time   =       3.45 seconds =       0.06 minutes
	system time =       0.06 seconds =       0.00 minutes
	total time  =          4 seconds =       0.07 minutes

*** tstart() called on atlantis
*** at Tue Apr 19 02:36:58 2022


  //>>>>>>>>>>>>>>>>>>>>>>>>>>>>>>>>>>>//
  //               DFMP2               //
  //<<<<<<<<<<<<<<<<<<<<<<<<<<<<<<<<<<<//

   => Loading Basis Set <=

    Name: (CC-PVDZ AUX)
    Role: RIFIT
    Keyword: DF_BASIS_MP2
    atoms 1-3 entry C          line   159 file /home/akrom/software/anaconda3/envs/ffpenv/share/psi4/basis/cc-pvdz-ri.gbs 
    atoms 4-9 entry H          line    19 file /home/akrom/software/anaconda3/envs/ffpenv/share/psi4/basis/cc-pvdz-ri.gbs 

	 --------------------------------------------------------
	                          DF-MP2                         
	      2nd-Order Density-Fitted Moller-Plesset Theory     
	              RMP2 Wavefunction,   1 Threads             
	                                                         
	        Rob Parrish, Justin Turney, Andy Simmonett,      
	           Ed Hohenstein, and C. David Sherrill          
	 --------------------------------------------------------

   => Auxiliary Basis Set <=

  Basis Set: (CC-PVDZ AUX)
    Blend: CC-PVDZ-RI
    Number of shells: 90
    Number of basis function: 252
    Number of Cartesian functions: 288
    Spherical Harmonics?: true
    Max angular momentum: 3

	 --------------------------------------------------------
	                 NBF =    72, NAUX =   252
	 --------------------------------------------------------
	   CLASS    FOCC     OCC    AOCC    AVIR     VIR    FVIR
	   PAIRS       0      12      12      60      60       0
	 --------------------------------------------------------

  DFHelper Memory: AOs need 0.015 GiB; user supplied 0.366 GiB. Using in-core AOs.


         ------------------------------------------------------------
                                     CPHF                           
                                  Rob Parrish                       
         ------------------------------------------------------------

  ==> Geometry <==

    Molecular point group: cs
    Full point group: Cs

    Geometry (in Angstrom), charge = 0, multiplicity = 1:

       Center              X                  Y                   Z               Mass       
    ------------   -----------------  -----------------  -----------------  -----------------
         C            0.321531939855     0.813261460475     0.000000000000    12.000000000000
         C           -0.865048060145    -0.128168539525     0.000000000000    12.000000000000
         C            0.543531939855    -0.685078539525     0.000000000000    12.000000000000
         H            0.537951939855     1.360691460475    -0.920390000000     1.007825032230
         H            0.537951939855     1.360691460475     0.920390000000     1.007825032230
         H           -1.447418060145    -0.214488539525     0.920340000000     1.007825032230
         H           -1.447418060145    -0.214488539525    -0.920340000000     1.007825032230
         H            0.909371939855    -1.146288539525    -0.920370000000     1.007825032230
         H            0.909371939855    -1.146288539525     0.920370000000     1.007825032230

  Nuclear repulsion =   75.281464809014025
  Reference energy  = -117.066459067609173

  ==> Basis Set <==

  Basis Set: CC-PVDZ
    Blend: CC-PVDZ
    Number of shells: 36
    Number of basis function: 72
    Number of Cartesian functions: 75
    Spherical Harmonics?: true
    Max angular momentum: 2

  ==> CGRSolver (by Rob Parrish) <==

   Number of roots    =         1
   Preconditioning    =    JACOBI
   Convergence cutoff =     1E-06
   Maximum iterations =       100

  ==> CPHFRHamiltonian (by Rob Parrish) <== 

  ==> MemDFJK: Density-Fitted J/K Matrices <==

    J tasked:                   Yes
    K tasked:                   Yes
    wK tasked:                   No
    OpenMP threads:               1
    Memory [MiB]:               375
    Algorithm:                 Core
    Schwarz Cutoff:           1E-12
    Mask sparsity (%):       0.0000
    Fitting Condition:        1E-10

   => Auxiliary Basis Set <=

  Basis Set: (CC-PVDZ AUX)
    Blend: CC-PVDZ-JKFIT
    Number of shells: 126
    Number of basis function: 348
    Number of Cartesian functions: 393
    Spherical Harmonics?: true
    Max angular momentum: 3

  ==> CPHF Iterations <==

  => Iterations <=

             Iter  Converged  Remaining    Residual
  CGR           1          0          1   7.807E-02
  CGR           2          0          1   1.228E-02
  CGR           3          0          1   2.036E-03
  CGR           4          0          1   3.526E-04
  CGR           5          0          1   4.143E-05
  CGR           6          0          1   3.910E-06
  CGR           7          1          0   5.972E-07

    CGRSolver converged.

  ==> DFCorrGrad: Density-Fitted Correlated Gradients <==

    OpenMP threads:              1
    Integrals threads:           1
    Memory [GiB]:            0.366
    Schwarz Cutoff:          0E+00
    Fitting Condition:       1E-10

   => Auxiliary Basis Set <=

  Basis Set: (CC-PVDZ AUX)
    Blend: CC-PVDZ-JKFIT
    Number of shells: 126
    Number of basis function: 348
    Number of Cartesian functions: 393
    Spherical Harmonics?: true
    Max angular momentum: 3

	-----------------------------------------------------------
	 ==================> DF-MP2 Energies <==================== 
	-----------------------------------------------------------
	 Reference Energy          =    -117.0664590676091734 [Eh]
	 Singles Energy            =      -0.0000000000000000 [Eh]
	 Same-Spin Energy          =      -0.1006744106954082 [Eh]
	 Opposite-Spin Energy      =      -0.3316621580186782 [Eh]
	 Correlation Energy        =      -0.4323365687140864 [Eh]
	 Total Energy              =    -117.4987956363232655 [Eh]
	-----------------------------------------------------------
	 ================> DF-SCS-MP2 Energies <================== 
	-----------------------------------------------------------
	 SCS Same-Spin Scale       =       0.3333333333333333 [-]
	 SCS Opposite-Spin Scale   =       1.2000000000000000 [-]
	 SCS Same-Spin Energy      =      -0.0335581368984694 [Eh]
	 SCS Opposite-Spin Energy  =      -0.3979945896224139 [Eh]
	 SCS Correlation Energy    =      -0.4315527265208833 [Eh]
	 SCS Total Energy          =    -117.4980117941300506 [Eh]
	-----------------------------------------------------------


  -Total Gradient:
     Atom            X                  Y                   Z
    ------   -----------------  -----------------  -----------------
       1        0.000439347924     0.001113860351     0.000000000000
       2       -0.001159998677    -0.000169256375     0.000000000000
       3        0.000741291425    -0.000926953081     0.000000000000
       4        0.000089510042     0.000229567356    -0.000129919546
       5        0.000089510042     0.000229567356     0.000129919546
       6       -0.000251727983    -0.000039743030     0.000120616446
       7       -0.000251727983    -0.000039743030    -0.000120616446
       8        0.000151897605    -0.000198649774    -0.000126351286
       9        0.000151897605    -0.000198649774     0.000126351286


*** tstop() called on atlantis at Tue Apr 19 02:36:59 2022
Module time:
	user time   =       1.26 seconds =       0.02 minutes
	system time =       0.00 seconds =       0.00 minutes
	total time  =          1 seconds =       0.02 minutes
Total time:
	user time   =       4.71 seconds =       0.08 minutes
	system time =       0.06 seconds =       0.00 minutes
	total time  =          5 seconds =       0.08 minutes

  //>>>>>>>>>>>>>>>>>>>>>>>>>>>>>>>>>>>//
  //    Loading displacement 2 of 34   //
  //<<<<<<<<<<<<<<<<<<<<<<<<<<<<<<<<<<<//
gradient() will perform analytic gradient computation.
    SCF Algorithm Type (re)set to DF.

*** tstart() called on atlantis
*** at Tue Apr 19 02:36:59 2022

   => Loading Basis Set <=

    Name: CC-PVDZ
    Role: ORBITAL
    Keyword: BASIS
    atoms 1-3 entry C          line   138 file /home/akrom/software/anaconda3/envs/ffpenv/share/psi4/basis/cc-pvdz.gbs 
    atoms 4-9 entry H          line    22 file /home/akrom/software/anaconda3/envs/ffpenv/share/psi4/basis/cc-pvdz.gbs 


         ---------------------------------------------------------
                                   SCF
               by Justin Turney, Rob Parrish, Andy Simmonett
                          and Daniel G. A. Smith
                              RHF Reference
                        1 Threads,    500 MiB Core
         ---------------------------------------------------------

  ==> Geometry <==

    Molecular point group: cs
    Full point group: Cs

    Geometry (in Angstrom), charge = 0, multiplicity = 1:

       Center              X                  Y                   Z               Mass       
    ------------   -----------------  -----------------  -----------------  -----------------
         C            0.320981935461     0.813179232929     0.000000000000    12.000000000000
         C           -0.864778117207    -0.127947314912     0.000000000000    12.000000000000
         C            0.543659460418    -0.685217540638     0.000000000000    12.000000000000
         H            0.538602639069     1.360553886373    -0.920390000000     1.007825032230
         H            0.538602639069     1.360553886373     0.920390000000     1.007825032230
         H           -1.447170192407    -0.214118381478     0.920340000000     1.007825032230
         H           -1.447170192407    -0.214118381478    -0.920340000000     1.007825032230
         H            0.909381512053    -1.146521099385    -0.920370000000     1.007825032230
         H            0.909381512053    -1.146521099385     0.920370000000     1.007825032230

  Running in cs symmetry.

  Rotational constants: A =      0.66511  B =      0.66452  C =      0.41655 [cm^-1]
  Rotational constants: A =  19939.46144  B =  19921.88173  C =  12487.97026 [MHz]
  Nuclear repulsion =   75.286659304380962

  Charge       = 0
  Multiplicity = 1
  Electrons    = 24
  Nalpha       = 12
  Nbeta        = 12

  ==> Algorithm <==

  SCF Algorithm Type is DF.
  DIIS enabled.
  MOM disabled.
  Fractional occupation disabled.
  Guess Type is SAD.
  Energy threshold   = 1.00e-10
  Density threshold  = 1.00e-10
  Integral threshold = 0.00e+00

  ==> Primary Basis <==

  Basis Set: CC-PVDZ
    Blend: CC-PVDZ
    Number of shells: 36
    Number of basis function: 72
    Number of Cartesian functions: 75
    Spherical Harmonics?: true
    Max angular momentum: 2

   => Loading Basis Set <=

    Name: (CC-PVDZ AUX)
    Role: JKFIT
    Keyword: DF_BASIS_SCF
    atoms 1-3 entry C          line   121 file /home/akrom/software/anaconda3/envs/ffpenv/share/psi4/basis/cc-pvdz-jkfit.gbs 
    atoms 4-9 entry H          line    51 file /home/akrom/software/anaconda3/envs/ffpenv/share/psi4/basis/cc-pvdz-jkfit.gbs 

  ==> Pre-Iterations <==

   -------------------------------------------------------
    Irrep   Nso     Nmo     Nalpha   Nbeta   Ndocc  Nsocc
   -------------------------------------------------------
     A'        45      45       0       0       0       0
     A"        27      27       0       0       0       0
   -------------------------------------------------------
    Total      72      72      12      12      12       0
   -------------------------------------------------------

  ==> Integral Setup <==

  DFHelper Memory: AOs need 0.015 GiB; user supplied 0.366 GiB. Using in-core AOs.

  ==> MemDFJK: Density-Fitted J/K Matrices <==

    J tasked:                   Yes
    K tasked:                   Yes
    wK tasked:                   No
    OpenMP threads:               1
    Memory [MiB]:               375
    Algorithm:                 Core
    Schwarz Cutoff:           1E-12
    Mask sparsity (%):       0.0000
    Fitting Condition:        1E-10

   => Auxiliary Basis Set <=

  Basis Set: (CC-PVDZ AUX)
    Blend: CC-PVDZ-JKFIT
    Number of shells: 126
    Number of basis function: 348
    Number of Cartesian functions: 393
    Spherical Harmonics?: true
    Max angular momentum: 3

  Minimum eigenvalue in the overlap matrix is 5.9169040177E-03.
  Using Symmetric Orthogonalization.

  SCF Guess: Superposition of Atomic Densities via on-the-fly atomic UHF.

  ==> Iterations <==

                           Total Energy        Delta E     RMS |[F,P]|

   @DF-RHF iter SAD:  -116.64891185784519   -1.16649e+02   0.00000e+00 
   @DF-RHF iter   1:  -116.99123611066099   -3.42324e-01   6.41037e-03 DIIS
   @DF-RHF iter   2:  -117.05313907704205   -6.19030e-02   2.92576e-03 DIIS
   @DF-RHF iter   3:  -117.06563418132072   -1.24951e-02   5.69604e-04 DIIS
   @DF-RHF iter   4:  -117.06644936875917   -8.15187e-04   6.06789e-05 DIIS
   @DF-RHF iter   5:  -117.06646298916876   -1.36204e-05   1.28635e-05 DIIS
   @DF-RHF iter   6:  -117.06646364049035   -6.51322e-07   2.03283e-06 DIIS
   @DF-RHF iter   7:  -117.06646365743683   -1.69465e-08   3.02731e-07 DIIS
   @DF-RHF iter   8:  -117.06646365776143   -3.24604e-10   6.74425e-08 DIIS
   @DF-RHF iter   9:  -117.06646365776946   -8.02913e-12   1.65311e-08 DIIS
   @DF-RHF iter  10:  -117.06646365777013   -6.67910e-13   2.10108e-09 DIIS
   @DF-RHF iter  11:  -117.06646365777024   -1.13687e-13   2.23073e-10 DIIS
   @DF-RHF iter  12:  -117.06646365777007    1.70530e-13   3.75257e-11 DIIS
  Energy and wave function converged.


  ==> Post-Iterations <==

    Orbital Energies [Eh]
    ---------------------

    Doubly Occupied:                                                      

       1Ap   -11.232367     2Ap   -11.231433     3Ap   -11.231406  
       4Ap    -1.126259     5Ap    -0.813709     6Ap    -0.813605  
       1App   -0.661808     7Ap    -0.620883     2App   -0.509033  
       3App   -0.508903     8Ap    -0.416370     9Ap    -0.415875  

    Virtual:                                                              

      10Ap     0.190158     4App    0.206125    11Ap     0.236695  
      12Ap     0.236724     5App    0.304410     6App    0.304424  
      13Ap     0.309240    14Ap     0.401290    15Ap     0.401586  
      16Ap     0.552959     7App    0.574801    17Ap     0.666535  
      18Ap     0.666679    19Ap     0.743787    20Ap     0.813561  
      21Ap     0.813873     8App    0.845793    22Ap     0.845951  
       9App    0.846493    10App    0.876169    11App    0.901110  
      12App    0.901209    23Ap     0.918654    24Ap     0.918766  
      25Ap     1.006346    13App    1.380923    26Ap     1.400537  
      27Ap     1.400585    14App    1.439232    15App    1.439326  
      28Ap     1.442884    16App    1.715664    29Ap     1.721649  
      30Ap     1.721749    31Ap     1.833379    32Ap     1.833431  
      17App    1.839799    18App    1.839889    19App    1.870383  
      33Ap     1.982513    34Ap     1.992770    20App    2.006484  
      21App    2.006991    35Ap     2.071302    36Ap     2.071907  
      37Ap     2.219247    38Ap     2.219487    39Ap     2.382711  
      40Ap     2.384001    22App    2.407852    23App    2.408031  
      41Ap     2.582199    42Ap     2.582635    24App    2.614445  
      43Ap     2.692849    25App    2.773429    44Ap     2.916620  
      45Ap     2.917419    26App    3.102983    27App    3.104025  

    Final Occupation by Irrep:
             Ap   App 
    DOCC [     9,    3 ]

  @DF-RHF Final Energy:  -117.06646365777007

   => Energetics <=

    Nuclear Repulsion Energy =             75.2866593043809615
    One-Electron Energy =                -305.5429439591771938
    Two-Electron Energy =                 113.1898209970261462
    Total Energy =                       -117.0664636577700719

Computation Completed


Properties will be evaluated at   0.000000,   0.000000,   0.000000 [a0]

Properties computed using the SCF density matrix

  Nuclear Dipole Moment: [e a0]
     X:     0.0015      Y:    -0.0002      Z:     0.0000

  Electronic Dipole Moment: [e a0]
     X:    -0.0018      Y:     0.0004      Z:     0.0000

  Dipole Moment: [e a0]
     X:    -0.0003      Y:     0.0002      Z:     0.0000     Total:     0.0004

  Dipole Moment: [D]
     X:    -0.0007      Y:     0.0006      Z:     0.0000     Total:     0.0009


*** tstop() called on atlantis at Tue Apr 19 02:36:59 2022
Module time:
	user time   =       0.58 seconds =       0.01 minutes
	system time =       0.01 seconds =       0.00 minutes
	total time  =          0 seconds =       0.00 minutes
Total time:
	user time   =       5.30 seconds =       0.09 minutes
	system time =       0.07 seconds =       0.00 minutes
	total time  =          5 seconds =       0.08 minutes

*** tstart() called on atlantis
*** at Tue Apr 19 02:36:59 2022


  //>>>>>>>>>>>>>>>>>>>>>>>>>>>>>>>>>>>//
  //               DFMP2               //
  //<<<<<<<<<<<<<<<<<<<<<<<<<<<<<<<<<<<//

   => Loading Basis Set <=

    Name: (CC-PVDZ AUX)
    Role: RIFIT
    Keyword: DF_BASIS_MP2
    atoms 1-3 entry C          line   159 file /home/akrom/software/anaconda3/envs/ffpenv/share/psi4/basis/cc-pvdz-ri.gbs 
    atoms 4-9 entry H          line    19 file /home/akrom/software/anaconda3/envs/ffpenv/share/psi4/basis/cc-pvdz-ri.gbs 

	 --------------------------------------------------------
	                          DF-MP2                         
	      2nd-Order Density-Fitted Moller-Plesset Theory     
	              RMP2 Wavefunction,   1 Threads             
	                                                         
	        Rob Parrish, Justin Turney, Andy Simmonett,      
	           Ed Hohenstein, and C. David Sherrill          
	 --------------------------------------------------------

   => Auxiliary Basis Set <=

  Basis Set: (CC-PVDZ AUX)
    Blend: CC-PVDZ-RI
    Number of shells: 90
    Number of basis function: 252
    Number of Cartesian functions: 288
    Spherical Harmonics?: true
    Max angular momentum: 3

	 --------------------------------------------------------
	                 NBF =    72, NAUX =   252
	 --------------------------------------------------------
	   CLASS    FOCC     OCC    AOCC    AVIR     VIR    FVIR
	   PAIRS       0      12      12      60      60       0
	 --------------------------------------------------------

  DFHelper Memory: AOs need 0.015 GiB; user supplied 0.366 GiB. Using in-core AOs.


         ------------------------------------------------------------
                                     CPHF                           
                                  Rob Parrish                       
         ------------------------------------------------------------

  ==> Geometry <==

    Molecular point group: cs
    Full point group: Cs

    Geometry (in Angstrom), charge = 0, multiplicity = 1:

       Center              X                  Y                   Z               Mass       
    ------------   -----------------  -----------------  -----------------  -----------------
         C            0.320981935461     0.813179232929     0.000000000000    12.000000000000
         C           -0.864778117207    -0.127947314912     0.000000000000    12.000000000000
         C            0.543659460418    -0.685217540638     0.000000000000    12.000000000000
         H            0.538602639069     1.360553886373    -0.920390000000     1.007825032230
         H            0.538602639069     1.360553886373     0.920390000000     1.007825032230
         H           -1.447170192407    -0.214118381478     0.920340000000     1.007825032230
         H           -1.447170192407    -0.214118381478    -0.920340000000     1.007825032230
         H            0.909381512053    -1.146521099385    -0.920370000000     1.007825032230
         H            0.909381512053    -1.146521099385     0.920370000000     1.007825032230

  Nuclear repulsion =   75.286659304380962
  Reference energy  = -117.066463657770072

  ==> Basis Set <==

  Basis Set: CC-PVDZ
    Blend: CC-PVDZ
    Number of shells: 36
    Number of basis function: 72
    Number of Cartesian functions: 75
    Spherical Harmonics?: true
    Max angular momentum: 2

  ==> CGRSolver (by Rob Parrish) <==

   Number of roots    =         1
   Preconditioning    =    JACOBI
   Convergence cutoff =     1E-06
   Maximum iterations =       100

  ==> CPHFRHamiltonian (by Rob Parrish) <== 

  ==> MemDFJK: Density-Fitted J/K Matrices <==

    J tasked:                   Yes
    K tasked:                   Yes
    wK tasked:                   No
    OpenMP threads:               1
    Memory [MiB]:               375
    Algorithm:                 Core
    Schwarz Cutoff:           1E-12
    Mask sparsity (%):       0.0000
    Fitting Condition:        1E-10

   => Auxiliary Basis Set <=

  Basis Set: (CC-PVDZ AUX)
    Blend: CC-PVDZ-JKFIT
    Number of shells: 126
    Number of basis function: 348
    Number of Cartesian functions: 393
    Spherical Harmonics?: true
    Max angular momentum: 3

  ==> CPHF Iterations <==

  => Iterations <=

             Iter  Converged  Remaining    Residual
  CGR           1          0          1   7.808E-02
  CGR           2          0          1   1.229E-02
  CGR           3          0          1   2.035E-03
  CGR           4          0          1   3.524E-04
  CGR           5          0          1   4.155E-05
  CGR           6          0          1   4.566E-06
  CGR           7          0          1   1.411E-06
  CGR           8          1          0   2.933E-07

    CGRSolver converged.

  ==> DFCorrGrad: Density-Fitted Correlated Gradients <==

    OpenMP threads:              1
    Integrals threads:           1
    Memory [GiB]:            0.366
    Schwarz Cutoff:          0E+00
    Fitting Condition:       1E-10

   => Auxiliary Basis Set <=

  Basis Set: (CC-PVDZ AUX)
    Blend: CC-PVDZ-JKFIT
    Number of shells: 126
    Number of basis function: 348
    Number of Cartesian functions: 393
    Spherical Harmonics?: true
    Max angular momentum: 3

	-----------------------------------------------------------
	 ==================> DF-MP2 Energies <==================== 
	-----------------------------------------------------------
	 Reference Energy          =    -117.0664636577700719 [Eh]
	 Singles Energy            =      -0.0000000000000000 [Eh]
	 Same-Spin Energy          =      -0.1006747809014261 [Eh]
	 Opposite-Spin Energy      =      -0.3316575125833884 [Eh]
	 Correlation Energy        =      -0.4323322934848145 [Eh]
	 Total Energy              =    -117.4987959512548912 [Eh]
	-----------------------------------------------------------
	 ================> DF-SCS-MP2 Energies <================== 
	-----------------------------------------------------------
	 SCS Same-Spin Scale       =       0.3333333333333333 [-]
	 SCS Opposite-Spin Scale   =       1.2000000000000000 [-]
	 SCS Same-Spin Energy      =      -0.0335582603004754 [Eh]
	 SCS Opposite-Spin Energy  =      -0.3979890151000661 [Eh]
	 SCS Correlation Energy    =      -0.4315472754005414 [Eh]
	 SCS Total Energy          =    -117.4980109331706188 [Eh]
	-----------------------------------------------------------


  -Total Gradient:
     Atom            X                  Y                   Z
    ------   -----------------  -----------------  -----------------
       1       -0.000125433654     0.000817028749     0.000000000000
       2       -0.000856429397    -0.000001546266     0.000000000000
       3        0.000777395839    -0.000939871283     0.000000000000
       4        0.000183458991     0.000296542383    -0.000231620147
       5        0.000183458991     0.000296542383     0.000231620147
       6       -0.000234711622    -0.000016302032     0.000128545559
       7       -0.000234711622    -0.000016302032    -0.000128545559
       8        0.000153486236    -0.000218045951    -0.000122921323
       9        0.000153486236    -0.000218045951     0.000122921323


*** tstop() called on atlantis at Tue Apr 19 02:37:01 2022
Module time:
	user time   =       1.26 seconds =       0.02 minutes
	system time =       0.02 seconds =       0.00 minutes
	total time  =          2 seconds =       0.03 minutes
Total time:
	user time   =       6.56 seconds =       0.11 minutes
	system time =       0.09 seconds =       0.00 minutes
	total time  =          7 seconds =       0.12 minutes

  //>>>>>>>>>>>>>>>>>>>>>>>>>>>>>>>>>>>//
  //    Loading displacement 3 of 34   //
  //<<<<<<<<<<<<<<<<<<<<<<<<<<<<<<<<<<<//
gradient() will perform analytic gradient computation.
    SCF Algorithm Type (re)set to DF.

*** tstart() called on atlantis
*** at Tue Apr 19 02:37:01 2022

   => Loading Basis Set <=

    Name: CC-PVDZ
    Role: ORBITAL
    Keyword: BASIS
    atoms 1-3 entry C          line   138 file /home/akrom/software/anaconda3/envs/ffpenv/share/psi4/basis/cc-pvdz.gbs 
    atoms 4-9 entry H          line    22 file /home/akrom/software/anaconda3/envs/ffpenv/share/psi4/basis/cc-pvdz.gbs 


         ---------------------------------------------------------
                                   SCF
               by Justin Turney, Rob Parrish, Andy Simmonett
                          and Daniel G. A. Smith
                              RHF Reference
                        1 Threads,    500 MiB Core
         ---------------------------------------------------------

  ==> Geometry <==

    Molecular point group: cs
    Full point group: Cs

    Geometry (in Angstrom), charge = 0, multiplicity = 1:

       Center              X                  Y                   Z               Mass       
    ------------   -----------------  -----------------  -----------------  -----------------
         C            0.322081944250     0.813343688021     0.000000000000    12.000000000000
         C           -0.865318003082    -0.128389764139     0.000000000000    12.000000000000
         C            0.543404419293    -0.684939538412     0.000000000000    12.000000000000
         H            0.537301240642     1.360829034576    -0.920390000000     1.007825032230
         H            0.537301240642     1.360829034576     0.920390000000     1.007825032230
         H           -1.447665927882    -0.214858697572     0.920340000000     1.007825032230
         H           -1.447665927882    -0.214858697572    -0.920340000000     1.007825032230
         H            0.909362367658    -1.146055979665    -0.920370000000     1.007825032230
         H            0.909362367658    -1.146055979665     0.920370000000     1.007825032230

  Running in cs symmetry.

  Rotational constants: A =      0.66489  B =      0.66431  C =      0.41639 [cm^-1]
  Rotational constants: A =  19932.94970  B =  19915.53021  C =  12482.92073 [MHz]
  Nuclear repulsion =   75.276267816162189

  Charge       = 0
  Multiplicity = 1
  Electrons    = 24
  Nalpha       = 12
  Nbeta        = 12

  ==> Algorithm <==

  SCF Algorithm Type is DF.
  DIIS enabled.
  MOM disabled.
  Fractional occupation disabled.
  Guess Type is SAD.
  Energy threshold   = 1.00e-10
  Density threshold  = 1.00e-10
  Integral threshold = 0.00e+00

  ==> Primary Basis <==

  Basis Set: CC-PVDZ
    Blend: CC-PVDZ
    Number of shells: 36
    Number of basis function: 72
    Number of Cartesian functions: 75
    Spherical Harmonics?: true
    Max angular momentum: 2

   => Loading Basis Set <=

    Name: (CC-PVDZ AUX)
    Role: JKFIT
    Keyword: DF_BASIS_SCF
    atoms 1-3 entry C          line   121 file /home/akrom/software/anaconda3/envs/ffpenv/share/psi4/basis/cc-pvdz-jkfit.gbs 
    atoms 4-9 entry H          line    51 file /home/akrom/software/anaconda3/envs/ffpenv/share/psi4/basis/cc-pvdz-jkfit.gbs 

  ==> Pre-Iterations <==

   -------------------------------------------------------
    Irrep   Nso     Nmo     Nalpha   Nbeta   Ndocc  Nsocc
   -------------------------------------------------------
     A'        45      45       0       0       0       0
     A"        27      27       0       0       0       0
   -------------------------------------------------------
    Total      72      72      12      12      12       0
   -------------------------------------------------------

  ==> Integral Setup <==

  DFHelper Memory: AOs need 0.015 GiB; user supplied 0.366 GiB. Using in-core AOs.

  ==> MemDFJK: Density-Fitted J/K Matrices <==

    J tasked:                   Yes
    K tasked:                   Yes
    wK tasked:                   No
    OpenMP threads:               1
    Memory [MiB]:               375
    Algorithm:                 Core
    Schwarz Cutoff:           1E-12
    Mask sparsity (%):       0.0000
    Fitting Condition:        1E-10

   => Auxiliary Basis Set <=

  Basis Set: (CC-PVDZ AUX)
    Blend: CC-PVDZ-JKFIT
    Number of shells: 126
    Number of basis function: 348
    Number of Cartesian functions: 393
    Spherical Harmonics?: true
    Max angular momentum: 3

  Minimum eigenvalue in the overlap matrix is 5.9243290898E-03.
  Using Symmetric Orthogonalization.

  SCF Guess: Superposition of Atomic Densities via on-the-fly atomic UHF.

  ==> Iterations <==

                           Total Energy        Delta E     RMS |[F,P]|

   @DF-RHF iter SAD:  -116.64758556302272   -1.16648e+02   0.00000e+00 
   @DF-RHF iter   1:  -116.99130586900611   -3.43720e-01   6.40630e-03 DIIS
   @DF-RHF iter   2:  -117.05315852049961   -6.18527e-02   2.92207e-03 DIIS
   @DF-RHF iter   3:  -117.06562440645124   -1.24659e-02   5.69477e-04 DIIS
   @DF-RHF iter   4:  -117.06643895095144   -8.14545e-04   6.06493e-05 DIIS
   @DF-RHF iter   5:  -117.06645255702165   -1.36061e-05   1.28618e-05 DIIS
   @DF-RHF iter   6:  -117.06645320816895   -6.51147e-07   2.03370e-06 DIIS
   @DF-RHF iter   7:  -117.06645322513867   -1.69697e-08   3.02792e-07 DIIS
   @DF-RHF iter   8:  -117.06645322546396   -3.25286e-10   6.71935e-08 DIIS
   @DF-RHF iter   9:  -117.06645322547185   -7.88702e-12   1.65445e-08 DIIS
   @DF-RHF iter  10:  -117.06645322547249   -6.39488e-13   2.10107e-09 DIIS
   @DF-RHF iter  11:  -117.06645322547254   -5.68434e-14   2.22732e-10 DIIS
   @DF-RHF iter  12:  -117.06645322547237    1.70530e-13   3.73192e-11 DIIS
  Energy and wave function converged.


  ==> Post-Iterations <==

    Orbital Energies [Eh]
    ---------------------

    Doubly Occupied:                                                      

       1Ap   -11.232393     2Ap   -11.231460     3Ap   -11.231435  
       4Ap    -1.126023     5Ap    -0.813756     6Ap    -0.813644  
       1App   -0.661802     7Ap    -0.620758     2App   -0.509166  
       3App   -0.509019     8Ap    -0.416271     9Ap    -0.415778  

    Virtual:                                                              

      10Ap     0.190161     4App    0.206191    11Ap     0.236698  
      12Ap     0.236724     5App    0.304388     6App    0.304418  
      13Ap     0.309081    14Ap     0.401209    15Ap     0.401497  
      16Ap     0.553001     7App    0.574820    17Ap     0.666552  
      18Ap     0.666721    19Ap     0.743922    20Ap     0.813327  
      21Ap     0.813636     8App    0.845818    22Ap     0.845895  
       9App    0.846580    10App    0.876258    11App    0.901165  
      12App    0.901261    23Ap     0.918658    24Ap     0.918757  
      25Ap     1.006350    13App    1.380839    26Ap     1.400394  
      27Ap     1.400460    14App    1.439189    15App    1.439277  
      28Ap     1.442935    16App    1.715740    29Ap     1.721455  
      30Ap     1.721606    31Ap     1.833361    32Ap     1.833444  
      17App    1.839675    18App    1.839795    19App    1.870308  
      33Ap     1.982489    34Ap     1.992549    20App    2.006635  
      21App    2.007137    35Ap     2.071056    36Ap     2.071658  
      37Ap     2.219030    38Ap     2.219262    39Ap     2.382791  
      40Ap     2.383850    22App    2.408028    23App    2.408200  
      41Ap     2.582145    42Ap     2.582528    24App    2.614380  
      43Ap     2.693333    25App    2.773597    44Ap     2.916956  
      45Ap     2.917894    26App    3.102868    27App    3.103881  

    Final Occupation by Irrep:
             Ap   App 
    DOCC [     9,    3 ]

  @DF-RHF Final Energy:  -117.06645322547237

   => Energetics <=

    Nuclear Repulsion Energy =             75.2762678161621892
    One-Electron Energy =                -305.5224315923522909
    Two-Electron Energy =                 113.1797105507177150
    Total Energy =                       -117.0664532254723724

Computation Completed


Properties will be evaluated at   0.000000,   0.000000,   0.000000 [a0]

Properties computed using the SCF density matrix

  Nuclear Dipole Moment: [e a0]
     X:    -0.0019      Y:    -0.0002      Z:     0.0000

  Electronic Dipole Moment: [e a0]
     X:     0.0021      Y:    -0.0001      Z:     0.0000

  Dipole Moment: [e a0]
     X:     0.0002      Y:    -0.0003      Z:     0.0000     Total:     0.0004

  Dipole Moment: [D]
     X:     0.0006      Y:    -0.0007      Z:     0.0000     Total:     0.0009


*** tstop() called on atlantis at Tue Apr 19 02:37:01 2022
Module time:
	user time   =       0.60 seconds =       0.01 minutes
	system time =       0.00 seconds =       0.00 minutes
	total time  =          0 seconds =       0.00 minutes
Total time:
	user time   =       7.16 seconds =       0.12 minutes
	system time =       0.09 seconds =       0.00 minutes
	total time  =          7 seconds =       0.12 minutes

*** tstart() called on atlantis
*** at Tue Apr 19 02:37:01 2022


  //>>>>>>>>>>>>>>>>>>>>>>>>>>>>>>>>>>>//
  //               DFMP2               //
  //<<<<<<<<<<<<<<<<<<<<<<<<<<<<<<<<<<<//

   => Loading Basis Set <=

    Name: (CC-PVDZ AUX)
    Role: RIFIT
    Keyword: DF_BASIS_MP2
    atoms 1-3 entry C          line   159 file /home/akrom/software/anaconda3/envs/ffpenv/share/psi4/basis/cc-pvdz-ri.gbs 
    atoms 4-9 entry H          line    19 file /home/akrom/software/anaconda3/envs/ffpenv/share/psi4/basis/cc-pvdz-ri.gbs 

	 --------------------------------------------------------
	                          DF-MP2                         
	      2nd-Order Density-Fitted Moller-Plesset Theory     
	              RMP2 Wavefunction,   1 Threads             
	                                                         
	        Rob Parrish, Justin Turney, Andy Simmonett,      
	           Ed Hohenstein, and C. David Sherrill          
	 --------------------------------------------------------

   => Auxiliary Basis Set <=

  Basis Set: (CC-PVDZ AUX)
    Blend: CC-PVDZ-RI
    Number of shells: 90
    Number of basis function: 252
    Number of Cartesian functions: 288
    Spherical Harmonics?: true
    Max angular momentum: 3

	 --------------------------------------------------------
	                 NBF =    72, NAUX =   252
	 --------------------------------------------------------
	   CLASS    FOCC     OCC    AOCC    AVIR     VIR    FVIR
	   PAIRS       0      12      12      60      60       0
	 --------------------------------------------------------

  DFHelper Memory: AOs need 0.015 GiB; user supplied 0.366 GiB. Using in-core AOs.


         ------------------------------------------------------------
                                     CPHF                           
                                  Rob Parrish                       
         ------------------------------------------------------------

  ==> Geometry <==

    Molecular point group: cs
    Full point group: Cs

    Geometry (in Angstrom), charge = 0, multiplicity = 1:

       Center              X                  Y                   Z               Mass       
    ------------   -----------------  -----------------  -----------------  -----------------
         C            0.322081944250     0.813343688021     0.000000000000    12.000000000000
         C           -0.865318003082    -0.128389764139     0.000000000000    12.000000000000
         C            0.543404419293    -0.684939538412     0.000000000000    12.000000000000
         H            0.537301240642     1.360829034576    -0.920390000000     1.007825032230
         H            0.537301240642     1.360829034576     0.920390000000     1.007825032230
         H           -1.447665927882    -0.214858697572     0.920340000000     1.007825032230
         H           -1.447665927882    -0.214858697572    -0.920340000000     1.007825032230
         H            0.909362367658    -1.146055979665    -0.920370000000     1.007825032230
         H            0.909362367658    -1.146055979665     0.920370000000     1.007825032230

  Nuclear repulsion =   75.276267816162189
  Reference energy  = -117.066453225472372

  ==> Basis Set <==

  Basis Set: CC-PVDZ
    Blend: CC-PVDZ
    Number of shells: 36
    Number of basis function: 72
    Number of Cartesian functions: 75
    Spherical Harmonics?: true
    Max angular momentum: 2

  ==> CGRSolver (by Rob Parrish) <==

   Number of roots    =         1
   Preconditioning    =    JACOBI
   Convergence cutoff =     1E-06
   Maximum iterations =       100

  ==> CPHFRHamiltonian (by Rob Parrish) <== 

  ==> MemDFJK: Density-Fitted J/K Matrices <==

    J tasked:                   Yes
    K tasked:                   Yes
    wK tasked:                   No
    OpenMP threads:               1
    Memory [MiB]:               375
    Algorithm:                 Core
    Schwarz Cutoff:           1E-12
    Mask sparsity (%):       0.0000
    Fitting Condition:        1E-10

   => Auxiliary Basis Set <=

  Basis Set: (CC-PVDZ AUX)
    Blend: CC-PVDZ-JKFIT
    Number of shells: 126
    Number of basis function: 348
    Number of Cartesian functions: 393
    Spherical Harmonics?: true
    Max angular momentum: 3

  ==> CPHF Iterations <==

  => Iterations <=

             Iter  Converged  Remaining    Residual
  CGR           1          0          1   7.806E-02
  CGR           2          0          1   1.228E-02
  CGR           3          0          1   2.037E-03
  CGR           4          0          1   3.527E-04
  CGR           5          0          1   4.157E-05
  CGR           6          0          1   4.570E-06
  CGR           7          0          1   1.411E-06
  CGR           8          1          0   2.929E-07

    CGRSolver converged.

  ==> DFCorrGrad: Density-Fitted Correlated Gradients <==

    OpenMP threads:              1
    Integrals threads:           1
    Memory [GiB]:            0.366
    Schwarz Cutoff:          0E+00
    Fitting Condition:       1E-10

   => Auxiliary Basis Set <=

  Basis Set: (CC-PVDZ AUX)
    Blend: CC-PVDZ-JKFIT
    Number of shells: 126
    Number of basis function: 348
    Number of Cartesian functions: 393
    Spherical Harmonics?: true
    Max angular momentum: 3

	-----------------------------------------------------------
	 ==================> DF-MP2 Energies <==================== 
	-----------------------------------------------------------
	 Reference Energy          =    -117.0664532254723724 [Eh]
	 Singles Energy            =      -0.0000000000000000 [Eh]
	 Same-Spin Energy          =      -0.1006740785841277 [Eh]
	 Opposite-Spin Energy      =      -0.3316668877680581 [Eh]
	 Correlation Energy        =      -0.4323409663521859 [Eh]
	 Total Energy              =    -117.4987941918245582 [Eh]
	-----------------------------------------------------------
	 ================> DF-SCS-MP2 Energies <================== 
	-----------------------------------------------------------
	 SCS Same-Spin Scale       =       0.3333333333333333 [-]
	 SCS Opposite-Spin Scale   =       1.2000000000000000 [-]
	 SCS Same-Spin Energy      =      -0.0335580261947092 [Eh]
	 SCS Opposite-Spin Energy  =      -0.3980002653216698 [Eh]
	 SCS Correlation Energy    =      -0.4315582915163790 [Eh]
	 SCS Total Energy          =    -117.4980115169887540 [Eh]
	-----------------------------------------------------------


  -Total Gradient:
[...]
	 Opposite-Spin Energy      =      -0.3316621754259445 [Eh]
	 Correlation Energy        =      -0.4323365831504587 [Eh]
	 Total Energy              =    -117.4987929228546193 [Eh]
	-----------------------------------------------------------
	 ================> DF-SCS-MP2 Energies <================== 
	-----------------------------------------------------------
	 SCS Same-Spin Scale       =       0.3333333333333333 [-]
	 SCS Opposite-Spin Scale   =       1.2000000000000000 [-]
	 SCS Same-Spin Energy      =      -0.0335581359081714 [Eh]
	 SCS Opposite-Spin Energy  =      -0.3979946105111334 [Eh]
	 SCS Correlation Energy    =      -0.4315527464193048 [Eh]
	 SCS Total Energy          =    -117.4980090861234601 [Eh]
	-----------------------------------------------------------


  -Total Gradient:
     Atom            X                  Y                   Z
    ------   -----------------  -----------------  -----------------
       1        0.000439348442     0.001113929025     0.000007344334
       2       -0.001160552581    -0.000169463046     0.000484199706
       3        0.000741820039    -0.000929443093    -0.001349249262
       4        0.000086565748     0.000223322301    -0.000131528530
       5        0.000092451439     0.000235813980     0.000128306857
       6       -0.000061380256    -0.000034998897    -0.000180616514
       7       -0.000441372266    -0.000044407194    -0.000421114530
       8       -0.000225585620     0.000184974639     0.000607606140
       9        0.000528705054    -0.000579727716     0.000855051799


*** tstop() called on atlantis at Tue Apr 19 02:38:01 2022
Module time:
	user time   =       1.25 seconds =       0.02 minutes
	system time =       0.02 seconds =       0.00 minutes
	total time  =          1 seconds =       0.02 minutes
Total time:
	user time   =      65.78 seconds =       1.10 minutes
	system time =       0.63 seconds =       0.01 minutes
	total time  =         67 seconds =       1.12 minutes

         ----------------------------------------------------------
                                   FINDIF
                     R. A. King and Jonathon Misiewicz
         ---------------------------------------------------------

  Computing second-derivative from gradients using projected, 
  symmetry-adapted, cartesian coordinates.

  34 gradients passed in, including the reference geometry.
  Generating complete list of displacements from unique ones.

    Operation 2 takes plus displacements of irrep A" to minus ones.

-------------------------------------------------------------


  ==> Harmonic Vibrational Analysis <==

  non-mass-weighted Hessian:       Symmetric? True   Hermitian? True   Lin Dep Dim?  6 (0)
  projection of translations (True) and rotations (True) removed 6 degrees of freedom (6)
  total projector:                 Symmetric? True   Hermitian? True   Lin Dep Dim?  6 (6)
  mass-weighted Hessian:           Symmetric? True   Hermitian? True   Lin Dep Dim?  6 (0)
  pre-proj  low-frequency mode:    0.0000i [cm^-1]
  pre-proj  low-frequency mode:    0.0000i [cm^-1]
  pre-proj  low-frequency mode:    0.0000  [cm^-1]
  pre-proj  low-frequency mode:    0.0000  [cm^-1]
  pre-proj  low-frequency mode:    0.0000  [cm^-1]
  pre-proj  low-frequency mode:    0.0000  [cm^-1]
  pre-proj  all modes:['0.0000i' '0.0000i' '0.0000' '0.0000' '0.0000' '0.0000' '738.3114'
 '738.3300' '861.3569' '913.8069' '913.8420' '1060.6094' '1060.6232'
 '1078.1531' '1161.5847' '1211.2019' '1211.2024' '1238.0725' '1466.5999'
 '1466.6129' '1528.7745' '3190.8529' '3190.8741' '3201.6200' '3289.0664'
 '3289.0763' '3307.6993']
  projected mass-weighted Hessian: Symmetric? True   Hermitian? True   Lin Dep Dim?  6 (6)
  post-proj low-frequency mode:    0.0001i [cm^-1] (TR)
  post-proj low-frequency mode:    0.0000i [cm^-1] (TR)
  post-proj low-frequency mode:    0.0000i [cm^-1] (TR)
  post-proj low-frequency mode:    0.0000i [cm^-1] (TR)
  post-proj low-frequency mode:    0.0000  [cm^-1] (TR)
  post-proj low-frequency mode:    0.0000  [cm^-1] (TR)
  post-proj  all modes:['0.0001i' '0.0000i' '0.0000i' '0.0000i' '0.0000' '0.0000' '738.3114'
 '738.3300' '861.3569' '913.8069' '913.8420' '1060.6094' '1060.6232'
 '1078.1531' '1161.5847' '1211.2019' '1211.2024' '1238.0725' '1466.5999'
 '1466.6129' '1528.7745' '3190.8529' '3190.8741' '3201.6200' '3289.0664'
 '3289.0763' '3307.6993']

  Vibration                       7                   8                   9           
  Freq [cm^-1]                 738.3114            738.3300            861.3569       
  Irrep                          App                 App                 App          
  Reduced mass [u]              1.0237              1.0237              1.0437        
  Force const [mDyne/A]         0.3288              0.3288              0.4562        
  Turning point v=0 [a0]        0.3991              0.3991              0.3660        
  RMS dev v=0 [a0 u^1/2]        0.2855              0.2855              0.2644        
  Char temp [K]               1062.2658           1062.2925           1239.3008       
  ----------------------------------------------------------------------------------
      1   C               -0.00 -0.00  0.03   -0.00  0.00 -0.01   -0.00 -0.00 -0.03   
      2   C                0.00 -0.00 -0.02    0.00  0.00 -0.02    0.00  0.00 -0.03   
      3   C               -0.00 -0.00 -0.01    0.00 -0.00  0.03    0.00  0.00 -0.03   
      4   H               -0.01 -0.34 -0.17    0.43 -0.07  0.05    0.13  0.33  0.20   
      5   H                0.01  0.34 -0.17   -0.43  0.07  0.05   -0.13 -0.33  0.20   
      6   H                0.28 -0.27  0.13    0.18  0.34  0.13    0.35  0.05  0.20   
      7   H               -0.28  0.27  0.13   -0.18 -0.34  0.13   -0.35 -0.05  0.20   
      8   H                0.38  0.20  0.04   -0.11  0.32 -0.17    0.22 -0.28  0.20   
      9   H               -0.38 -0.20  0.04    0.11 -0.32 -0.17   -0.22  0.28  0.20   

  Vibration                       10                  11                  12          
  Freq [cm^-1]                 913.8069            913.8420           1060.6094       
  Irrep                           Ap                  Ap                  Ap          
  Reduced mass [u]              3.3273              3.3273              1.3163        
  Force const [mDyne/A]         1.6370              1.6372              0.8724        
  Turning point v=0 [a0]        0.1990              0.1990              0.2937        
  RMS dev v=0 [a0 u^1/2]        0.2567              0.2567              0.2382        
  Char temp [K]               1314.7646           1314.8152           1525.9807       
  ----------------------------------------------------------------------------------
      1   C               -0.18  0.17 -0.00   -0.17 -0.22  0.00   -0.08  0.06 -0.00   
      2   C                0.27  0.09 -0.00   -0.09  0.23  0.00    0.04 -0.03 -0.00   
      3   C               -0.03 -0.26  0.00    0.26 -0.06  0.00   -0.09 -0.09  0.00   
      4   H               -0.37  0.23 -0.01   -0.22 -0.16  0.03    0.38 -0.14 -0.01   
      5   H               -0.37  0.23  0.01   -0.22 -0.16 -0.03    0.38 -0.14  0.01   
      6   H                0.22  0.12 -0.03   -0.11  0.43  0.01   -0.01  0.14 -0.02   
      7   H                0.22  0.12  0.03   -0.11  0.43 -0.01   -0.01  0.14  0.02   
      8   H               -0.17 -0.34 -0.02    0.35  0.04 -0.02    0.43  0.34 -0.00   
      9   H               -0.17 -0.34  0.02    0.35  0.04  0.02    0.43  0.34  0.00   

  Vibration                       13                  14                  15          
  Freq [cm^-1]                1060.6232           1078.1531           1161.5847       
  Irrep                           Ap                  Ap                 App          
  Reduced mass [u]              1.3163              1.4254              1.0078        
  Force const [mDyne/A]         0.8724              0.9763              0.8012        
  Turning point v=0 [a0]        0.2937              0.2799              0.3207        
  RMS dev v=0 [a0 u^1/2]        0.2382              0.2363              0.2277        
  Char temp [K]               1526.0006           1551.2223           1671.2618       
  ----------------------------------------------------------------------------------
      1   C                0.10 -0.01 -0.00   -0.10  0.04 -0.00    0.00  0.00 -0.00   
      2   C                0.01 -0.13 -0.00    0.02 -0.11 -0.00   -0.00  0.00  0.00   
      3   C               -0.05  0.00  0.00    0.09  0.07  0.00    0.00 -0.00  0.00   
      4   H               -0.37  0.15 -0.01    0.37 -0.15 -0.00   -0.38  0.15  0.00   
      5   H               -0.37  0.15  0.01    0.37 -0.15  0.00    0.38 -0.15  0.00   
      6   H               -0.08  0.54  0.00   -0.06  0.40  0.00   -0.06  0.40  0.00   
      7   H               -0.08  0.54 -0.00   -0.06  0.40 -0.00    0.06 -0.40  0.00   
      8   H                0.11  0.10  0.02   -0.31 -0.25  0.00    0.32  0.25 -0.00   
      9   H                0.11  0.10 -0.02   -0.31 -0.25 -0.00   -0.32 -0.25 -0.00   

  Vibration                       16                  17                  18          
  Freq [cm^-1]                1211.2019           1211.2024           1238.0725       
  Irrep                          App                 App                  Ap          
  Reduced mass [u]              1.4460              1.4461              2.3782        
  Force const [mDyne/A]         1.2499              1.2499              2.1478        
  Turning point v=0 [a0]        0.2622              0.2622              0.2022        
  RMS dev v=0 [a0 u^1/2]        0.2229              0.2229              0.2205        
  Char temp [K]               1742.6498           1742.6506           1781.3106       
  ----------------------------------------------------------------------------------
      1   C                0.00 -0.00 -0.08   -0.00 -0.00  0.14   -0.07 -0.19 -0.00   
      2   C               -0.00  0.00 -0.08    0.00  0.00 -0.14    0.20  0.03  0.00   
      3   C                0.00  0.00  0.16   -0.00  0.00  0.00   -0.13  0.16 -0.00   
      4   H               -0.25  0.31  0.04   -0.31 -0.24 -0.07   -0.14 -0.35 -0.08   
      5   H                0.25 -0.31  0.04    0.31  0.24 -0.07   -0.14 -0.35  0.08   
      6   H                0.24 -0.31  0.04    0.31  0.24  0.07    0.37  0.05  0.08   
      7   H               -0.24  0.31  0.04   -0.31 -0.24  0.07    0.37  0.05 -0.08   
      8   H               -0.24  0.31 -0.08   -0.31 -0.24 -0.00   -0.23  0.29 -0.08   
      9   H                0.24 -0.31 -0.08    0.31  0.24 -0.00   -0.23  0.29  0.08   

  Vibration                       19                  20                  21          
  Freq [cm^-1]                1466.5999           1466.6129           1528.7745       
  Irrep                           Ap                  Ap                  Ap          
  Reduced mass [u]              1.0899              1.0899              1.4078        
  Force const [mDyne/A]         1.3813              1.3813              1.9386        
  Turning point v=0 [a0]        0.2744              0.2744              0.2365        
  RMS dev v=0 [a0 u^1/2]        0.2026              0.2026              0.1984        
  Char temp [K]               2110.1107           2110.1294           2199.5662       
  ----------------------------------------------------------------------------------
      1   C               -0.02 -0.06  0.00   -0.02 -0.01  0.00   -0.04 -0.10  0.00   
      2   C               -0.01 -0.01 -0.00   -0.07 -0.01  0.00    0.11  0.02 -0.00   
      3   C                0.03 -0.04  0.00   -0.04  0.03 -0.00   -0.07  0.09 -0.00   
      4   H                0.16  0.42  0.31    0.06  0.12  0.10    0.11  0.28  0.26   
      5   H                0.16  0.42 -0.31    0.06  0.12 -0.10    0.11  0.28 -0.26   
      6   H                0.10  0.03  0.07    0.46  0.06  0.32   -0.30 -0.04 -0.26   
      7   H                0.10  0.03 -0.07    0.46  0.06 -0.32   -0.30 -0.04  0.26   
      8   H               -0.21  0.28 -0.24    0.21 -0.25  0.22    0.19 -0.24  0.26   
      9   H               -0.21  0.28  0.24    0.21 -0.25 -0.22    0.19 -0.24 -0.26   

  Vibration                       22                  23                  24          
  Freq [cm^-1]                3190.8529           3190.8741           3201.6200       
  Irrep                           Ap                  Ap                  Ap          
  Reduced mass [u]              1.0509              1.0509              1.0672        
  Force const [mDyne/A]         6.3039              6.3040              6.4453        
  Turning point v=0 [a0]        0.1895              0.1895              0.1877        
  RMS dev v=0 [a0 u^1/2]        0.1374              0.1374              0.1371        
  Char temp [K]               4590.9269           4590.9574           4606.4183       
  ----------------------------------------------------------------------------------
      1   C                0.02  0.04  0.00    0.01  0.02 -0.00    0.02  0.04  0.00   
      2   C                0.01  0.00  0.00    0.05  0.01  0.00   -0.04 -0.01 -0.00   
      3   C               -0.03  0.03 -0.00    0.02 -0.02  0.00    0.03 -0.03 -0.00   
      4   H               -0.10 -0.26  0.45   -0.04 -0.11  0.19   -0.08 -0.19  0.35   
      5   H               -0.10 -0.26 -0.45   -0.04 -0.11 -0.19   -0.08 -0.19 -0.35   
      6   H               -0.04 -0.01  0.06   -0.29 -0.04  0.49    0.21  0.03 -0.35   
      7   H               -0.04 -0.01 -0.06   -0.29 -0.04 -0.49    0.21  0.03  0.35   
      8   H                0.15 -0.19 -0.39   -0.11  0.14  0.30   -0.13  0.16  0.35   
      9   H                0.15 -0.19  0.39   -0.11  0.14 -0.30   -0.13  0.16 -0.35   

  Vibration                       25                  26                  27          
  Freq [cm^-1]                3289.0664           3289.0763           3307.6993       
  Irrep                          App                 App                 App          
  Reduced mass [u]              1.1201              1.1201              1.1165        
  Force const [mDyne/A]         7.1392              7.1393              7.1973        
  Turning point v=0 [a0]        0.1808              0.1808              0.1806        
  RMS dev v=0 [a0 u^1/2]        0.1353              0.1353              0.1349        
  Char temp [K]               4732.2342           4732.2485           4759.0429       
  ----------------------------------------------------------------------------------
      1   C               -0.00 -0.00  0.02   -0.00  0.00 -0.08   -0.00  0.00 -0.06   
      2   C                0.00  0.00 -0.08   -0.00 -0.00  0.02    0.00  0.00 -0.06   
      3   C               -0.00  0.00  0.06    0.00  0.00  0.06   -0.00  0.00 -0.06   
      4   H                0.03  0.08 -0.13   -0.11 -0.27  0.47   -0.08 -0.20  0.34   
      5   H               -0.03 -0.08 -0.13    0.11  0.27  0.47    0.08  0.20  0.34   
      6   H               -0.30 -0.04  0.47    0.07  0.01 -0.12   -0.22 -0.03  0.34   
      7   H                0.30  0.04  0.47   -0.07 -0.01 -0.12    0.22  0.03  0.34   
      8   H                0.13 -0.17 -0.34    0.14 -0.17 -0.35   -0.14  0.17  0.34   
      9   H               -0.13  0.17 -0.34   -0.14  0.17 -0.35    0.14 -0.17  0.34   

  ==> Thermochemistry Components <==

  Entropy, S
    Electronic S            0.000 [cal/(mol K)]        0.000 [J/(mol K)]       0.00000000 [mEh/K] (multiplicity = 1)
    Translational S        37.135 [cal/(mol K)]      155.375 [J/(mol K)]       0.05917914 [mEh/K] (mol. weight = 42.0470 [u], P = 101325.00 [Pa])
    Rotational S           21.699 [cal/(mol K)]       90.789 [J/(mol K)]       0.03457982 [mEh/K] (symmetry no. = 1)
    Vibrational S           1.369 [cal/(mol K)]        5.730 [J/(mol K)]       0.00218243 [mEh/K]
  Total S                  60.204 [cal/(mol K)]      251.894 [J/(mol K)]       0.09594139 [mEh/K]
  Correction S              0.000 [cal/(mol K)]        0.000 [J/(mol K)]       0.00000000 [mEh/K]

  Constant volume heat capacity, Cv
    Electronic Cv           0.000 [cal/(mol K)]        0.000 [J/(mol K)]       0.00000000 [mEh/K]
    Translational Cv        2.981 [cal/(mol K)]       12.472 [J/(mol K)]       0.00475022 [mEh/K]
    Rotational Cv           2.981 [cal/(mol K)]       12.472 [J/(mol K)]       0.00475022 [mEh/K]
    Vibrational Cv          5.008 [cal/(mol K)]       20.952 [J/(mol K)]       0.00798016 [mEh/K]
  Total Cv                 10.969 [cal/(mol K)]       45.895 [J/(mol K)]       0.01748059 [mEh/K]
  Correction Cv             0.000 [cal/(mol K)]        0.000 [J/(mol K)]       0.00000000 [mEh/K]

  Constant pressure heat capacity, Cp
    Electronic Cp           0.000 [cal/(mol K)]        0.000 [J/(mol K)]       0.00000000 [mEh/K]
    Translational Cp        4.968 [cal/(mol K)]       20.786 [J/(mol K)]       0.00791703 [mEh/K]
    Rotational Cp           2.981 [cal/(mol K)]       12.472 [J/(mol K)]       0.00475022 [mEh/K]
    Vibrational Cp          5.008 [cal/(mol K)]       20.952 [J/(mol K)]       0.00798016 [mEh/K]
  Total Cp                 12.956 [cal/(mol K)]       54.210 [J/(mol K)]       0.02064740 [mEh/K]
  Correction Cp             0.000 [cal/(mol K)]        0.000 [J/(mol K)]       0.00000000 [mEh/K]

  ==> Thermochemistry Energy Analysis <==

  Raw electronic energy, E0
  Total E0, Electronic energy at well bottom at 0 [K]                 -117.49879564 [Eh]

  Zero-point energy, ZPE_vib = Sum_i nu_i / 2
    Electronic ZPE          0.000 [kcal/mol]        0.000 [kJ/mol]       0.00000000 [Eh]
    Translational ZPE       0.000 [kcal/mol]        0.000 [kJ/mol]       0.00000000 [Eh]
    Rotational ZPE          0.000 [kcal/mol]        0.000 [kJ/mol]       0.00000000 [Eh]
    Vibrational ZPE        51.634 [kcal/mol]      216.035 [kJ/mol]       0.08228347 [Eh]       18059.135 [cm^-1]
  Correction ZPE           51.634 [kcal/mol]      216.035 [kJ/mol]       0.08228347 [Eh]       18059.135 [cm^-1]
  Total ZPE, Electronic energy at 0 [K]                               -117.41651216 [Eh]

  Thermal Energy, E (includes ZPE)
    Electronic E            0.000 [kcal/mol]        0.000 [kJ/mol]       0.00000000 [Eh]
    Translational E         0.889 [kcal/mol]        3.718 [kJ/mol]       0.00141628 [Eh]
    Rotational E            0.889 [kcal/mol]        3.718 [kJ/mol]       0.00141628 [Eh]
    Vibrational E          51.965 [kcal/mol]      217.422 [kJ/mol]       0.08281175 [Eh]
  Correction E             53.743 [kcal/mol]      224.859 [kJ/mol]       0.08564431 [Eh]
  Total E, Electronic energy at  298.15 [K]                           -117.41315133 [Eh]

  Enthalpy, H_trans = E_trans + k_B * T
    Electronic H            0.000 [kcal/mol]        0.000 [kJ/mol]       0.00000000 [Eh]
    Translational H         1.481 [kcal/mol]        6.197 [kJ/mol]       0.00236046 [Eh]
    Rotational H            0.889 [kcal/mol]        3.718 [kJ/mol]       0.00141628 [Eh]
    Vibrational H          51.965 [kcal/mol]      217.422 [kJ/mol]       0.08281175 [Eh]
  Correction H             54.335 [kcal/mol]      227.338 [kJ/mol]       0.08658849 [Eh]
  Total H, Enthalpy at  298.15 [K]                                    -117.41220715 [Eh]

  Gibbs free energy, G = H - T * S
    Electronic G            0.000 [kcal/mol]        0.000 [kJ/mol]       0.00000000 [Eh]
    Translational G        -9.591 [kcal/mol]      -40.128 [kJ/mol]      -0.01528380 [Eh]
    Rotational G           -5.581 [kcal/mol]      -23.350 [kJ/mol]      -0.00889370 [Eh]
    Vibrational G          51.557 [kcal/mol]      215.714 [kJ/mol]       0.08216106 [Eh]
  Correction G             36.385 [kcal/mol]      152.236 [kJ/mol]       0.05798357 [Eh]
  Total G, Free enthalpy at  298.15 [K]                               -117.44081207 [Eh]

    Psi4 stopped on: Tuesday, 19 April 2022 02:38AM
    Psi4 wall time for execution: 0:01:06.86

*** Psi4 exiting successfully. Buy a developer a beer!
