
    -----------------------------------------------------------------------
          Psi4: An Open-Source Ab Initio Electronic Structure Package
                               Psi4 1.3.2 release

                         Git: Rev {HEAD} ecbda83 


    R. M. Parrish, L. A. Burns, D. G. A. Smith, A. C. Simmonett,
    A. E. DePrince III, E. G. Hohenstein, U. Bozkaya, A. Yu. Sokolov,
    R. Di Remigio, R. M. Richard, J. F. Gonthier, A. M. James,
    H. R. McAlexander, A. Kumar, M. Saitow, X. Wang, B. P. Pritchard,
    P. Verma, H. F. Schaefer III, K. Patkowski, R. A. King, E. F. Valeev,
    F. A. Evangelista, J. M. Turney, T. D. Crawford, and C. D. Sherrill,
    J. Chem. Theory Comput. 13(7) pp 3185--3197 (2017).
    (doi: 10.1021/acs.jctc.7b00174)


                         Additional Contributions by
    P. Kraus, H. Kruse, M. H. Lechner, M. C. Schieber, R. A. Shaw,
    A. Alenaizan, R. Galvelis, Z. L. Glick, S. Lehtola, and J. P. Misiewicz

    -----------------------------------------------------------------------


    Psi4 started on: Wednesday, 20 April 2022 01:44AM

    Process ID: 12711
    Host:       atlantis
    PSIDATADIR: /home/akrom/software/anaconda3/envs/ffpenv/share/psi4
    Memory:     500.0 MiB
    Threads:    1
    
  ==> Input File <==

--------------------------------------------------------------------------
set basis  6-311++G**
molecule {
0 1
   C       -1.22151       -0.69325        0.00000
   C       -1.21114        0.71122        0.00000
   C       -0.01037       -1.40452        0.00000
   C        0.01037        1.40452        0.00000
   C        1.21114       -0.71122        0.00000
   C        1.22151        0.69325        0.00000
   H       -2.17311       -1.23332        0.00000
   H       -2.15464        1.26533        0.00000
   H       -0.01848       -2.49865        0.00000
   H        0.01848        2.49865        0.00000
   H        2.15464       -1.26533        0.00000
   H        2.17311        1.23332        0.00000
}
energy('B3LYP')
frequencies('B3LYP')
--------------------------------------------------------------------------

*** tstart() called on atlantis
*** at Wed Apr 20 01:44:35 2022

   => Loading Basis Set <=

    Name: 6-311++G**
    Role: ORBITAL
    Keyword: BASIS
    atoms 1-6  entry C          line   119 file /home/akrom/software/anaconda3/envs/ffpenv/share/psi4/basis/6-311ppgss.gbs 
    atoms 7-12 entry H          line    42 file /home/akrom/software/anaconda3/envs/ffpenv/share/psi4/basis/6-311ppgss.gbs 


         ---------------------------------------------------------
                                   SCF
               by Justin Turney, Rob Parrish, Andy Simmonett
                          and Daniel G. A. Smith
                              RKS Reference
                        1 Threads,    500 MiB Core
         ---------------------------------------------------------

  ==> Geometry <==

    Molecular point group: c2h
    Full point group: C2h

    Geometry (in Angstrom), charge = 0, multiplicity = 1:

       Center              X                  Y                   Z               Mass       
    ------------   -----------------  -----------------  -----------------  -----------------
         C           -1.221510000000    -0.693250000000     0.000000000000    12.000000000000
         C           -1.211140000000     0.711220000000     0.000000000000    12.000000000000
         C           -0.010370000000    -1.404520000000     0.000000000000    12.000000000000
         C            0.010370000000     1.404520000000     0.000000000000    12.000000000000
         C            1.211140000000    -0.711220000000     0.000000000000    12.000000000000
         C            1.221510000000     0.693250000000     0.000000000000    12.000000000000
         H           -2.173110000000    -1.233320000000     0.000000000000     1.007825032230
         H           -2.154640000000     1.265330000000     0.000000000000     1.007825032230
         H           -0.018480000000    -2.498650000000     0.000000000000     1.007825032230
         H            0.018480000000     2.498650000000     0.000000000000     1.007825032230
         H            2.154640000000    -1.265330000000     0.000000000000     1.007825032230
         H            2.173110000000     1.233320000000     0.000000000000     1.007825032230

  Running in c2h symmetry.

  Rotational constants: A =      0.18753  B =      0.18752  C =      0.09376 [cm^-1]
  Rotational constants: A =   5621.92707  B =   5621.82252  C =   2810.93740 [MHz]
  Nuclear repulsion =  202.013308935380167

  Charge       = 0
  Multiplicity = 1
  Electrons    = 42
  Nalpha       = 21
  Nbeta        = 21

  ==> Algorithm <==

  SCF Algorithm Type is DF.
  DIIS enabled.
  MOM disabled.
  Fractional occupation disabled.
  Guess Type is SAD.
  Energy threshold   = 1.00e-06
  Density threshold  = 1.00e-06
  Integral threshold = 0.00e+00

  ==> Primary Basis <==

  Basis Set: 6-311++G**
    Blend: 6-311++G**
    Number of shells: 90
    Number of basis function: 174
    Number of Cartesian functions: 180
    Spherical Harmonics?: true
    Max angular momentum: 2

  ==> DFT Potential <==

   => Composite Functional: B3LYP <= 

    B3LYP Hyb-GGA Exchange-Correlation Functional

    P. J. Stephens, F. J. Devlin, C. F. Chabalowski, and M. J. Frisch, J. Phys. Chem. 98, 11623 (1994)

    Deriv               =              1
    GGA                 =           TRUE
    Meta                =          FALSE

    Exchange Hybrid     =           TRUE
    MP2 Hybrid          =          FALSE

   => Exchange Functionals <=

    0.0800   Slater exchange
    0.7200         Becke 88

   => Exact (HF) Exchange <=

    0.2000               HF 

   => Correlation Functionals <=

    0.1900   Vosko, Wilk & Nusair (VWN5_RPA)
    0.8100   Lee, Yang & Parr

   => Molecular Quadrature <=

    Radial Scheme          =       TREUTLER
    Pruning Scheme         =           FLAT
    Nuclear Scheme         =       TREUTLER

    BS radius alpha        =              1
    Pruning alpha          =              1
    Radial Points          =             75
    Spherical Points       =            302
    Total Points           =         271800
    Total Blocks           =           2142
    Max Points             =            256
    Max Functions          =            174

   => Loading Basis Set <=

    Name: (6-311++G** AUX)
    Role: JKFIT
    Keyword: DF_BASIS_SCF
    atoms 1-6  entry C          line   162 file /home/akrom/software/anaconda3/envs/ffpenv/share/psi4/basis/aug-cc-pvtz-jkfit.gbs 
    atoms 7-12 entry H          line    70 file /home/akrom/software/anaconda3/envs/ffpenv/share/psi4/basis/aug-cc-pvtz-jkfit.gbs 

  ==> Pre-Iterations <==

   -------------------------------------------------------
    Irrep   Nso     Nmo     Nalpha   Nbeta   Ndocc  Nsocc
   -------------------------------------------------------
     Ag        66      66       0       0       0       0
     Bg        21      21       0       0       0       0
     Au        21      21       0       0       0       0
     Bu        66      66       0       0       0       0
   -------------------------------------------------------
    Total     174     174      21      21      21       0
   -------------------------------------------------------

  ==> Integral Setup <==

  DFHelper Memory: AOs need 0.213 GiB; user supplied 0.213 GiB. Using in-core AOs.

  ==> MemDFJK: Density-Fitted J/K Matrices <==

    J tasked:                   Yes
    K tasked:                   Yes
    wK tasked:                   No
    OpenMP threads:               1
    Memory [MiB]:               217
    Algorithm:                 Core
    Schwarz Cutoff:           1E-12
    Mask sparsity (%):       1.2815
    Fitting Condition:        1E-10

   => Auxiliary Basis Set <=

  Basis Set: (6-311++G** AUX)
    Blend: AUG-CC-PVTZ-JKFIT
    Number of shells: 264
    Number of basis function: 900
    Number of Cartesian functions: 1116
    Spherical Harmonics?: true
    Max angular momentum: 4

  Cached 14.3% of DFT collocation blocks in 0.152 [GiB].

  Minimum eigenvalue in the overlap matrix is 1.1393482713E-06.
  Using Symmetric Orthogonalization.

  SCF Guess: Superposition of Atomic Densities via on-the-fly atomic UHF.

  ==> Iterations <==

                           Total Energy        Delta E     RMS |[F,P]|

   @DF-RKS iter SAD:  -231.61117489980131   -2.31611e+02   0.00000e+00 
   @DF-RKS iter   1:  -231.74804350326701   -1.36869e-01   1.02231e-02 DIIS
   @DF-RKS iter   2:  -231.26070083438401    4.87343e-01   1.39936e-02 DIIS
   @DF-RKS iter   3:  -232.30665166844190   -1.04595e+00   9.31608e-04 DIIS
   @DF-RKS iter   4:  -232.31021995783559   -3.56829e-03   2.06823e-04 DIIS
   @DF-RKS iter   5:  -232.31040747964934   -1.87522e-04   2.10258e-05 DIIS
   @DF-RKS iter   6:  -232.31040993903628   -2.45939e-06   7.99387e-07 DIIS
   @DF-RKS iter   7:  -232.31040994202027   -2.98400e-09   2.42564e-07 DIIS
  Energy and wave function converged.


  ==> Post-Iterations <==

    Orbital Energies [Eh]
    ---------------------

    Doubly Occupied:                                                      

       1Ag   -10.183297     1Bu   -10.183075     2Bu   -10.183069  
       2Ag   -10.182554     3Ag   -10.182547     3Bu   -10.182301  
       4Ag    -0.855335     4Bu    -0.748915     5Bu    -0.748913  
       5Ag    -0.606314     6Ag    -0.606304     7Ag    -0.525868  
       6Bu    -0.466250     7Bu    -0.450954     8Bu    -0.426354  
       9Bu    -0.426347     1Au    -0.370227     8Ag    -0.350789  
       9Ag    -0.350765     1Bg    -0.259216     2Bg    -0.259212  

    Virtual:                                                              

       2Au    -0.019906     3Au    -0.019893    10Ag    -0.007508  
      10Bu     0.009928    11Bu     0.009929    11Ag     0.032019  
      12Ag     0.032020    12Bu     0.059830     4Au     0.063158  
      13Ag     0.070603     3Bg     0.089689     4Bg     0.089696  
      13Bu     0.098137    14Ag     0.112866    15Ag     0.118370  
      16Ag     0.118373    14Bu     0.120318    15Bu     0.120320  
       5Bg     0.121018     5Au     0.139453     6Au     0.139464  
      16Bu     0.144203    17Bu     0.144208    18Bu     0.150211  
      17Ag     0.153822    18Ag     0.153824    19Bu     0.197078  
      20Bu     0.197081     6Bg     0.197656    19Ag     0.219628  
      20Ag     0.219642    21Ag     0.233275    22Ag     0.265044  
      21Bu     0.277248    22Bu     0.277263    23Bu     0.278730  
      23Ag     0.290348    24Ag     0.290350    24Bu     0.316562  
      25Ag     0.351413    26Ag     0.351422    25Bu     0.358347  
      26Bu     0.358360    27Bu     0.452033    27Ag     0.466380  
      28Bu     0.530237     7Au     0.530334    28Ag     0.539490  
      29Bu     0.546205    30Bu     0.546208    29Ag     0.560546  
      30Ag     0.560553     7Bg     0.574893     8Bg     0.574903  
      31Ag     0.605817     8Au     0.616970     9Au     0.616977  
       9Bg     0.671647    32Ag     0.716118    33Ag     0.716123  
      31Bu     0.729948    32Bu     0.729969    34Ag     0.776128  
      33Bu     0.791813    34Bu     0.836809    35Bu     0.836850  
      35Ag     0.861905    36Bu     0.875603    36Ag     0.877939  
      37Ag     0.877948    37Bu     0.888520    38Bu     0.888534  
      10Au     0.938801    10Bg     1.007751    38Ag     1.011090  
      39Ag     1.011118    11Bg     1.074131    12Bg     1.074144  
      11Au     1.133279    12Au     1.133292    40Ag     1.305423  
      39Bu     1.312789    40Bu     1.453565    41Bu     1.501319  
      42Bu     1.501337    41Ag     1.518242    13Bg     1.558807  
      13Au     1.562025    14Au     1.562029    42Ag     1.630885  
      43Ag     1.630892    43Bu     1.653913    44Bu     1.653929  
      15Au     1.709477    14Bg     1.765372    15Bg     1.765380  
      44Ag     1.807366    45Ag     1.807407    45Bu     1.833785  
      16Bg     1.916560    17Bg     1.916603    46Bu     1.938609  
      47Bu     1.938618    46Ag     1.956310    48Bu     1.975899  
      47Ag     2.010897    48Ag     2.010919    16Au     2.067256  
      17Au     2.067272    18Bg     2.302754    18Au     2.326074  
      49Ag     2.366021    50Ag     2.398348    51Ag     2.398367  
      49Bu     2.430333    50Bu     2.430338    51Bu     2.597000  
      52Bu     2.597045    19Au     2.644501    53Bu     2.654279  
      52Ag     2.683716    54Bu     2.719646    55Bu     2.719654  
      53Ag     2.746636    54Ag     2.746650    19Bg     2.786072  
      20Bg     2.786079    56Bu     2.792171    55Ag     2.878278  
      20Au     2.881566    21Au     2.881570    56Ag     2.920047  
      57Ag     2.920084    21Bg     3.064458    57Bu     3.079753  
      58Ag     3.316875    59Ag     3.316923    58Bu     3.457187  
      59Bu     3.457222    60Ag     3.478107    60Bu     3.628316  
      61Ag     3.974530    62Ag     3.974548    61Bu     4.057626  
      62Bu     4.140466    63Bu     4.140481    63Ag     4.822284  
      64Ag    23.574667    64Bu    23.943180    65Bu    23.943264  
      65Ag    24.052636    66Ag    24.052736    66Bu    24.157925  

    Final Occupation by Irrep:
             Ag    Bg    Au    Bu 
    DOCC [     9,    2,    1,    9 ]

  @DF-RKS Final Energy:  -232.31040994202027

   => Energetics <=

    Nuclear Repulsion Energy =            202.0133089353801665
    One-Electron Energy =                -711.3109933022308269
    Two-Electron Energy =                 305.1241088549639926
    DFT Exchange-Correlation Energy =     -28.1368344301336144
    Empirical Dispersion Energy =           0.0000000000000000
    VV10 Nonlocal Energy =                  0.0000000000000000
    Total Energy =                       -232.3104099420202715

Computation Completed


Properties will be evaluated at   0.000000,   0.000000,   0.000000 [a0]

Properties computed using the SCF density matrix

  Nuclear Dipole Moment: [e a0]
     X:    -0.0000      Y:    -0.0000      Z:     0.0000

  Electronic Dipole Moment: [e a0]
     X:     0.0000      Y:     0.0000      Z:     0.0000

  Dipole Moment: [e a0]
     X:    -0.0000      Y:    -0.0000      Z:     0.0000     Total:     0.0000

  Dipole Moment: [D]
     X:    -0.0000      Y:    -0.0000      Z:     0.0000     Total:     0.0000


*** tstop() called on atlantis at Wed Apr 20 01:44:48 2022
Module time:
	user time   =      13.33 seconds =       0.22 minutes
	system time =       0.14 seconds =       0.00 minutes
	total time  =         13 seconds =       0.22 minutes
Total time:
	user time   =      13.33 seconds =       0.22 minutes
	system time =       0.14 seconds =       0.00 minutes
	total time  =         13 seconds =       0.22 minutes
gradient() will perform analytic gradient computation.

*** tstart() called on atlantis
*** at Wed Apr 20 01:44:48 2022

   => Loading Basis Set <=

    Name: 6-311++G**
    Role: ORBITAL
    Keyword: BASIS
    atoms 1-6  entry C          line   119 file /home/akrom/software/anaconda3/envs/ffpenv/share/psi4/basis/6-311ppgss.gbs 
    atoms 7-12 entry H          line    42 file /home/akrom/software/anaconda3/envs/ffpenv/share/psi4/basis/6-311ppgss.gbs 


         ---------------------------------------------------------
                                   SCF
               by Justin Turney, Rob Parrish, Andy Simmonett
                          and Daniel G. A. Smith
                              RKS Reference
                        1 Threads,    500 MiB Core
         ---------------------------------------------------------

  ==> Geometry <==

    Molecular point group: c2h
    Full point group: C2h

    Geometry (in Angstrom), charge = 0, multiplicity = 1:

       Center              X                  Y                   Z               Mass       
    ------------   -----------------  -----------------  -----------------  -----------------
         C           -1.221510000000    -0.693250000000     0.000000000000    12.000000000000
         C           -1.211140000000     0.711220000000     0.000000000000    12.000000000000
         C           -0.010370000000    -1.404520000000     0.000000000000    12.000000000000
         C            0.010370000000     1.404520000000     0.000000000000    12.000000000000
         C            1.211140000000    -0.711220000000     0.000000000000    12.000000000000
         C            1.221510000000     0.693250000000     0.000000000000    12.000000000000
         H           -2.173110000000    -1.233320000000     0.000000000000     1.007825032230
         H           -2.154640000000     1.265330000000     0.000000000000     1.007825032230
         H           -0.018480000000    -2.498650000000     0.000000000000     1.007825032230
         H            0.018480000000     2.498650000000     0.000000000000     1.007825032230
         H            2.154640000000    -1.265330000000     0.000000000000     1.007825032230
         H            2.173110000000     1.233320000000     0.000000000000     1.007825032230

  Running in c2h symmetry.

  Rotational constants: A =      0.18753  B =      0.18752  C =      0.09376 [cm^-1]
  Rotational constants: A =   5621.92707  B =   5621.82252  C =   2810.93740 [MHz]
  Nuclear repulsion =  202.013308935380167

  Charge       = 0
  Multiplicity = 1
  Electrons    = 42
  Nalpha       = 21
  Nbeta        = 21

  ==> Algorithm <==

  SCF Algorithm Type is DF.
  DIIS enabled.
  MOM disabled.
  Fractional occupation disabled.
  Guess Type is SAD.
  Energy threshold   = 1.00e-08
  Density threshold  = 1.00e-08
  Integral threshold = 0.00e+00

  ==> Primary Basis <==

  Basis Set: 6-311++G**
    Blend: 6-311++G**
    Number of shells: 90
    Number of basis function: 174
    Number of Cartesian functions: 180
    Spherical Harmonics?: true
    Max angular momentum: 2

  ==> DFT Potential <==

   => Composite Functional: B3LYP <= 

    B3LYP Hyb-GGA Exchange-Correlation Functional

    P. J. Stephens, F. J. Devlin, C. F. Chabalowski, and M. J. Frisch, J. Phys. Chem. 98, 11623 (1994)

    Deriv               =              1
    GGA                 =           TRUE
    Meta                =          FALSE

    Exchange Hybrid     =           TRUE
    MP2 Hybrid          =          FALSE

   => Exchange Functionals <=

    0.0800   Slater exchange
    0.7200         Becke 88

   => Exact (HF) Exchange <=

    0.2000               HF 

   => Correlation Functionals <=

    0.1900   Vosko, Wilk & Nusair (VWN5_RPA)
    0.8100   Lee, Yang & Parr

   => Molecular Quadrature <=

    Radial Scheme          =       TREUTLER
    Pruning Scheme         =           FLAT
    Nuclear Scheme         =       TREUTLER

    BS radius alpha        =              1
    Pruning alpha          =              1
    Radial Points          =             75
    Spherical Points       =            302
    Total Points           =         271800
    Total Blocks           =           2142
    Max Points             =            256
    Max Functions          =            174

   => Loading Basis Set <=

    Name: (6-311++G** AUX)
    Role: JKFIT
    Keyword: DF_BASIS_SCF
    atoms 1-6  entry C          line   162 file /home/akrom/software/anaconda3/envs/ffpenv/share/psi4/basis/aug-cc-pvtz-jkfit.gbs 
    atoms 7-12 entry H          line    70 file /home/akrom/software/anaconda3/envs/ffpenv/share/psi4/basis/aug-cc-pvtz-jkfit.gbs 

  ==> Pre-Iterations <==

   -------------------------------------------------------
    Irrep   Nso     Nmo     Nalpha   Nbeta   Ndocc  Nsocc
   -------------------------------------------------------
     Ag        66      66       0       0       0       0
     Bg        21      21       0       0       0       0
     Au        21      21       0       0       0       0
     Bu        66      66       0       0       0       0
   -------------------------------------------------------
    Total     174     174      21      21      21       0
   -------------------------------------------------------

  ==> Integral Setup <==

  DFHelper Memory: AOs need 0.213 GiB; user supplied 0.213 GiB. Using in-core AOs.

  ==> MemDFJK: Density-Fitted J/K Matrices <==

    J tasked:                   Yes
    K tasked:                   Yes
    wK tasked:                   No
    OpenMP threads:               1
    Memory [MiB]:               217
    Algorithm:                 Core
    Schwarz Cutoff:           1E-12
    Mask sparsity (%):       1.2815
    Fitting Condition:        1E-10

   => Auxiliary Basis Set <=

  Basis Set: (6-311++G** AUX)
    Blend: AUG-CC-PVTZ-JKFIT
    Number of shells: 264
    Number of basis function: 900
    Number of Cartesian functions: 1116
    Spherical Harmonics?: true
    Max angular momentum: 4

  Cached 14.3% of DFT collocation blocks in 0.152 [GiB].

  Minimum eigenvalue in the overlap matrix is 1.1393482714E-06.
  Using Symmetric Orthogonalization.

  SCF Guess: Superposition of Atomic Densities via on-the-fly atomic UHF.

  ==> Iterations <==

                           Total Energy        Delta E     RMS |[F,P]|

   @DF-RKS iter SAD:  -231.61117489760869   -2.31611e+02   0.00000e+00 
   @DF-RKS iter   1:  -231.74804350097725   -1.36869e-01   1.02231e-02 DIIS
   @DF-RKS iter   2:  -231.26070083151174    4.87343e-01   1.39936e-02 DIIS
   @DF-RKS iter   3:  -232.30665166612536   -1.04595e+00   9.31608e-04 DIIS
   @DF-RKS iter   4:  -232.31021995552092   -3.56829e-03   2.06823e-04 DIIS
   @DF-RKS iter   5:  -232.31040747733527   -1.87522e-04   2.10258e-05 DIIS
   @DF-RKS iter   6:  -232.31040993672184   -2.45939e-06   7.99387e-07 DIIS
   @DF-RKS iter   7:  -232.31040993970606   -2.98422e-09   2.42564e-07 DIIS
   @DF-RKS iter   8:  -232.31040993985116   -1.45093e-10   1.67648e-07 DIIS
   @DF-RKS iter   9:  -232.31040993997991   -1.28750e-10   3.55750e-09 DIIS
  Energy and wave function converged.


  ==> Post-Iterations <==

    Orbital Energies [Eh]
    ---------------------

    Doubly Occupied:                                                      

       1Ag   -10.183296     1Bu   -10.183072     2Bu   -10.183071  
       2Ag   -10.182551     3Ag   -10.182549     3Bu   -10.182300  
       4Ag    -0.855334     4Bu    -0.748916     5Bu    -0.748911  
       5Ag    -0.606314     6Ag    -0.606304     7Ag    -0.525868  
       6Bu    -0.466250     7Bu    -0.450954     8Bu    -0.426353  
       9Bu    -0.426347     1Au    -0.370227     8Ag    -0.350788  
       9Ag    -0.350765     1Bg    -0.259217     2Bg    -0.259211  

    Virtual:                                                              

       2Au    -0.019905     3Au    -0.019894    10Ag    -0.007508  
      10Bu     0.009928    11Bu     0.009929    11Ag     0.032019  
      12Ag     0.032020    12Bu     0.059830     4Au     0.063158  
      13Ag     0.070603     3Bg     0.089689     4Bg     0.089696  
      13Bu     0.098137    14Ag     0.112866    15Ag     0.118370  
      16Ag     0.118373    14Bu     0.120319    15Bu     0.120319  
       5Bg     0.121018     5Au     0.139453     6Au     0.139464  
      16Bu     0.144204    17Bu     0.144208    18Bu     0.150213  
      17Ag     0.153822    18Ag     0.153824    19Bu     0.197078  
      20Bu     0.197081     6Bg     0.197656    19Ag     0.219629  
      20Ag     0.219642    21Ag     0.233275    22Ag     0.265044  
      21Bu     0.277248    22Bu     0.277264    23Bu     0.278736  
      23Ag     0.290348    24Ag     0.290350    24Bu     0.316567  
      25Ag     0.351413    26Ag     0.351422    25Bu     0.358347  
      26Bu     0.358360    27Bu     0.452033    27Ag     0.466380  
      28Bu     0.530238     7Au     0.530334    28Ag     0.539490  
      29Bu     0.546205    30Bu     0.546208    29Ag     0.560546  
      30Ag     0.560554     7Bg     0.574892     8Bg     0.574903  
      31Ag     0.605817     8Au     0.616971     9Au     0.616976  
       9Bg     0.671647    32Ag     0.716119    33Ag     0.716123  
      31Bu     0.729948    32Bu     0.729969    34Ag     0.776128  
      33Bu     0.791814    34Bu     0.836809    35Bu     0.836850  
      35Ag     0.861905    36Bu     0.875606    36Ag     0.877938  
      37Ag     0.877949    37Bu     0.888521    38Bu     0.888535  
      10Au     0.938801    10Bg     1.007751    38Ag     1.011090  
      39Ag     1.011118    11Bg     1.074133    12Bg     1.074144  
      11Au     1.133279    12Au     1.133292    40Ag     1.305423  
      39Bu     1.312790    40Bu     1.453565    41Bu     1.501320  
      42Bu     1.501336    41Ag     1.518242    13Bg     1.558807  
      13Au     1.562026    14Au     1.562029    42Ag     1.630886  
      43Ag     1.630891    43Bu     1.653914    44Bu     1.653930  
      15Au     1.709478    14Bg     1.765372    15Bg     1.765381  
      44Ag     1.807366    45Ag     1.807407    45Bu     1.833785  
      16Bg     1.916561    17Bg     1.916603    46Bu     1.938609  
      47Bu     1.938618    46Ag     1.956311    48Bu     1.975900  
      47Ag     2.010897    48Ag     2.010919    16Au     2.067257  
      17Au     2.067272    18Bg     2.302754    18Au     2.326074  
      49Ag     2.366022    50Ag     2.398348    51Ag     2.398367  
      49Bu     2.430334    50Bu     2.430339    51Bu     2.597001  
      52Bu     2.597044    19Au     2.644501    53Bu     2.654279  
      52Ag     2.683717    54Bu     2.719647    55Bu     2.719654  
      53Ag     2.746637    54Ag     2.746650    19Bg     2.786071  
      20Bg     2.786081    56Bu     2.792172    55Ag     2.878279  
      20Au     2.881567    21Au     2.881570    56Ag     2.920048  
      57Ag     2.920084    21Bg     3.064458    57Bu     3.079753  
      58Ag     3.316877    59Ag     3.316922    58Bu     3.457188  
      59Bu     3.457222    60Ag     3.478107    60Bu     3.628316  
      61Ag     3.974529    62Ag     3.974549    61Bu     4.057626  
      62Bu     4.140467    63Bu     4.140481    63Ag     4.822285  
      64Ag    23.574667    64Bu    23.943178    65Bu    23.943267  
      65Ag    24.052639    66Ag    24.052734    66Bu    24.157926  

    Final Occupation by Irrep:
             Ag    Bg    Au    Bu 
    DOCC [     9,    2,    1,    9 ]

  @DF-RKS Final Energy:  -232.31040993997991

   => Energetics <=

    Nuclear Repulsion Energy =            202.0133089353801665
    One-Electron Energy =                -711.3109870061746278
    Two-Electron Energy =                 305.1241009602550207
    DFT Exchange-Correlation Energy =     -28.1368328294404648
    Empirical Dispersion Energy =           0.0000000000000000
    VV10 Nonlocal Energy =                  0.0000000000000000
    Total Energy =                       -232.3104099399799054

Computation Completed


Properties will be evaluated at   0.000000,   0.000000,   0.000000 [a0]

Properties computed using the SCF density matrix

  Nuclear Dipole Moment: [e a0]
     X:    -0.0000      Y:    -0.0000      Z:     0.0000

  Electronic Dipole Moment: [e a0]
     X:     0.0000      Y:     0.0000      Z:     0.0000

  Dipole Moment: [e a0]
     X:    -0.0000      Y:    -0.0000      Z:     0.0000     Total:     0.0000

  Dipole Moment: [D]
     X:    -0.0000      Y:    -0.0000      Z:     0.0000     Total:     0.0000


*** tstop() called on atlantis at Wed Apr 20 01:45:04 2022
Module time:
	user time   =      16.00 seconds =       0.27 minutes
	system time =       0.10 seconds =       0.00 minutes
	total time  =         16 seconds =       0.27 minutes
Total time:
	user time   =      29.33 seconds =       0.49 minutes
	system time =       0.24 seconds =       0.00 minutes
	total time  =         29 seconds =       0.48 minutes

*** tstart() called on atlantis
*** at Wed Apr 20 01:45:04 2022


         ------------------------------------------------------------
                                   SCF GRAD                          
                          Rob Parrish, Justin Turney,                
                       Andy Simmonett, and Alex Sokolov              
         ------------------------------------------------------------

  ==> Geometry <==

    Molecular point group: c2h
    Full point group: C2h

    Geometry (in Angstrom), charge = 0, multiplicity = 1:

       Center              X                  Y                   Z               Mass       
    ------------   -----------------  -----------------  -----------------  -----------------
         C           -1.221510000000    -0.693250000000     0.000000000000    12.000000000000
         C           -1.211140000000     0.711220000000     0.000000000000    12.000000000000
         C           -0.010370000000    -1.404520000000     0.000000000000    12.000000000000
         C            0.010370000000     1.404520000000     0.000000000000    12.000000000000
         C            1.211140000000    -0.711220000000     0.000000000000    12.000000000000
         C            1.221510000000     0.693250000000     0.000000000000    12.000000000000
         H           -2.173110000000    -1.233320000000     0.000000000000     1.007825032230
         H           -2.154640000000     1.265330000000     0.000000000000     1.007825032230
         H           -0.018480000000    -2.498650000000     0.000000000000     1.007825032230
         H            0.018480000000     2.498650000000     0.000000000000     1.007825032230
         H            2.154640000000    -1.265330000000     0.000000000000     1.007825032230
         H            2.173110000000     1.233320000000     0.000000000000     1.007825032230

  Nuclear repulsion =  202.013308935380167

  ==> Basis Set <==

  Basis Set: 6-311++G**
    Blend: 6-311++G**
    Number of shells: 90
    Number of basis function: 174
    Number of Cartesian functions: 180
    Spherical Harmonics?: true
    Max angular momentum: 2

  ==> DFJKGrad: Density-Fitted SCF Gradients <==

    Gradient:                    1
    J tasked:                  Yes
    K tasked:                  Yes
    wK tasked:                  No
    OpenMP threads:              1
    Integrals threads:           1
    Memory [MiB]:              375
    Schwarz Cutoff:          0E+00
    Fitting Condition:       1E-10

   => Auxiliary Basis Set <=

  Basis Set: (6-311++G** AUX)
    Blend: AUG-CC-PVTZ-JKFIT
    Number of shells: 264
    Number of basis function: 900
    Number of Cartesian functions: 1116
    Spherical Harmonics?: true
    Max angular momentum: 4

  ==> DFT Potential <==

   => Composite Functional: B3LYP <= 

    B3LYP Hyb-GGA Exchange-Correlation Functional

    P. J. Stephens, F. J. Devlin, C. F. Chabalowski, and M. J. Frisch, J. Phys. Chem. 98, 11623 (1994)

    Deriv               =              1
    GGA                 =           TRUE
    Meta                =          FALSE

    Exchange Hybrid     =           TRUE
    MP2 Hybrid          =          FALSE

   => Exchange Functionals <=

    0.0800   Slater exchange
    0.7200         Becke 88

   => Exact (HF) Exchange <=

    0.2000               HF 

   => Correlation Functionals <=

    0.1900   Vosko, Wilk & Nusair (VWN5_RPA)
    0.8100   Lee, Yang & Parr

   => Molecular Quadrature <=

    Radial Scheme          =       TREUTLER
    Pruning Scheme         =           FLAT
    Nuclear Scheme         =       TREUTLER

    BS radius alpha        =              1
    Pruning alpha          =              1
    Radial Points          =             75
    Spherical Points       =            302
    Total Points           =         271800
    Total Blocks           =           2142
    Max Points             =            256
    Max Functions          =            174


  -Total Gradient:
     Atom            X                  Y                   Z
    ------   -----------------  -----------------  -----------------
       1       -0.002410921681    -0.001329794437     0.000000000000
       2       -0.002376937718     0.001352719613     0.000000000000
       3       -0.000014014219    -0.002814069923     0.000000000000
       4        0.000014014219     0.002814069923     0.000000000000
       5        0.002376937718    -0.001352719613     0.000000000000
       6        0.002410921681     0.001329794437     0.000000000000
       7       -0.005731659393    -0.003254025103    -0.000000000000
       8       -0.005683175682     0.003344481690     0.000000000000
       9       -0.000052111349    -0.006583497545     0.000000000000
      10        0.000052111349     0.006583497545     0.000000000000
      11        0.005683175682    -0.003344481690     0.000000000000
      12        0.005731659393     0.003254025103    -0.000000000000


*** tstop() called on atlantis at Wed Apr 20 01:45:11 2022
Module time:
	user time   =       7.01 seconds =       0.12 minutes
	system time =       0.11 seconds =       0.00 minutes
	total time  =          7 seconds =       0.12 minutes
Total time:
	user time   =      36.34 seconds =       0.61 minutes
	system time =       0.35 seconds =       0.01 minutes
	total time  =         36 seconds =       0.60 minutes

  Based on options and gradient (rms=2.92E-03), recommend projecting translations and projecting rotations.
hessian() will perform frequency computation by finite difference of analytic gradients.

         ----------------------------------------------------------
                                   FINDIF
                     R. A. King and Jonathon Misiewicz
         ---------------------------------------------------------

  Using finite-differences of gradients to determine vibrational frequencies and 
  normal modes.  Resulting frequencies are only valid at stationary points.
    Generating geometries for use with 3-point formula.
    Displacement size will be 5.00e-03.
    Number of atoms is 12.
    Number of irreps is 4.
    Number of SALCs is 30.
    Translations projected? 1. Rotations projected? 1.
    Index of SALCs per irrep:
     1 :  0  1  2  3  4  5  6  7  8  9  10 
     2 :  11  12  13  14 
     3 :  15  16  17  18  19 
     4 :  20  21  22  23  24  25  26  27  28  29 
    Number of SALCs per irrep:
     Irrep 1: 11
     Irrep 2: 4
     Irrep 3: 5
     Irrep 4: 10
    Number of geometries (including reference) is 42.
    Number of displacements per irrep:
      Irrep 1: 22
      Irrep 2: 4
      Irrep 3: 5
      Irrep 4: 10

  //>>>>>>>>>>>>>>>>>>>>>>>>>>>>>>>>>>>//
  //    Loading displacement 1 of 42   //
  //<<<<<<<<<<<<<<<<<<<<<<<<<<<<<<<<<<<//
gradient() will perform analytic gradient computation.

*** tstart() called on atlantis
*** at Wed Apr 20 01:45:12 2022

   => Loading Basis Set <=

    Name: 6-311++G**
    Role: ORBITAL
    Keyword: BASIS
    atoms 1-6  entry C          line   119 file /home/akrom/software/anaconda3/envs/ffpenv/share/psi4/basis/6-311ppgss.gbs 
    atoms 7-12 entry H          line    42 file /home/akrom/software/anaconda3/envs/ffpenv/share/psi4/basis/6-311ppgss.gbs 


         ---------------------------------------------------------
                                   SCF
               by Justin Turney, Rob Parrish, Andy Simmonett
                          and Daniel G. A. Smith
                              RKS Reference
                        1 Threads,    500 MiB Core
         ---------------------------------------------------------

  ==> Geometry <==

    Molecular point group: c2h
    Full point group: C2h

    Geometry (in Angstrom), charge = 0, multiplicity = 1:

       Center              X                  Y                   Z               Mass       
    ------------   -----------------  -----------------  -----------------  -----------------
         C           -1.221510000000    -0.693250000000     0.000000000000    12.000000000000
         C           -1.211140000000     0.711220000000     0.000000000000    12.000000000000
         C           -0.010370000000    -1.404520000000     0.000000000000    12.000000000000
         C            0.010370000000     1.404520000000     0.000000000000    12.000000000000
         C            1.211140000000    -0.711220000000     0.000000000000    12.000000000000
         C            1.221510000000     0.693250000000     0.000000000000    12.000000000000
         H           -2.173110000000    -1.233320000000     0.000000000000     1.007825032230
         H           -2.154640000000     1.265330000000     0.000000000000     1.007825032230
         H           -0.018480000000    -2.498650000000     0.000000000000     1.007825032230
         H            0.018480000000     2.498650000000     0.000000000000     1.007825032230
         H            2.154640000000    -1.265330000000     0.000000000000     1.007825032230
         H            2.173110000000     1.233320000000     0.000000000000     1.007825032230

  Running in c2h symmetry.

  Rotational constants: A =      0.18753  B =      0.18752  C =      0.09376 [cm^-1]
  Rotational constants: A =   5621.92707  B =   5621.82252  C =   2810.93740 [MHz]
  Nuclear repulsion =  202.013308935380167

  Charge       = 0
  Multiplicity = 1
  Electrons    = 42
  Nalpha       = 21
  Nbeta        = 21

  ==> Algorithm <==

  SCF Algorithm Type is DF.
  DIIS enabled.
  MOM disabled.
  Fractional occupation disabled.
  Guess Type is SAD.
  Energy threshold   = 1.00e-08
  Density threshold  = 1.00e-08
  Integral threshold = 0.00e+00

  ==> Primary Basis <==

  Basis Set: 6-311++G**
    Blend: 6-311++G**
    Number of shells: 90
    Number of basis function: 174
    Number of Cartesian functions: 180
    Spherical Harmonics?: true
    Max angular momentum: 2

  ==> DFT Potential <==

   => Composite Functional: B3LYP <= 

    B3LYP Hyb-GGA Exchange-Correlation Functional

    P. J. Stephens, F. J. Devlin, C. F. Chabalowski, and M. J. Frisch, J. Phys. Chem. 98, 11623 (1994)

    Deriv               =              1
    GGA                 =           TRUE
    Meta                =          FALSE

    Exchange Hybrid     =           TRUE
    MP2 Hybrid          =          FALSE

   => Exchange Functionals <=

    0.0800   Slater exchange
    0.7200         Becke 88

   => Exact (HF) Exchange <=

    0.2000               HF 

   => Correlation Functionals <=

    0.1900   Vosko, Wilk & Nusair (VWN5_RPA)
    0.8100   Lee, Yang & Parr

   => Molecular Quadrature <=

    Radial Scheme          =       TREUTLER
    Pruning Scheme         =           FLAT
    Nuclear Scheme         =       TREUTLER

    BS radius alpha        =              1
    Pruning alpha          =              1
    Radial Points          =             75
    Spherical Points       =            302
    Total Points           =         271800
    Total Blocks           =           2142
    Max Points             =            256
    Max Functions          =            174

   => Loading Basis Set <=

    Name: (6-311++G** AUX)
    Role: JKFIT
    Keyword: DF_BASIS_SCF
    atoms 1-6  entry C          line   162 file /home/akrom/software/anaconda3/envs/ffpenv/share/psi4/basis/aug-cc-pvtz-jkfit.gbs 
    atoms 7-12 entry H          line    70 file /home/akrom/software/anaconda3/envs/ffpenv/share/psi4/basis/aug-cc-pvtz-jkfit.gbs 

  ==> Pre-Iterations <==

   -------------------------------------------------------
    Irrep   Nso     Nmo     Nalpha   Nbeta   Ndocc  Nsocc
   -------------------------------------------------------
     Ag        66      66       0       0       0       0
     Bg        21      21       0       0       0       0
     Au        21      21       0       0       0       0
     Bu        66      66       0       0       0       0
   -------------------------------------------------------
    Total     174     174      21      21      21       0
   -------------------------------------------------------

  ==> Integral Setup <==

  DFHelper Memory: AOs need 0.213 GiB; user supplied 0.213 GiB. Using in-core AOs.

  ==> MemDFJK: Density-Fitted J/K Matrices <==

    J tasked:                   Yes
    K tasked:                   Yes
    wK tasked:                   No
    OpenMP threads:               1
    Memory [MiB]:               217
    Algorithm:                 Core
    Schwarz Cutoff:           1E-12
    Mask sparsity (%):       1.2815
    Fitting Condition:        1E-10

   => Auxiliary Basis Set <=

  Basis Set: (6-311++G** AUX)
    Blend: AUG-CC-PVTZ-JKFIT
    Number of shells: 264
    Number of basis function: 900
    Number of Cartesian functions: 1116
    Spherical Harmonics?: true
    Max angular momentum: 4

  Cached 14.3% of DFT collocation blocks in 0.152 [GiB].

  Minimum eigenvalue in the overlap matrix is 1.1393482713E-06.
  Using Symmetric Orthogonalization.

  SCF Guess: Superposition of Atomic Densities via on-the-fly atomic UHF.

  ==> Iterations <==

                           Total Energy        Delta E     RMS |[F,P]|

   @DF-RKS iter SAD:  -231.61117490228736   -2.31611e+02   0.00000e+00 
   @DF-RKS iter   1:  -231.74804350583227   -1.36869e-01   1.02231e-02 DIIS
   @DF-RKS iter   2:  -231.26070083666417    4.87343e-01   1.39936e-02 DIIS
   @DF-RKS iter   3:  -232.30665167097720   -1.04595e+00   9.31608e-04 DIIS
   @DF-RKS iter   4:  -232.31021996037171   -3.56829e-03   2.06823e-04 DIIS
   @DF-RKS iter   5:  -232.31040748218578   -1.87522e-04   2.10258e-05 DIIS
   @DF-RKS iter   6:  -232.31040994157235   -2.45939e-06   7.99387e-07 DIIS
   @DF-RKS iter   7:  -232.31040994455674   -2.98439e-09   2.42563e-07 DIIS
   @DF-RKS iter   8:  -232.31040994470197   -1.45235e-10   1.67648e-07 DIIS
   @DF-RKS iter   9:  -232.31040994483038   -1.28409e-10   3.55751e-09 DIIS
  Energy and wave function converged.


  ==> Post-Iterations <==

    Orbital Energies [Eh]
    ---------------------

    Doubly Occupied:                                                      

       1Ag   -10.183296     1Bu   -10.183072     2Bu   -10.183071  
       2Ag   -10.182551     3Ag   -10.182549     3Bu   -10.182300  
       4Ag    -0.855334     4Bu    -0.748916     5Bu    -0.748911  
       5Ag    -0.606314     6Ag    -0.606304     7Ag    -0.525868  
       6Bu    -0.466250     7Bu    -0.450954     8Bu    -0.426353  
       9Bu    -0.426347     1Au    -0.370227     8Ag    -0.350788  
       9Ag    -0.350765     1Bg    -0.259217     2Bg    -0.259211  

    Virtual:                                                              

       2Au    -0.019905     3Au    -0.019894    10Ag    -0.007508  
      10Bu     0.009928    11Bu     0.009929    11Ag     0.032019  
      12Ag     0.032020    12Bu     0.059830     4Au     0.063158  
      13Ag     0.070603     3Bg     0.089689     4Bg     0.089696  
      13Bu     0.098137    14Ag     0.112866    15Ag     0.118370  
      16Ag     0.118373    14Bu     0.120319    15Bu     0.120319  
       5Bg     0.121018     5Au     0.139453     6Au     0.139464  
      16Bu     0.144204    17Bu     0.144208    18Bu     0.150212  
      17Ag     0.153822    18Ag     0.153824    19Bu     0.197078  
      20Bu     0.197081     6Bg     0.197656    19Ag     0.219629  
      20Ag     0.219642    21Ag     0.233275    22Ag     0.265044  
      21Bu     0.277248    22Bu     0.277264    23Bu     0.278733  
      23Ag     0.290348    24Ag     0.290350    24Bu     0.316564  
      25Ag     0.351413    26Ag     0.351422    25Bu     0.358347  
      26Bu     0.358360    27Bu     0.452033    27Ag     0.466380  
      28Bu     0.530238     7Au     0.530334    28Ag     0.539490  
      29Bu     0.546205    30Bu     0.546208    29Ag     0.560546  
      30Ag     0.560554     7Bg     0.574892     8Bg     0.574903  
      31Ag     0.605817     8Au     0.616971     9Au     0.616976  
       9Bg     0.671647    32Ag     0.716119    33Ag     0.716123  
      31Bu     0.729948    32Bu     0.729969    34Ag     0.776128  
      33Bu     0.791814    34Bu     0.836809    35Bu     0.836850  
      35Ag     0.861905    36Bu     0.875604    36Ag     0.877939  
      37Ag     0.877949    37Bu     0.888521    38Bu     0.888535  
      10Au     0.938801    10Bg     1.007751    38Ag     1.011090  
      39Ag     1.011118    11Bg     1.074133    12Bg     1.074144  
      11Au     1.133279    12Au     1.133292    40Ag     1.305423  
      39Bu     1.312789    40Bu     1.453565    41Bu     1.501320  
      42Bu     1.501336    41Ag     1.518242    13Bg     1.558807  
      13Au     1.562026    14Au     1.562029    42Ag     1.630886  
      43Ag     1.630891    43Bu     1.653914    44Bu     1.653930  
      15Au     1.709478    14Bg     1.765372    15Bg     1.765381  
      44Ag     1.807366    45Ag     1.807407    45Bu     1.833785  
      16Bg     1.916561    17Bg     1.916603    46Bu     1.938609  
      47Bu     1.938618    46Ag     1.956311    48Bu     1.975900  
      47Ag     2.010897    48Ag     2.010919    16Au     2.067257  
      17Au     2.067272    18Bg     2.302754    18Au     2.326074  
      49Ag     2.366022    50Ag     2.398348    51Ag     2.398367  
      49Bu     2.430334    50Bu     2.430339    51Bu     2.597001  
      52Bu     2.597044    19Au     2.644501    53Bu     2.654279  
      52Ag     2.683717    54Bu     2.719647    55Bu     2.719654  
      53Ag     2.746637    54Ag     2.746650    19Bg     2.786071  
      20Bg     2.786081    56Bu     2.792171    55Ag     2.878279  
      20Au     2.881567    21Au     2.881570    56Ag     2.920048  
      57Ag     2.920084    21Bg     3.064458    57Bu     3.079753  
      58Ag     3.316877    59Ag     3.316922    58Bu     3.457188  
      59Bu     3.457222    60Ag     3.478107    60Bu     3.628316  
      61Ag     3.974529    62Ag     3.974549    61Bu     4.057626  
      62Bu     4.140467    63Bu     4.140481    63Ag     4.822285  
      64Ag    23.574667    64Bu    23.943178    65Bu    23.943267  
      65Ag    24.052639    66Ag    24.052734    66Bu    24.157926  

    Final Occupation by Irrep:
             Ag    Bg    Au    Bu 
    DOCC [     9,    2,    1,    9 ]

  @DF-RKS Final Energy:  -232.31040994483038

   => Energetics <=

    Nuclear Repulsion Energy =            202.0133089353801665
    One-Electron Energy =                -711.3109870081173085
    Two-Electron Energy =                 305.1241009573138854
    DFT Exchange-Correlation Energy =     -28.1368328294071652
    Empirical Dispersion Energy =           0.0000000000000000
    VV10 Nonlocal Energy =                  0.0000000000000000
    Total Energy =                       -232.3104099448304112

Computation Completed


Properties will be evaluated at   0.000000,   0.000000,   0.000000 [a0]

Properties computed using the SCF density matrix

  Nuclear Dipole Moment: [e a0]
     X:    -0.0000      Y:    -0.0000      Z:     0.0000

  Electronic Dipole Moment: [e a0]
     X:     0.0000      Y:     0.0000      Z:     0.0000

  Dipole Moment: [e a0]
     X:    -0.0000      Y:    -0.0000      Z:     0.0000     Total:     0.0000

  Dipole Moment: [D]
     X:    -0.0000      Y:    -0.0000      Z:     0.0000     Total:     0.0000


*** tstop() called on atlantis at Wed Apr 20 01:45:28 2022
Module time:
	user time   =      15.99 seconds =       0.27 minutes
	system time =       0.11 seconds =       0.00 minutes
	total time  =         16 seconds =       0.27 minutes
Total time:
	user time   =      52.60 seconds =       0.88 minutes
	system time =       0.48 seconds =       0.01 minutes
	total time  =         53 seconds =       0.88 minutes

*** tstart() called on atlantis
*** at Wed Apr 20 01:45:28 2022


         ------------------------------------------------------------
                                   SCF GRAD                          
                          Rob Parrish, Justin Turney,                
                       Andy Simmonett, and Alex Sokolov              
         ------------------------------------------------------------

  ==> Geometry <==

    Molecular point group: c2h
    Full point group: C2h

    Geometry (in Angstrom), charge = 0, multiplicity = 1:

       Center              X                  Y                   Z               Mass       
    ------------   -----------------  -----------------  -----------------  -----------------
         C           -1.221510000000    -0.693250000000     0.000000000000    12.000000000000
         C           -1.211140000000     0.711220000000     0.000000000000    12.000000000000
         C           -0.010370000000    -1.404520000000     0.000000000000    12.000000000000
         C            0.010370000000     1.404520000000     0.000000000000    12.000000000000
         C            1.211140000000    -0.711220000000     0.000000000000    12.000000000000
         C            1.221510000000     0.693250000000     0.000000000000    12.000000000000
         H           -2.173110000000    -1.233320000000     0.000000000000     1.007825032230
         H           -2.154640000000     1.265330000000     0.000000000000     1.007825032230
         H           -0.018480000000    -2.498650000000     0.000000000000     1.007825032230
         H            0.018480000000     2.498650000000     0.000000000000     1.007825032230
         H            2.154640000000    -1.265330000000     0.000000000000     1.007825032230
         H            2.173110000000     1.233320000000     0.000000000000     1.007825032230

  Nuclear repulsion =  202.013308935380167

  ==> Basis Set <==

  Basis Set: 6-311++G**
    Blend: 6-311++G**
    Number of shells: 90
    Number of basis function: 174
    Number of Cartesian functions: 180
    Spherical Harmonics?: true
    Max angular momentum: 2

  ==> DFJKGrad: Density-Fitted SCF Gradients <==

    Gradient:                    1
    J tasked:                  Yes
    K tasked:                  Yes
    wK tasked:                  No
    OpenMP threads:              1
    Integrals threads:           1
    Memory [MiB]:              375
    Schwarz Cutoff:          0E+00
    Fitting Condition:       1E-10

   => Auxiliary Basis Set <=

  Basis Set: (6-311++G** AUX)
    Blend: AUG-CC-PVTZ-JKFIT
    Number of shells: 264
    Number of basis function: 900
    Number of Cartesian functions: 1116
    Spherical Harmonics?: true
    Max angular momentum: 4

  ==> DFT Potential <==

   => Composite Functional: B3LYP <= 

    B3LYP Hyb-GGA Exchange-Correlation Functional

    P. J. Stephens, F. J. Devlin, C. F. Chabalowski, and M. J. Frisch, J. Phys. Chem. 98, 11623 (1994)

    Deriv               =              1
    GGA                 =           TRUE
    Meta                =          FALSE

    Exchange Hybrid     =           TRUE
    MP2 Hybrid          =          FALSE

   => Exchange Functionals <=

    0.0800   Slater exchange
    0.7200         Becke 88

   => Exact (HF) Exchange <=

    0.2000               HF 

   => Correlation Functionals <=

    0.1900   Vosko, Wilk & Nusair (VWN5_RPA)
    0.8100   Lee, Yang & Parr

   => Molecular Quadrature <=

    Radial Scheme          =       TREUTLER
    Pruning Scheme         =           FLAT
    Nuclear Scheme         =       TREUTLER

    BS radius alpha        =              1
    Pruning alpha          =              1
    Radial Points          =             75
    Spherical Points       =            302
    Total Points           =         271800
    Total Blocks           =           2142
    Max Points             =            256
    Max Functions          =            174


  -Total Gradient:
     Atom            X                  Y                   Z
    ------   -----------------  -----------------  -----------------
       1       -0.002410856633    -0.001329591649     0.000000000000
       2       -0.002376875800     0.001352520232     0.000000000000
       3       -0.000014010198    -0.002813869800     0.000000000000
       4        0.000014010198     0.002813869800     0.000000000000
       5        0.002376875800    -0.001352520232     0.000000000000
       6        0.002410856633     0.001329591649     0.000000000000
       7       -0.005730845123    -0.003253545118     0.000000000000
       8       -0.005682364695     0.003343987188     0.000000000000
       9       -0.000052104107    -0.006582666535     0.000000000000
      10        0.000052104107     0.006582666535     0.000000000000
      11        0.005682364695    -0.003343987188     0.000000000000
      12        0.005730845123     0.003253545118    -0.000000000000


*** tstop() called on atlantis at Wed Apr 20 01:45:35 2022
Module time:
	user time   =       7.05 seconds =       0.12 minutes
	system time =       0.11 seconds =       0.00 minutes
	total time  =          7 seconds =       0.12 minutes
Total time:
	user time   =      59.65 seconds =       0.99 minutes
	system time =       0.59 seconds =       0.01 minutes
	total time  =         60 seconds =       1.00 minutes

  //>>>>>>>>>>>>>>>>>>>>>>>>>>>>>>>>>>>//
  //    Loading displacement 2 of 42   //
  //<<<<<<<<<<<<<<<<<<<<<<<<<<<<<<<<<<<//
gradient() will perform analytic gradient computation.

*** tstart() called on atlantis
*** at Wed Apr 20 01:45:35 2022

   => Loading Basis Set <=

    Name: 6-311++G**
    Role: ORBITAL
    Keyword: BASIS
    atoms 1-6  entry C          line   119 file /home/akrom/software/anaconda3/envs/ffpenv/share/psi4/basis/6-311ppgss.gbs 
    atoms 7-12 entry H          line    42 file /home/akrom/software/anaconda3/envs/ffpenv/share/psi4/basis/6-311ppgss.gbs 


         ---------------------------------------------------------
                                   SCF
               by Justin Turney, Rob Parrish, Andy Simmonett
                          and Daniel G. A. Smith
                              RKS Reference
                        1 Threads,    500 MiB Core
         ---------------------------------------------------------

  ==> Geometry <==

    Molecular point group: c2h
    Full point group: C2h

    Geometry (in Angstrom), charge = 0, multiplicity = 1:

       Center              X                  Y                   Z               Mass       
    ------------   -----------------  -----------------  -----------------  -----------------
         C           -1.222032477591    -0.693313109608     0.000000000000    12.000000000000
         C           -1.211176745353     0.711157426160     0.000000000000    12.000000000000
         C           -0.010297435136    -1.404520535769     0.000000000000    12.000000000000
         C            0.010297435136     1.404520535769     0.000000000000    12.000000000000
         C            1.211176745353    -0.711157426160     0.000000000000    12.000000000000
         C            1.222032477591     0.693313109608     0.000000000000    12.000000000000
         H           -2.173046280225    -1.233432274252     0.000000000000     1.007825032230
         H           -2.154705373579     1.265218680005     0.000000000000     1.007825032230
         H           -0.018350906646    -2.498650954774     0.000000000000     1.007825032230
         H            0.018350906646     2.498650954774     0.000000000000     1.007825032230
         H            2.154705373579    -1.265218680005     0.000000000000     1.007825032230
         H            2.173046280225     1.233432274252     0.000000000000     1.007825032230

  Running in c2h symmetry.

  Rotational constants: A =      0.18753  B =      0.18745  C =      0.09375 [cm^-1]
  Rotational constants: A =   5621.97670  B =   5619.72613  C =   2810.42560 [MHz]
  Nuclear repulsion =  201.998047561272216

  Charge       = 0
  Multiplicity = 1
  Electrons    = 42
  Nalpha       = 21
  Nbeta        = 21

  ==> Algorithm <==

  SCF Algorithm Type is DF.
  DIIS enabled.
  MOM disabled.
  Fractional occupation disabled.
  Guess Type is SAD.
  Energy threshold   = 1.00e-08
  Density threshold  = 1.00e-08
  Integral threshold = 0.00e+00

  ==> Primary Basis <==

  Basis Set: 6-311++G**
    Blend: 6-311++G**
    Number of shells: 90
    Number of basis function: 174
    Number of Cartesian functions: 180
    Spherical Harmonics?: true
    Max angular momentum: 2

  ==> DFT Potential <==

   => Composite Functional: B3LYP <= 

    B3LYP Hyb-GGA Exchange-Correlation Functional

    P. J. Stephens, F. J. Devlin, C. F. Chabalowski, and M. J. Frisch, J. Phys. Chem. 98, 11623 (1994)

    Deriv               =              1
    GGA                 =           TRUE
    Meta                =          FALSE

    Exchange Hybrid     =           TRUE
    MP2 Hybrid          =          FALSE

   => Exchange Functionals <=

    0.0800   Slater exchange
    0.7200         Becke 88

   => Exact (HF) Exchange <=

    0.2000               HF 

   => Correlation Functionals <=

    0.1900   Vosko, Wilk & Nusair (VWN5_RPA)
    0.8100   Lee, Yang & Parr

   => Molecular Quadrature <=

    Radial Scheme          =       TREUTLER
    Pruning Scheme         =           FLAT
    Nuclear Scheme         =       TREUTLER

    BS radius alpha        =              1
    Pruning alpha          =              1
    Radial Points          =             75
    Spherical Points       =            302
    Total Points           =         271800
    Total Blocks           =           2142
    Max Points             =            256
    Max Functions          =            174

   => Loading Basis Set <=

    Name: (6-311++G** AUX)
    Role: JKFIT
    Keyword: DF_BASIS_SCF
    atoms 1-6  entry C          line   162 file /home/akrom/software/anaconda3/envs/ffpenv/share/psi4/basis/aug-cc-pvtz-jkfit.gbs 
    atoms 7-12 entry H          line    70 file /home/akrom/software/anaconda3/envs/ffpenv/share/psi4/basis/aug-cc-pvtz-jkfit.gbs 

  ==> Pre-Iterations <==

   -------------------------------------------------------
    Irrep   Nso     Nmo     Nalpha   Nbeta   Ndocc  Nsocc
   -------------------------------------------------------
     Ag        66      66       0       0       0       0
     Bg        21      21       0       0       0       0
     Au        21      21       0       0       0       0
     Bu        66      66       0       0       0       0
   -------------------------------------------------------
    Total     174     174      21      21      21       0
   -------------------------------------------------------

  ==> Integral Setup <==

  DFHelper Memory: AOs need 0.213 GiB; user supplied 0.213 GiB. Using in-core AOs.

  ==> MemDFJK: Density-Fitted J/K Matrices <==

    J tasked:                   Yes
    K tasked:                   Yes
    wK tasked:                   No
    OpenMP threads:               1
    Memory [MiB]:               217
    Algorithm:                 Core
    Schwarz Cutoff:           1E-12
    Mask sparsity (%):       1.2815
    Fitting Condition:        1E-10

   => Auxiliary Basis Set <=

  Basis Set: (6-311++G** AUX)
    Blend: AUG-CC-PVTZ-JKFIT
    Number of shells: 264
    Number of basis function: 900
    Number of Cartesian functions: 1116
    Spherical Harmonics?: true
    Max angular momentum: 4

  Cached 14.3% of DFT collocation blocks in 0.159 [GiB].

  Minimum eigenvalue in the overlap matrix is 1.1407641741E-06.
  Using Symmetric Orthogonalization.

  SCF Guess: Superposition of Atomic Densities via on-the-fly atomic UHF.

  ==> Iterations <==

                           Total Energy        Delta E     RMS |[F,P]|

   @DF-RKS iter SAD:  -231.61048181588120   -2.31610e+02   0.00000e+00 
   @DF-RKS iter   1:  -231.74841739521975   -1.37936e-01   1.02196e-02 DIIS
   @DF-RKS iter   2:  -231.26221787482740    4.86200e-01   1.39834e-02 DIIS
   @DF-RKS iter   3:  -232.30665948270016   -1.04444e+00   9.31522e-04 DIIS
   @DF-RKS iter   4:  -232.31022776423171   -3.56828e-03   2.06656e-04 DIIS
   @DF-RKS iter   5:  -232.31041500375454   -1.87240e-04   2.10908e-05 DIIS
   @DF-RKS iter   6:  -232.31041744639896   -2.44264e-06   2.60143e-06 DIIS
   @DF-RKS iter   7:  -232.31041744486055    1.53841e-09   2.67868e-06 DIIS
   @DF-RKS iter   8:  -232.31041747751868   -3.26581e-08   3.34247e-08 DIIS
   @DF-RKS iter   9:  -232.31041747752610   -7.41807e-12   3.14099e-09 DIIS
  Energy and wave function converged.


  ==> Post-Iterations <==

    Orbital Energies [Eh]
    ---------------------

    Doubly Occupied:                                                      

       1Ag   -10.183324     1Bu   -10.183111     2Bu   -10.183088  
       2Ag   -10.182591     3Ag   -10.182566     3Bu   -10.182329  
       4Ag    -0.855268     4Bu    -0.748943     5Bu    -0.748831  
       5Ag    -0.606386     6Ag    -0.606249     7Ag    -0.525876  
       6Bu    -0.466336     7Bu    -0.450910     8Bu    -0.426427  
       9Bu    -0.426288     1Au    -0.370180     8Ag    -0.350933  
       9Ag    -0.350670     1Bg    -0.259245     2Bg    -0.259137  

    Virtual:                                                              

       2Au    -0.020002     3Au    -0.019865    10Ag    -0.007501  
      10Bu     0.009931    11Bu     0.009935    11Ag     0.032015  
      12Ag     0.032021    12Bu     0.059831     4Au     0.063145  
      13Ag     0.070593     3Bg     0.089698     4Bg     0.089703  
      13Bu     0.098142    14Ag     0.112882    15Ag     0.118359  
      16Ag     0.118374    14Bu     0.120322    15Bu     0.120344  
       5Bg     0.120965     5Au     0.139454     6Au     0.139460  
      16Bu     0.144210    17Bu     0.144223    18Bu     0.150218  
      17Ag     0.153821    18Ag     0.153832    19Bu     0.197056  
      20Bu     0.197087     6Bg     0.197624    19Ag     0.219630  
      20Ag     0.219637    21Ag     0.233230    22Ag     0.265041  
      21Bu     0.277177    22Bu     0.277355    23Bu     0.278731  
      23Ag     0.290228    24Ag     0.290339    24Bu     0.316576  
      25Ag     0.351385    26Ag     0.351462    25Bu     0.358228  
      26Bu     0.358365    27Bu     0.452048    27Ag     0.466358  
      28Bu     0.530100     7Au     0.530290    28Ag     0.539346  
      29Bu     0.546207    30Bu     0.546266    29Ag     0.560469  
      30Ag     0.560592     7Bg     0.574889     8Bg     0.574965  
      31Ag     0.605586     8Au     0.616952     9Au     0.616985  
       9Bg     0.671633    32Ag     0.716025    33Ag     0.716176  
      31Bu     0.729831    32Bu     0.730053    34Ag     0.776136  
      33Bu     0.791766    34Bu     0.836816    35Bu     0.836908  
      35Ag     0.861794    36Bu     0.875573    36Ag     0.877931  
      37Ag     0.877973    37Bu     0.888477    38Bu     0.888617  
      10Au     0.938848    10Bg     1.007713    38Ag     1.011109  
      39Ag     1.011144    11Bg     1.074039    12Bg     1.074162  
      11Au     1.133151    12Au     1.133279    40Ag     1.305591  
      39Bu     1.312772    40Bu     1.453477    41Bu     1.501199  
      42Bu     1.501339    41Ag     1.518026    13Bg     1.558759  
      13Au     1.561916    14Au     1.562044    42Ag     1.630750  
      43Ag     1.630820    43Bu     1.653805    44Bu     1.653903  
      15Au     1.709606    14Bg     1.765383    15Bg     1.765581  
      44Ag     1.807121    45Ag     1.807499    45Bu     1.833833  
      16Bg     1.916197    17Bg     1.916673    46Bu     1.938477  
      47Bu     1.938615    46Ag     1.956246    48Bu     1.975931  
      47Ag     2.010740    48Ag     2.010970    16Au     2.067156  
      17Au     2.067442    18Bg     2.302749    18Au     2.325803  
      49Ag     2.366255    50Ag     2.398171    51Ag     2.398345  
      49Bu     2.430358    50Bu     2.430592    51Bu     2.596804  
      52Bu     2.597166    19Au     2.644440    53Bu     2.654133  
      52Ag     2.683653    54Bu     2.719493    55Bu     2.719652  
      53Ag     2.746462    54Ag     2.746641    19Bg     2.785989  
      20Bg     2.786115    56Bu     2.792083    55Ag     2.878253  
      20Au     2.881485    21Au     2.881558    56Ag     2.919827  
      57Ag     2.920161    21Bg     3.064300    57Bu     3.079393  
      58Ag     3.316334    59Ag     3.316908    58Bu     3.456882  
      59Bu     3.457309    60Ag     3.477969    60Bu     3.628045  
      61Ag     3.974478    62Ag     3.975069    61Bu     4.057718  
      62Bu     4.140397    63Bu     4.140828    63Ag     4.821975  
      64Ag    23.575043    64Bu    23.942511    65Bu    23.943631  
      65Ag    24.051695    66Ag    24.052830    66Bu    24.157442  

    Final Occupation by Irrep:
             Ag    Bg    Au    Bu 
    DOCC [     9,    2,    1,    9 ]

  @DF-RKS Final Energy:  -232.31041747752610

   => Energetics <=

    Nuclear Repulsion Energy =            201.9980475612722159
    One-Electron Energy =                -711.2804190744734569
    Two-Electron Energy =                 305.1086205431232656
    DFT Exchange-Correlation Energy =     -28.1366665074481404
    Empirical Dispersion Energy =           0.0000000000000000
    VV10 Nonlocal Energy =                  0.0000000000000000
    Total Energy =                       -232.3104174775261299

Computation Completed


Properties will be evaluated at   0.000000,   0.000000,   0.000000 [a0]

Properties computed using the SCF density matrix

  Nuclear Dipole Moment: [e a0]
     X:     0.0000      Y:     0.0000      Z:     0.0000

  Electronic Dipole Moment: [e a0]
     X:     0.0000      Y:     0.0000      Z:     0.0000

  Dipole Moment: [e a0]
     X:     0.0000      Y:     0.0000      Z:     0.0000     Total:     0.0000

  Dipole Moment: [D]
     X:     0.0000      Y:     0.0000      Z:     0.0000     Total:     0.0000


*** tstop() called on atlantis at Wed Apr 20 01:45:51 2022
Module time:
	user time   =      16.00 seconds =       0.27 minutes
	system time =       0.09 seconds =       0.00 minutes
	total time  =         16 seconds =       0.27 minutes
Total time:
	user time   =      75.65 seconds =       1.26 minutes
	system time =       0.68 seconds =       0.01 minutes
	total time  =         76 seconds =       1.27 minutes

*** tstart() called on atlantis
*** at Wed Apr 20 01:45:51 2022


         ------------------------------------------------------------
                                   SCF GRAD                          
                          Rob Parrish, Justin Turney,                
                       Andy Simmonett, and Alex Sokolov              
         ------------------------------------------------------------

  ==> Geometry <==

    Molecular point group: c2h
    Full point group: C2h

    Geometry (in Angstrom), charge = 0, multiplicity = 1:

       Center              X                  Y                   Z               Mass       
    ------------   -----------------  -----------------  -----------------  -----------------
         C           -1.222032477591    -0.693313109608     0.000000000000    12.000000000000
         C           -1.211176745353     0.711157426160     0.000000000000    12.000000000000
         C           -0.010297435136    -1.404520535769     0.000000000000    12.000000000000
         C            0.010297435136     1.404520535769     0.000000000000    12.000000000000
         C            1.211176745353    -0.711157426160     0.000000000000    12.000000000000
         C            1.222032477591     0.693313109608     0.000000000000    12.000000000000
         H           -2.173046280225    -1.233432274252     0.000000000000     1.007825032230
         H           -2.154705373579     1.265218680005     0.000000000000     1.007825032230
         H           -0.018350906646    -2.498650954774     0.000000000000     1.007825032230
         H            0.018350906646     2.498650954774     0.000000000000     1.007825032230
         H            2.154705373579    -1.265218680005     0.000000000000     1.007825032230
         H            2.173046280225     1.233432274252     0.000000000000     1.007825032230

  Nuclear repulsion =  201.998047561272216

  ==> Basis Set <==

  Basis Set: 6-311++G**
    Blend: 6-311++G**
    Number of shells: 90
    Number of basis function: 174
    Number of Cartesian functions: 180
    Spherical Harmonics?: true
    Max angular momentum: 2

  ==> DFJKGrad: Density-Fitted SCF Gradients <==

    Gradient:                    1
    J tasked:                  Yes
    K tasked:                  Yes
    wK tasked:                  No
    OpenMP threads:              1
    Integrals threads:           1
    Memory [MiB]:              375
    Schwarz Cutoff:          0E+00
    Fitting Condition:       1E-10

   => Auxiliary Basis Set <=

  Basis Set: (6-311++G** AUX)
    Blend: AUG-CC-PVTZ-JKFIT
    Number of shells: 264
    Number of basis function: 900
    Number of Cartesian functions: 1116
    Spherical Harmonics?: true
    Max angular momentum: 4

  ==> DFT Potential <==

   => Composite Functional: B3LYP <= 

    B3LYP Hyb-GGA Exchange-Correlation Functional

    P. J. Stephens, F. J. Devlin, C. F. Chabalowski, and M. J. Frisch, J. Phys. Chem. 98, 11623 (1994)

    Deriv               =              1
    GGA                 =           TRUE
    Meta                =          FALSE

    Exchange Hybrid     =           TRUE
    MP2 Hybrid          =          FALSE

   => Exchange Functionals <=

    0.0800   Slater exchange
    0.7200         Becke 88

   => Exact (HF) Exchange <=

    0.2000               HF 

   => Correlation Functionals <=

    0.1900   Vosko, Wilk & Nusair (VWN5_RPA)
    0.8100   Lee, Yang & Parr

   => Molecular Quadrature <=

    Radial Scheme          =       TREUTLER
    Pruning Scheme         =           FLAT
    Nuclear Scheme         =       TREUTLER

    BS radius alpha        =              1
    Pruning alpha          =              1
    Radial Points          =             75
    Spherical Points       =            302
    Total Points           =         271800
    Total Blocks           =           2142
    Max Points             =            256
    Max Functions          =            174


  -Total Gradient:
     Atom            X                  Y                   Z
    ------   -----------------  -----------------  -----------------
       1       -0.003131337790    -0.001355594642     0.000000000000
       2       -0.002332761541     0.001389060094     0.000000000000
       3        0.000281123872    -0.002931515214     0.000000000000
       4       -0.000281123872     0.002931515214     0.000000000000
       5        0.002332761541    -0.001389060094     0.000000000000
       6        0.003131337790     0.001355594642     0.000000000000
       7       -0.005462985819    -0.003136326432     0.000000000000
       8       -0.005689355876     0.003310321507    -0.000000000000
       9       -0.000060633037    -0.006582526958    -0.000000000000
      10        0.000060633037     0.006582526958    -0.000000000000
      11        0.005689355876    -0.003310321507     0.000000000000
      12        0.005462985819     0.003136326432     0.000000000000


*** tstop() called on atlantis at Wed Apr 20 01:45:58 2022
Module time:
	user time   =       7.04 seconds =       0.12 minutes
	system time =       0.09 seconds =       0.00 minutes
	total time  =          7 seconds =       0.12 minutes
Total time:
	user time   =      82.69 seconds =       1.38 minutes
	system time =       0.77 seconds =       0.01 minutes
	total time  =         83 seconds =       1.38 minutes

  //>>>>>>>>>>>>>>>>>>>>>>>>>>>>>>>>>>>//
  //    Loading displacement 3 of 42   //
  //<<<<<<<<<<<<<<<<<<<<<<<<<<<<<<<<<<<//
gradient() will perform analytic gradient computation.

*** tstart() called on atlantis
*** at Wed Apr 20 01:45:58 2022

   => Loading Basis Set <=

    Name: 6-311++G**
    Role: ORBITAL
    Keyword: BASIS
    atoms 1-6  entry C          line   119 file /home/akrom/software/anaconda3/envs/ffpenv/share/psi4/basis/6-311ppgss.gbs 
    atoms 7-12 entry H          line    42 file /home/akrom/software/anaconda3/envs/ffpenv/share/psi4/basis/6-311ppgss.gbs 


         ---------------------------------------------------------
                                   SCF
               by Justin Turney, Rob Parrish, Andy Simmonett
                          and Daniel G. A. Smith
                              RKS Reference
                        1 Threads,    500 MiB Core
         ---------------------------------------------------------

  ==> Geometry <==

    Molecular point group: c2h
    Full point group: C2h

    Geometry (in Angstrom), charge = 0, multiplicity = 1:

       Center              X                  Y                   Z               Mass       
    ------------   -----------------  -----------------  -----------------  -----------------
         C           -1.220987522409    -0.693186890392     0.000000000000    12.000000000000
         C           -1.211103254647     0.711282573840     0.000000000000    12.000000000000
         C           -0.010442564864    -1.404519464231     0.000000000000    12.000000000000
         C            0.010442564864     1.404519464231     0.000000000000    12.000000000000
         C            1.211103254647    -0.711282573840     0.000000000000    12.000000000000
         C            1.220987522409     0.693186890392     0.000000000000    12.000000000000
         H           -2.173173719775    -1.233207725748     0.000000000000     1.007825032230
         H           -2.154574626421     1.265441319995     0.000000000000     1.007825032230
         H           -0.018609093354    -2.498649045226     0.000000000000     1.007825032230
         H            0.018609093354     2.498649045226     0.000000000000     1.007825032230
         H            2.154574626421    -1.265441319995     0.000000000000     1.007825032230
         H            2.173173719775     1.233207725748     0.000000000000     1.007825032230

  Running in c2h symmetry.

  Rotational constants: A =      0.18760  B =      0.18752  C =      0.09378 [cm^-1]
  Rotational constants: A =   5624.12726  B =   5621.66993  C =   2811.44916 [MHz]
  Nuclear repulsion =  202.028576396706484

  Charge       = 0
  Multiplicity = 1
  Electrons    = 42
  Nalpha       = 21
  Nbeta        = 21

  ==> Algorithm <==

  SCF Algorithm Type is DF.
  DIIS enabled.
  MOM disabled.
  Fractional occupation disabled.
  Guess Type is SAD.
  Energy threshold   = 1.00e-08
  Density threshold  = 1.00e-08
  Integral threshold = 0.00e+00

  ==> Primary Basis <==

  Basis Set: 6-311++G**
    Blend: 6-311++G**
    Number of shells: 90
    Number of basis function: 174
    Number of Cartesian functions: 180
    Spherical Harmonics?: true
    Max angular momentum: 2

  ==> DFT Potential <==

   => Composite Functional: B3LYP <= 

    B3LYP Hyb-GGA Exchange-Correlation Functional

    P. J. Stephens, F. J. Devlin, C. F. Chabalowski, and M. J. Frisch, J. Phys. Chem. 98, 11623 (1994)

    Deriv               =              1
    GGA                 =           TRUE
    Meta                =          FALSE

    Exchange Hybrid     =           TRUE
    MP2 Hybrid          =          FALSE

   => Exchange Functionals <=

    0.0800   Slater exchange
    0.7200         Becke 88

   => Exact (HF) Exchange <=

    0.2000               HF 

   => Correlation Functionals <=

    0.1900   Vosko, Wilk & Nusair (VWN5_RPA)
    0.8100   Lee, Yang & Parr

   => Molecular Quadrature <=

    Radial Scheme          =       TREUTLER
    Pruning Scheme         =           FLAT
    Nuclear Scheme         =       TREUTLER

    BS radius alpha        =              1
    Pruning alpha          =              1
    Radial Points          =             75
    Spherical Points       =            302
    Total Points           =         271800
    Total Blocks           =           2140
    Max Points             =            256
    Max Functions          =            174

   => Loading Basis Set <=

    Name: (6-311++G** AUX)
    Role: JKFIT
    Keyword: DF_BASIS_SCF
    atoms 1-6  entry C          line   162 file /home/akrom/software/anaconda3/envs/ffpenv/share/psi4/basis/aug-cc-pvtz-jkfit.gbs 
    atoms 7-12 entry H          line    70 file /home/akrom/software/anaconda3/envs/ffpenv/share/psi4/basis/aug-cc-pvtz-jkfit.gbs 

  ==> Pre-Iterations <==

   -------------------------------------------------------
    Irrep   Nso     Nmo     Nalpha   Nbeta   Ndocc  Nsocc
   -------------------------------------------------------
     Ag        66      66       0       0       0       0
     Bg        21      21       0       0       0       0
     Au        21      21       0       0       0       0
     Bu        66      66       0       0       0       0
   -------------------------------------------------------
    Total     174     174      21      21      21       0
   -------------------------------------------------------

  ==> Integral Setup <==

  DFHelper Memory: AOs need 0.213 GiB; user supplied 0.213 GiB. Using in-core AOs.

  ==> MemDFJK: Density-Fitted J/K Matrices <==

    J tasked:                   Yes
    K tasked:                   Yes
    wK tasked:                   No
    OpenMP threads:               1
    Memory [MiB]:               217
    Algorithm:                 Core
    Schwarz Cutoff:           1E-12
    Mask sparsity (%):       1.2683
    Fitting Condition:        1E-10

   => Auxiliary Basis Set <=

  Basis Set: (6-311++G** AUX)
    Blend: AUG-CC-PVTZ-JKFIT
    Number of shells: 264
    Number of basis function: 900
    Number of Cartesian functions: 1116
    Spherical Harmonics?: true
    Max angular momentum: 4

  Cached 14.3% of DFT collocation blocks in 0.149 [GiB].

  Minimum eigenvalue in the overlap matrix is 1.1379379023E-06.
  Using Symmetric Orthogonalization.

  SCF Guess: Superposition of Atomic Densities via on-the-fly atomic UHF.

  ==> Iterations <==

                           Total Energy        Delta E     RMS |[F,P]|

   @DF-RKS iter SAD:  -231.61220483263239   -2.31612e+02   0.00000e+00 
   @DF-RKS iter   1:  -231.74771970347257   -1.35515e-01   1.02264e-02 DIIS
   @DF-RKS iter   2:  -231.25925869054001    4.88461e-01   1.40034e-02 DIIS
   @DF-RKS iter   3:  -232.30667011587286   -1.04741e+00   9.31605e-04 DIIS
   @DF-RKS iter   4:  -232.31023763242911   -3.56752e-03   2.06995e-04 DIIS
   @DF-RKS iter   5:  -232.31042541008486   -1.87778e-04   2.11613e-05 DIIS
   @DF-RKS iter   6:  -232.31042786378458   -2.45370e-06   2.80424e-06 DIIS
   @DF-RKS iter   7:  -232.31042786474643   -9.61847e-10   2.77880e-06 DIIS
   @DF-RKS iter   8:  -232.31042789988533   -3.51389e-08   3.25094e-08 DIIS
   @DF-RKS iter   9:  -232.31042789989209   -6.76437e-12   3.11228e-09 DIIS
  Energy and wave function converged.


  ==> Post-Iterations <==

    Orbital Energies [Eh]
    ---------------------

    Doubly Occupied:                                                      

       1Ag   -10.183280     1Bu   -10.183065     2Bu   -10.183044  
       2Ag   -10.182544     3Ag   -10.182521     3Bu   -10.182282  
       4Ag    -0.855425     4Bu    -0.748990     5Bu    -0.748892  
       5Ag    -0.606373     6Ag    -0.606238     7Ag    -0.525886  
       6Bu    -0.466167     7Bu    -0.451007     8Bu    -0.426407  
       9Bu    -0.426264     1Au    -0.370292     8Ag    -0.350888  
       9Ag    -0.350624     1Bg    -0.259279     2Bg    -0.259193  

    Virtual:                                                              

       2Au    -0.019935     3Au    -0.019803    10Ag    -0.007524  
      10Bu     0.009924    11Bu     0.009928    11Ag     0.032019  
      12Ag     0.032024    12Bu     0.059829     4Au     0.063128  
      13Ag     0.070555     3Bg     0.089688     4Bg     0.089697  
      13Bu     0.098136    14Ag     0.112829    15Ag     0.118370  
      16Ag     0.118387    14Bu     0.120299    15Bu     0.120318  
       5Bg     0.121071     5Au     0.139448     6Au     0.139482  
      16Bu     0.144201    17Bu     0.144209    18Bu     0.150207  
      17Ag     0.153814    18Ag     0.153826    19Bu     0.197074  
      20Bu     0.197104     6Bg     0.197688    19Ag     0.219622  
      20Ag     0.219657    21Ag     0.233205    22Ag     0.265046  
      21Bu     0.277178    22Bu     0.277331    23Bu     0.278748  
      23Ag     0.290355    24Ag     0.290461    24Bu     0.316557  
      25Ag     0.351374    26Ag     0.351442    25Bu     0.358342  
      26Bu     0.358479    27Bu     0.452001    27Ag     0.466371  
       7Au     0.530261    28Bu     0.530371    28Ag     0.539637  
[...]
      5   C               -0.08 -0.14  0.00    0.00  0.00  0.21    0.00 -0.00 -0.03   
      6   C               -0.31 -0.09 -0.00    0.00  0.00 -0.21   -0.00 -0.00 -0.03   
      7   H                0.22  0.25  0.00   -0.00  0.00  0.35   -0.00 -0.00  0.41   
      8   H               -0.11 -0.18  0.00    0.00  0.00 -0.35   -0.00 -0.00  0.41   
      9   H               -0.11 -0.31 -0.00    0.00  0.00 -0.35   -0.00 -0.00  0.41   
     10   H                0.11  0.31  0.00   -0.00 -0.00  0.35    0.00 -0.00  0.41   
     11   H                0.11  0.18  0.00    0.00 -0.00  0.35    0.00  0.00  0.41   
     12   H               -0.22 -0.25 -0.00    0.00  0.00 -0.35   -0.00  0.00  0.41   

  Vibration                       13                  14                  15          
  Freq [cm^-1]                 897.8809            897.9400            983.7090       
  Irrep                           Bg                  Bg                  Ag          
  Reduced mass [u]              1.2479              1.2479              6.0249        
  Force const [mDyne/A]         0.5927              0.5928              3.4351        
  Turning point v=0 [a0]        0.3278              0.3278              0.1425        
  RMS dev v=0 [a0 u^1/2]        0.2589              0.2589              0.2474        
  Char temp [K]               1291.8508           1291.9357           1415.3383       
  ----------------------------------------------------------------------------------
      1   C               -0.00  0.00 -0.06    0.00  0.00 -0.06    0.24  0.13 -0.00   
      2   C               -0.00  0.00  0.02    0.00 -0.00 -0.08    0.24 -0.14  0.00   
      3   C               -0.00 -0.00 -0.08   -0.00  0.00  0.03    0.00  0.28  0.00   
      4   C                0.00 -0.00  0.08    0.00  0.00 -0.03   -0.00 -0.28  0.00   
      5   C               -0.00  0.00 -0.02   -0.00 -0.00  0.08   -0.24  0.14  0.00   
      6   C               -0.00  0.00  0.06   -0.00  0.00  0.06   -0.24 -0.13 -0.00   
      7   H               -0.00  0.00  0.42    0.00 -0.00  0.39    0.26  0.15  0.00   
      8   H               -0.00  0.00 -0.13   -0.00 -0.00  0.56    0.27 -0.14 -0.00   
      9   H               -0.00 -0.00  0.55   -0.00  0.00 -0.17   -0.00  0.30 -0.00   
     10   H                0.00 -0.00 -0.55    0.00  0.00  0.17    0.00 -0.30 -0.00   
     11   H                0.00  0.00  0.13   -0.00 -0.00 -0.56   -0.27  0.14 -0.00   
     12   H               -0.00  0.00 -0.42   -0.00  0.00 -0.39   -0.26 -0.15  0.00   

  Vibration                       16                  17                  18          
  Freq [cm^-1]                1005.2701           1005.3503           1018.9775       
  Irrep                           Au                  Au                  Bu          
  Reduced mass [u]              1.3435              1.3436              6.5306        
  Force const [mDyne/A]         0.7999              0.8001              3.9952        
  Turning point v=0 [a0]        0.2986              0.2986              0.1345        
  RMS dev v=0 [a0 u^1/2]        0.2447              0.2447              0.2431        
  Char temp [K]               1446.3599           1446.4752           1466.0818       
  ----------------------------------------------------------------------------------
      1   C                0.00 -0.00  0.03    0.00 -0.00 -0.10   -0.25 -0.14 -0.00   
      2   C                0.00 -0.00  0.07   -0.00  0.00  0.08    0.25 -0.15  0.00   
      3   C                0.00  0.00 -0.10   -0.00 -0.00  0.02    0.00  0.29  0.00   
      4   C                0.00  0.00 -0.10   -0.00 -0.00  0.02    0.00  0.29  0.00   
      5   C               -0.00 -0.00  0.07   -0.00  0.00  0.08    0.25 -0.15  0.00   
      6   C               -0.00 -0.00  0.03    0.00 -0.00 -0.10   -0.25 -0.14 -0.00   
      7   H                0.00 -0.00 -0.19   -0.00  0.00  0.54   -0.25 -0.14  0.00   
      8   H                0.00 -0.00 -0.37   -0.00  0.00 -0.43    0.25 -0.14 -0.00   
      9   H                0.00  0.00  0.56    0.00 -0.00 -0.11    0.00  0.29 -0.00   
     10   H                0.00  0.00  0.56   -0.00 -0.00 -0.11    0.00  0.29 -0.00   
     11   H               -0.00 -0.00 -0.37    0.00  0.00 -0.43    0.25 -0.14 -0.00   
     12   H               -0.00  0.00 -0.19    0.00 -0.00  0.54   -0.25 -0.14  0.00   

  Vibration                       19                  20                  21          
  Freq [cm^-1]                1034.6607           1050.2242           1050.8772       
  Irrep                           Bg                  Bu                  Bu          
  Reduced mass [u]              1.2320              1.8335              1.8322        
  Force const [mDyne/A]         0.7771              1.1915              1.1921        
  Turning point v=0 [a0]        0.3073              0.2501              0.2501        
  RMS dev v=0 [a0 u^1/2]        0.2412              0.2394              0.2393        
  Char temp [K]               1488.6464           1511.0387           1511.9783       
  ----------------------------------------------------------------------------------
      1   C                0.00 -0.00 -0.06   -0.01  0.10 -0.00   -0.12 -0.04  0.00   
      2   C               -0.00 -0.00  0.06    0.12 -0.04  0.00    0.02  0.09 -0.00   
      3   C                0.00  0.00  0.06   -0.07 -0.09  0.00    0.06 -0.09  0.00   
      4   C                0.00  0.00 -0.06   -0.07 -0.09 -0.00    0.06 -0.09 -0.00   
      5   C               -0.00 -0.00 -0.06    0.12 -0.04  0.00    0.02  0.09 -0.00   
      6   C               -0.00  0.00  0.06   -0.01  0.10  0.00   -0.12 -0.04  0.00   
      7   H                0.00 -0.00  0.40   -0.22  0.47  0.00   -0.19  0.06 -0.00   
      8   H               -0.00 -0.00 -0.40    0.18  0.05 -0.00    0.23  0.47  0.00   
      9   H                0.00  0.00 -0.40   -0.38 -0.09 -0.00    0.37 -0.10 -0.00   
     10   H                0.00  0.00  0.40   -0.38 -0.09  0.00    0.37 -0.10  0.00   
     11   H               -0.00 -0.00  0.40    0.18  0.05  0.00    0.23  0.47  0.00   
     12   H               -0.00  0.00 -0.40   -0.22  0.47 -0.00   -0.19  0.06 -0.00   

  Vibration                       22                  23                  24          
  Freq [cm^-1]                1172.8343           1198.6943           1202.9704       
  Irrep                           Bu                  Ag                  Ag          
  Reduced mass [u]              1.3186              1.1740              1.1657        
  Force const [mDyne/A]         1.0686              0.9939              0.9939        
  Turning point v=0 [a0]        0.2790              0.2925              0.2930        
  RMS dev v=0 [a0 u^1/2]        0.2266              0.2241              0.2237        
  Char temp [K]               1687.4474           1724.6542           1730.8066       
  ----------------------------------------------------------------------------------
      1   C               -0.03  0.06 -0.00   -0.01  0.01 -0.00   -0.03  0.06  0.00   
      2   C               -0.03 -0.06  0.00    0.03  0.04  0.00   -0.02 -0.04 -0.00   
      3   C                0.07 -0.00  0.00    0.07 -0.00 -0.00    0.02 -0.00 -0.00   
      4   C                0.07 -0.00  0.00   -0.07  0.00 -0.00   -0.02  0.00 -0.00   
      5   C               -0.03 -0.06  0.00   -0.03 -0.04 -0.00    0.02  0.04 -0.00   
      6   C               -0.03  0.06 -0.00    0.01 -0.01  0.00    0.03 -0.06  0.00   
      7   H               -0.20  0.35  0.00   -0.07  0.11  0.00   -0.28  0.49 -0.00   
      8   H               -0.20 -0.35 -0.00    0.22  0.36  0.00   -0.19 -0.34  0.00   
      9   H                0.40 -0.00 -0.00    0.55 -0.00  0.00    0.18 -0.00  0.00   
     10   H                0.40 -0.00 -0.00   -0.55  0.00  0.00   -0.18  0.00  0.00   
     11   H               -0.20 -0.35 -0.00   -0.22 -0.36  0.00    0.19  0.34  0.00   
     12   H               -0.20  0.35  0.00    0.07 -0.11 -0.00    0.28 -0.49 -0.00   

  Vibration                       25                  26                  27          
  Freq [cm^-1]                1299.7816           1390.9808           1503.5274       
  Irrep                           Bu                  Ag                  Bu          
  Reduced mass [u]              3.1528              1.2480              1.8564        
  Force const [mDyne/A]         3.1382              1.4226              2.4726        
  Turning point v=0 [a0]        0.1714              0.2634              0.2077        
  RMS dev v=0 [a0 u^1/2]        0.2152              0.2080              0.2001        
  Char temp [K]               1870.0964           2001.3116           2163.2411       
  ----------------------------------------------------------------------------------
      1   C               -0.09  0.16 -0.00   -0.03  0.05  0.00   -0.03  0.13  0.00   
      2   C               -0.09 -0.16  0.00    0.03  0.05 -0.00    0.08 -0.04  0.00   
      3   C                0.18 -0.00 -0.00   -0.06  0.00 -0.00   -0.12 -0.04  0.00   
      4   C                0.18 -0.00  0.00    0.06 -0.00 -0.00   -0.12 -0.04 -0.00   
      5   C               -0.09 -0.16  0.00   -0.03 -0.05 -0.00    0.08 -0.04  0.00   
      6   C               -0.09  0.16 -0.00    0.03 -0.05  0.00   -0.03  0.13 -0.00   
      7   H                0.18 -0.32  0.00    0.20 -0.35 -0.00    0.28 -0.40 -0.00   
      8   H                0.19  0.32 -0.00   -0.20 -0.35  0.00    0.07 -0.08  0.00   
      9   H               -0.37  0.00  0.00    0.40 -0.00  0.00    0.45 -0.06  0.00   
     10   H               -0.37  0.00 -0.00   -0.40  0.00  0.00    0.45 -0.06  0.00   
     11   H                0.19  0.32 -0.00    0.20  0.35  0.00    0.07 -0.08  0.00   
     12   H                0.18 -0.32  0.00   -0.20  0.35 -0.00    0.28 -0.40 -0.00   

  Vibration                       28                  29                  30          
  Freq [cm^-1]                1503.6645           1598.6905           1609.5966       
  Irrep                           Bu                  Ag                  Ag          
  Reduced mass [u]              1.8578              4.4815              4.7156        
  Force const [mDyne/A]         2.4749              6.7484              7.1982        
  Turning point v=0 [a0]        0.2076              0.1296              0.1259        
  RMS dev v=0 [a0 u^1/2]        0.2001              0.1941              0.1934        
  Char temp [K]               2163.4385           2300.1597           2315.8512       
  ----------------------------------------------------------------------------------
      1   C                0.09 -0.02 -0.00   -0.04 -0.18  0.00   -0.19  0.20  0.00   
      2   C               -0.07 -0.12  0.00    0.15  0.25 -0.00    0.12 -0.08  0.00   
      3   C               -0.07  0.07 -0.00    0.16  0.12 -0.00    0.26 -0.08 -0.00   
      4   C               -0.07  0.07 -0.00   -0.16 -0.12  0.00   -0.26  0.08 -0.00   
      5   C               -0.07 -0.12  0.00   -0.15 -0.25  0.00   -0.12  0.08 -0.00   
      6   C                0.09 -0.02 -0.00    0.04  0.18  0.00    0.19 -0.20 -0.00   
      7   H               -0.04  0.26  0.00   -0.22  0.12 -0.00    0.12 -0.37 -0.00   
      8   H                0.28  0.47 -0.00   -0.22 -0.39  0.00    0.14 -0.07 -0.00   
      9   H                0.30  0.08  0.00   -0.24  0.13  0.00   -0.39 -0.08  0.00   
     10   H                0.30  0.08  0.00    0.24 -0.13  0.00    0.39  0.08  0.00   
     11   H                0.28  0.47 -0.00    0.22  0.39  0.00   -0.14  0.07 -0.00   
     12   H               -0.04  0.26 -0.00    0.22 -0.12 -0.00   -0.12  0.37  0.00   

  Vibration                       31                  32                  33          
  Freq [cm^-1]                3068.0144           3077.8339           3078.3878       
  Irrep                           Bu                  Ag                  Ag          
  Reduced mass [u]              1.0841              1.0877              1.0879        
  Force const [mDyne/A]         6.0120              6.0706              6.0739        
  Turning point v=0 [a0]        0.1903              0.1896              0.1896        
  RMS dev v=0 [a0 u^1/2]        0.1401              0.1399              0.1398        
  Char temp [K]               4414.1897           4428.3177           4429.1147       
  ----------------------------------------------------------------------------------
      1   C                0.03  0.02 -0.00   -0.00 -0.00  0.00   -0.04 -0.03 -0.00   
      2   C               -0.03  0.02  0.00   -0.04  0.02  0.00    0.02 -0.01  0.00   
      3   C               -0.00 -0.03 -0.00   -0.00  0.04  0.00    0.00  0.02 -0.00   
      4   C               -0.00 -0.03 -0.00    0.00 -0.04  0.00   -0.00 -0.02 -0.00   
      5   C               -0.03  0.02 -0.00    0.04 -0.02  0.00   -0.02  0.01 -0.00   
      6   C                0.03  0.02  0.00    0.00  0.00 -0.00    0.04  0.03  0.00   
      7   H               -0.35 -0.20  0.00    0.01  0.01  0.00    0.52  0.29  0.00   
      8   H                0.35 -0.21 -0.00    0.46 -0.27 -0.00   -0.23  0.13 -0.00   
      9   H                0.00  0.41  0.00   -0.00 -0.46 -0.00   -0.00 -0.28  0.00   
     10   H                0.00  0.41 -0.00    0.00  0.46 -0.00    0.00  0.28  0.00   
     11   H                0.35 -0.21  0.00   -0.46  0.27 -0.00    0.23 -0.13  0.00   
     12   H               -0.35 -0.20  0.00   -0.01 -0.01  0.00   -0.52 -0.29 -0.00   

  Vibration                       34                  35                  36          
  Freq [cm^-1]                3093.8069           3094.4369           3103.9930       
  Irrep                           Bu                  Bu                  Ag          
  Reduced mass [u]              1.0950              1.0949              1.0993        
  Force const [mDyne/A]         6.1750              6.1769              6.2403        
  Turning point v=0 [a0]        0.1885              0.1885              0.1878        
  RMS dev v=0 [a0 u^1/2]        0.1395              0.1395              0.1393        
  Char temp [K]               4451.2993           4452.2058           4465.9549       
  ----------------------------------------------------------------------------------
      1   C               -0.03 -0.02  0.00   -0.03 -0.01 -0.00   -0.03 -0.02 -0.00   
      2   C               -0.04  0.03  0.00    0.02 -0.01  0.00   -0.03  0.02 -0.00   
      3   C                0.00  0.01 -0.00    0.00 -0.05 -0.00   -0.00 -0.04  0.00   
      4   C                0.00  0.01  0.00    0.00 -0.05 -0.00    0.00  0.04  0.00   
      5   C               -0.04  0.03 -0.00    0.02 -0.01  0.00    0.03 -0.02  0.00   
      6   C               -0.03 -0.02 -0.00   -0.03 -0.01  0.00    0.03  0.02 -0.00   
      7   H                0.39  0.22 -0.00    0.32  0.18  0.00    0.33  0.19 -0.00   
      8   H                0.46 -0.27 -0.00   -0.18  0.10 -0.00    0.33 -0.19  0.00   
      9   H               -0.01 -0.10 -0.00    0.00  0.57  0.00    0.00  0.45 -0.00   
     10   H               -0.01 -0.10 -0.00    0.00  0.57  0.00   -0.00 -0.45 -0.00   
     11   H                0.46 -0.27 -0.00   -0.18  0.10  0.00   -0.33  0.19 -0.00   
     12   H                0.39  0.22  0.00    0.32  0.18 -0.00   -0.33 -0.19 -0.00   

  ==> Thermochemistry Components <==

  Entropy, S
    Electronic S            0.000 [cal/(mol K)]        0.000 [J/(mol K)]       0.00000000 [mEh/K] (multiplicity = 1)
    Translational S        38.979 [cal/(mol K)]      163.089 [J/(mol K)]       0.06211726 [mEh/K] (mol. weight = 78.0470 [u], P = 101325.00 [Pa])
    Rotational S           24.318 [cal/(mol K)]      101.746 [J/(mol K)]       0.03875307 [mEh/K] (symmetry no. = 2)
    Vibrational S           4.172 [cal/(mol K)]       17.454 [J/(mol K)]       0.00664795 [mEh/K]
  Total S                  67.469 [cal/(mol K)]      282.289 [J/(mol K)]       0.10751828 [mEh/K]
  Correction S              0.000 [cal/(mol K)]        0.000 [J/(mol K)]       0.00000000 [mEh/K]

  Constant volume heat capacity, Cv
    Electronic Cv           0.000 [cal/(mol K)]        0.000 [J/(mol K)]       0.00000000 [mEh/K]
    Translational Cv        2.981 [cal/(mol K)]       12.472 [J/(mol K)]       0.00475022 [mEh/K]
    Rotational Cv           2.981 [cal/(mol K)]       12.472 [J/(mol K)]       0.00475022 [mEh/K]
    Vibrational Cv         10.943 [cal/(mol K)]       45.785 [J/(mol K)]       0.01743850 [mEh/K]
  Total Cv                 16.904 [cal/(mol K)]       70.728 [J/(mol K)]       0.02693894 [mEh/K]
  Correction Cv             0.000 [cal/(mol K)]        0.000 [J/(mol K)]       0.00000000 [mEh/K]

  Constant pressure heat capacity, Cp
    Electronic Cp           0.000 [cal/(mol K)]        0.000 [J/(mol K)]       0.00000000 [mEh/K]
    Translational Cp        4.968 [cal/(mol K)]       20.786 [J/(mol K)]       0.00791703 [mEh/K]
    Rotational Cp           2.981 [cal/(mol K)]       12.472 [J/(mol K)]       0.00475022 [mEh/K]
    Vibrational Cp         10.943 [cal/(mol K)]       45.785 [J/(mol K)]       0.01743850 [mEh/K]
  Total Cp                 18.892 [cal/(mol K)]       79.043 [J/(mol K)]       0.03010575 [mEh/K]
  Correction Cp             0.000 [cal/(mol K)]        0.000 [J/(mol K)]       0.00000000 [mEh/K]

  ==> Thermochemistry Energy Analysis <==

  Raw electronic energy, E0
  Total E0, Electronic energy at well bottom at 0 [K]                 -232.31040994 [Eh]

  Zero-point energy, ZPE_vib = Sum_i nu_i / 2
    Electronic ZPE          0.000 [kcal/mol]        0.000 [kJ/mol]       0.00000000 [Eh]
    Translational ZPE       0.000 [kcal/mol]        0.000 [kJ/mol]       0.00000000 [Eh]
    Rotational ZPE          0.000 [kcal/mol]        0.000 [kJ/mol]       0.00000000 [Eh]
    Vibrational ZPE        62.208 [kcal/mol]      260.277 [kJ/mol]       0.09913420 [Eh]       21757.443 [cm^-1]
  Correction ZPE           62.208 [kcal/mol]      260.277 [kJ/mol]       0.09913420 [Eh]       21757.443 [cm^-1]
  Total ZPE, Electronic energy at 0 [K]                               -232.21127574 [Eh]

  Thermal Energy, E (includes ZPE)
    Electronic E            0.000 [kcal/mol]        0.000 [kJ/mol]       0.00000000 [Eh]
    Translational E         0.889 [kcal/mol]        3.718 [kJ/mol]       0.00141628 [Eh]
    Rotational E            0.889 [kcal/mol]        3.718 [kJ/mol]       0.00141628 [Eh]
    Vibrational E          63.143 [kcal/mol]      264.192 [kJ/mol]       0.10062526 [Eh]
  Correction E             64.921 [kcal/mol]      271.628 [kJ/mol]       0.10345781 [Eh]
  Total E, Electronic energy at  298.15 [K]                           -232.20695213 [Eh]

  Enthalpy, H_trans = E_trans + k_B * T
    Electronic H            0.000 [kcal/mol]        0.000 [kJ/mol]       0.00000000 [Eh]
    Translational H         1.481 [kcal/mol]        6.197 [kJ/mol]       0.00236046 [Eh]
    Rotational H            0.889 [kcal/mol]        3.718 [kJ/mol]       0.00141628 [Eh]
    Vibrational H          63.143 [kcal/mol]      264.192 [kJ/mol]       0.10062526 [Eh]
  Correction H             65.513 [kcal/mol]      274.107 [kJ/mol]       0.10440200 [Eh]
  Total H, Enthalpy at  298.15 [K]                                    -232.20600795 [Eh]

  Gibbs free energy, G = H - T * S
    Electronic G            0.000 [kcal/mol]        0.000 [kJ/mol]       0.00000000 [Eh]
    Translational G       -10.140 [kcal/mol]      -42.428 [kJ/mol]      -0.01615980 [Eh]
    Rotational G           -6.362 [kcal/mol]      -26.617 [kJ/mol]      -0.01013795 [Eh]
    Vibrational G          61.900 [kcal/mol]      258.988 [kJ/mol]       0.09864318 [Eh]
  Correction G             45.397 [kcal/mol]      189.943 [kJ/mol]       0.07234542 [Eh]
  Total G, Free enthalpy at  298.15 [K]                               -232.23806452 [Eh]

    Psi4 stopped on: Wednesday, 20 April 2022 02:01AM
    Psi4 wall time for execution: 0:17:06.29

*** Psi4 exiting successfully. Buy a developer a beer!
