
    -----------------------------------------------------------------------
          Psi4: An Open-Source Ab Initio Electronic Structure Package
                               Psi4 1.3.2 release

                         Git: Rev {HEAD} ecbda83 


    R. M. Parrish, L. A. Burns, D. G. A. Smith, A. C. Simmonett,
    A. E. DePrince III, E. G. Hohenstein, U. Bozkaya, A. Yu. Sokolov,
    R. Di Remigio, R. M. Richard, J. F. Gonthier, A. M. James,
    H. R. McAlexander, A. Kumar, M. Saitow, X. Wang, B. P. Pritchard,
    P. Verma, H. F. Schaefer III, K. Patkowski, R. A. King, E. F. Valeev,
    F. A. Evangelista, J. M. Turney, T. D. Crawford, and C. D. Sherrill,
    J. Chem. Theory Comput. 13(7) pp 3185--3197 (2017).
    (doi: 10.1021/acs.jctc.7b00174)


                         Additional Contributions by
    P. Kraus, H. Kruse, M. H. Lechner, M. C. Schieber, R. A. Shaw,
    A. Alenaizan, R. Galvelis, Z. L. Glick, S. Lehtola, and J. P. Misiewicz

    -----------------------------------------------------------------------


    Psi4 started on: Tuesday, 19 April 2022 02:38AM

    Process ID: 26109
    Host:       atlantis
    PSIDATADIR: /home/akrom/software/anaconda3/envs/ffpenv/share/psi4
    Memory:     500.0 MiB
    Threads:    1
    
  ==> Input File <==

--------------------------------------------------------------------------
set basis  cc-pVTZ
molecule {
0 1
   C        0.32153        0.81326        0.00000
   C       -0.86505       -0.12817        0.00000
   C        0.54353       -0.68508        0.00000
   H        0.53795        1.36069       -0.92039
   H        0.53795        1.36069        0.92039
   H       -1.44742       -0.21449        0.92034
   H       -1.44742       -0.21449       -0.92034
   H        0.90937       -1.14629       -0.92037
   H        0.90937       -1.14629        0.92037
}
energy('MP2')
frequencies('MP2')
--------------------------------------------------------------------------
    SCF Algorithm Type (re)set to DF.

*** tstart() called on atlantis
*** at Tue Apr 19 02:38:01 2022

   => Loading Basis Set <=

    Name: CC-PVTZ
    Role: ORBITAL
    Keyword: BASIS
    atoms 1-3 entry C          line   186 file /home/akrom/software/anaconda3/envs/ffpenv/share/psi4/basis/cc-pvtz.gbs 
    atoms 4-9 entry H          line    23 file /home/akrom/software/anaconda3/envs/ffpenv/share/psi4/basis/cc-pvtz.gbs 


         ---------------------------------------------------------
                                   SCF
               by Justin Turney, Rob Parrish, Andy Simmonett
                          and Daniel G. A. Smith
                              RHF Reference
                        1 Threads,    500 MiB Core
         ---------------------------------------------------------

  ==> Geometry <==

    Molecular point group: cs
    Full point group: Cs

    Geometry (in Angstrom), charge = 0, multiplicity = 1:

       Center              X                  Y                   Z               Mass       
    ------------   -----------------  -----------------  -----------------  -----------------
         C            0.321531939855     0.813261460475     0.000000000000    12.000000000000
         C           -0.865048060145    -0.128168539525     0.000000000000    12.000000000000
         C            0.543531939855    -0.685078539525     0.000000000000    12.000000000000
         H            0.537951939855     1.360691460475    -0.920390000000     1.007825032230
         H            0.537951939855     1.360691460475     0.920390000000     1.007825032230
         H           -1.447418060145    -0.214488539525     0.920340000000     1.007825032230
         H           -1.447418060145    -0.214488539525    -0.920340000000     1.007825032230
         H            0.909371939855    -1.146288539525    -0.920370000000     1.007825032230
         H            0.909371939855    -1.146288539525     0.920370000000     1.007825032230

  Running in cs symmetry.

  Rotational constants: A =      0.66472  B =      0.66470  C =      0.41647 [cm^-1]
  Rotational constants: A =  19927.70596  B =  19927.20236  C =  12485.44714 [MHz]
  Nuclear repulsion =   75.281464809014025

  Charge       = 0
  Multiplicity = 1
  Electrons    = 24
  Nalpha       = 12
  Nbeta        = 12

  ==> Algorithm <==

  SCF Algorithm Type is DF.
  DIIS enabled.
  MOM disabled.
  Fractional occupation disabled.
  Guess Type is SAD.
  Energy threshold   = 1.00e-08
  Density threshold  = 1.00e-08
  Integral threshold = 0.00e+00

  ==> Primary Basis <==

  Basis Set: CC-PVTZ
    Blend: CC-PVTZ
    Number of shells: 66
    Number of basis function: 174
    Number of Cartesian functions: 195
    Spherical Harmonics?: true
    Max angular momentum: 3

   => Loading Basis Set <=

    Name: (CC-PVTZ AUX)
    Role: JKFIT
    Keyword: DF_BASIS_SCF
    atoms 1-3 entry C          line   125 file /home/akrom/software/anaconda3/envs/ffpenv/share/psi4/basis/cc-pvtz-jkfit.gbs 
    atoms 4-9 entry H          line    51 file /home/akrom/software/anaconda3/envs/ffpenv/share/psi4/basis/cc-pvtz-jkfit.gbs 

  ==> Pre-Iterations <==

   -------------------------------------------------------
    Irrep   Nso     Nmo     Nalpha   Nbeta   Ndocc  Nsocc
   -------------------------------------------------------
     A'       102     102       0       0       0       0
     A"        72      72       0       0       0       0
   -------------------------------------------------------
    Total     174     174      12      12      12       0
   -------------------------------------------------------

  ==> Integral Setup <==

  DFHelper Memory: AOs need 0.102 GiB; user supplied 0.366 GiB. Using in-core AOs.

  ==> MemDFJK: Density-Fitted J/K Matrices <==

    J tasked:                   Yes
    K tasked:                   Yes
    wK tasked:                   No
    OpenMP threads:               1
    Memory [MiB]:               375
    Algorithm:                 Core
    Schwarz Cutoff:           1E-12
    Mask sparsity (%):       0.0000
    Fitting Condition:        1E-10

   => Auxiliary Basis Set <=

  Basis Set: (CC-PVTZ AUX)
    Blend: CC-PVTZ-JKFIT
    Number of shells: 135
    Number of basis function: 417
    Number of Cartesian functions: 498
    Spherical Harmonics?: true
    Max angular momentum: 4

  Minimum eigenvalue in the overlap matrix is 6.9054665632E-04.
  Using Symmetric Orthogonalization.

  SCF Guess: Superposition of Atomic Densities via on-the-fly atomic UHF.

  ==> Iterations <==

                           Total Energy        Delta E     RMS |[F,P]|

   @DF-RHF iter SAD:  -116.69024927547780   -1.16690e+02   0.00000e+00 
   @DF-RHF iter   1:  -117.00120007236579   -3.10951e-01   3.22961e-03 DIIS
   @DF-RHF iter   2:  -117.07884709548058   -7.76470e-02   1.58258e-03 DIIS
   @DF-RHF iter   3:  -117.09833816279797   -1.94911e-02   2.69141e-04 DIIS
   @DF-RHF iter   4:  -117.09940323160068   -1.06507e-03   3.43785e-05 DIIS
   @DF-RHF iter   5:  -117.09942882188002   -2.55903e-05   7.81911e-06 DIIS
   @DF-RHF iter   6:  -117.09943019134104   -1.36946e-06   1.35011e-06 DIIS
   @DF-RHF iter   7:  -117.09943023759912   -4.62581e-08   2.13920e-07 DIIS
   @DF-RHF iter   8:  -117.09943023859390   -9.94774e-10   2.35268e-08 DIIS
   @DF-RHF iter   9:  -117.09943023860504   -1.11413e-11   4.42413e-09 DIIS
  Energy and wave function converged.


  ==> Post-Iterations <==

    Orbital Energies [Eh]
    ---------------------

    Doubly Occupied:                                                      

       1Ap   -11.227235     2Ap   -11.226259     3Ap   -11.226254  
       4Ap    -1.124544     5Ap    -0.813840     6Ap    -0.813835  
       1App   -0.662642     7Ap    -0.621734     2App   -0.510052  
       3App   -0.510036     8Ap    -0.417109     9Ap    -0.417101  

    Virtual:                                                              

      10Ap     0.151004     4App    0.168899    11Ap     0.181753  
      12Ap     0.181755     5App    0.247219     6App    0.247229  
      13Ap     0.283101    14Ap     0.330215    15Ap     0.330218  
      16Ap     0.335821    17Ap     0.433920    18Ap     0.433933  
       7App    0.440451     8App    0.514364     9App    0.514407  
      19Ap     0.563070    10App    0.581567    20Ap     0.593145  
      21Ap     0.622319    22Ap     0.622330    23Ap     0.630263  
      11App    0.689762    12App    0.689766    24Ap     0.693046  
      25Ap     0.693055    26Ap     0.833815    27Ap     0.833823  
      13App    0.917070    28Ap     0.979958    14App    1.006699  
      15App    1.006714    29Ap     1.109460    30Ap     1.109484  
      16App    1.161229    17App    1.176210    18App    1.176241  
      31Ap     1.220197    32Ap     1.220201    33Ap     1.248540  
      34Ap     1.294238    19App    1.302711    35Ap     1.355350  
      36Ap     1.355366    20App    1.364379    21App    1.364399  
      37Ap     1.452178    38Ap     1.480109    39Ap     1.480116  
      22App    1.484962    23App    1.545523    24App    1.545526  
      40Ap     1.570097    41Ap     1.662693    42Ap     1.662702  
      25App    1.744214    26App    1.744265    43Ap     1.789571  
      44Ap     1.798595    45Ap     1.798600    27App    1.858888  
      28App    2.458449    46Ap     2.526460    47Ap     2.526475  
      48Ap     2.530254    29App    2.593717    49Ap     2.649478  
      50Ap     2.683031    51Ap     2.683039    30App    2.766089  
      31App    2.766154    52Ap     2.966693    53Ap     2.966718  
      32App    2.985157    33App    2.985174    54Ap     3.030810  
      55Ap     3.039317    56Ap     3.068755    57Ap     3.068765  
      34App    3.184404    35App    3.184424    36App    3.194307  
      58Ap     3.227813    59Ap     3.282275    37App    3.322450  
      38App    3.322459    39App    3.369174    60Ap     3.395567  
      61Ap     3.395600    40App    3.437089    62Ap     3.453691  
      63Ap     3.453704    41App    3.467694    42App    3.467698  
      64Ap     3.597483    43App    3.619870    44App    3.619907  
      65Ap     3.643335    66Ap     3.691586    67Ap     3.691632  
      45App    3.701071    46App    3.789971    47App    3.841101  
      68Ap     3.893627    48App    3.954526    49App    3.954575  
      69Ap     3.998041    70Ap     3.998092    50App    4.004777  
      51App    4.039576    52App    4.039599    71Ap     4.066627  
      72Ap     4.066635    73Ap     4.165625    74Ap     4.226721  
      53App    4.244755    54App    4.244777    75Ap     4.267041  
      76Ap     4.267075    77Ap     4.394296    78Ap     4.394317  
      55App    4.461472    56App    4.461486    79Ap     4.495388  
      80Ap     4.500298    81Ap     4.500307    57App    4.517013  
      82Ap     4.563322    83Ap     4.580985    84Ap     4.581017  
      58App    4.732984    59App    4.732991    85Ap     4.775906  
      86Ap     4.775935    87Ap     4.898425    60App    4.929074  
      88Ap     4.979858    89Ap     4.979874    61App    5.222487  
      90Ap     5.300299    62App    5.301378    63App    5.301392  
      64App    5.418071    91Ap     5.435047    65App    5.495948  
      66App    5.496017    92Ap     5.509576    93Ap     5.509651  
      94Ap     5.513707    67App    5.646519    95Ap     5.709713  
      96Ap     5.804017    97Ap     5.804023    98Ap     5.926501  
      99Ap     5.926518    68App    6.178551    69App    6.202358  
      70App    6.202452    71App    6.359084    72App    6.359106  
     100Ap    11.449233   101Ap    13.624493   102Ap    13.624665  

    Final Occupation by Irrep:
             Ap   App 
    DOCC [     9,    3 ]

  @DF-RHF Final Energy:  -117.09943023860504

   => Energetics <=

    Nuclear Repulsion Energy =             75.2814648090140253
    One-Electron Energy =                -305.6205086902677408
    Two-Electron Energy =                 113.2396136426486635
    Total Energy =                       -117.0994302386050379

Computation Completed


Properties will be evaluated at   0.000000,   0.000000,   0.000000 [a0]

Properties computed using the SCF density matrix

  Nuclear Dipole Moment: [e a0]
     X:    -0.0002      Y:    -0.0002      Z:     0.0000

  Electronic Dipole Moment: [e a0]
     X:     0.0002      Y:     0.0001      Z:     0.0000

  Dipole Moment: [e a0]
     X:    -0.0000      Y:    -0.0000      Z:     0.0000     Total:     0.0000

  Dipole Moment: [D]
     X:    -0.0001      Y:    -0.0001      Z:     0.0000     Total:     0.0001


*** tstop() called on atlantis at Tue Apr 19 02:38:03 2022
Module time:
	user time   =       1.32 seconds =       0.02 minutes
	system time =       0.05 seconds =       0.00 minutes
	total time  =          2 seconds =       0.03 minutes
Total time:
	user time   =       1.32 seconds =       0.02 minutes
	system time =       0.05 seconds =       0.00 minutes
	total time  =          2 seconds =       0.03 minutes

*** tstart() called on atlantis
*** at Tue Apr 19 02:38:03 2022


  //>>>>>>>>>>>>>>>>>>>>>>>>>>>>>>>>>>>//
  //               DFMP2               //
  //<<<<<<<<<<<<<<<<<<<<<<<<<<<<<<<<<<<//

   => Loading Basis Set <=

    Name: (CC-PVTZ AUX)
    Role: RIFIT
    Keyword: DF_BASIS_MP2
    atoms 1-3 entry C          line   209 file /home/akrom/software/anaconda3/envs/ffpenv/share/psi4/basis/cc-pvtz-ri.gbs 
    atoms 4-9 entry H          line    19 file /home/akrom/software/anaconda3/envs/ffpenv/share/psi4/basis/cc-pvtz-ri.gbs 

	 --------------------------------------------------------
	                          DF-MP2                         
	      2nd-Order Density-Fitted Moller-Plesset Theory     
	              RMP2 Wavefunction,   1 Threads             
	                                                         
	        Rob Parrish, Justin Turney, Andy Simmonett,      
	           Ed Hohenstein, and C. David Sherrill          
	 --------------------------------------------------------

   => Auxiliary Basis Set <=

  Basis Set: (CC-PVTZ AUX)
    Blend: CC-PVTZ-RI
    Number of shells: 129
    Number of basis function: 423
    Number of Cartesian functions: 513
    Spherical Harmonics?: true
    Max angular momentum: 4

	 --------------------------------------------------------
	                 NBF =   174, NAUX =   423
	 --------------------------------------------------------
	   CLASS    FOCC     OCC    AOCC    AVIR     VIR    FVIR
	   PAIRS       0      12      12     162     162       0
	 --------------------------------------------------------

	-----------------------------------------------------------
	 ==================> DF-MP2 Energies <==================== 
	-----------------------------------------------------------
	 Reference Energy          =    -117.0994302386050379 [Eh]
	 Singles Energy            =      -0.0000000000000000 [Eh]
	 Same-Spin Energy          =      -0.1224363377107526 [Eh]
	 Opposite-Spin Energy      =      -0.4417802574968038 [Eh]
	 Correlation Energy        =      -0.5642165952075564 [Eh]
	 Total Energy              =    -117.6636468338125923 [Eh]
	-----------------------------------------------------------
	 ================> DF-SCS-MP2 Energies <================== 
	-----------------------------------------------------------
	 SCS Same-Spin Scale       =       0.3333333333333333 [-]
	 SCS Opposite-Spin Scale   =       1.2000000000000000 [-]
	 SCS Same-Spin Energy      =      -0.0408121125702509 [Eh]
	 SCS Opposite-Spin Energy  =      -0.5301363089961646 [Eh]
	 SCS Correlation Energy    =      -0.5709484215664155 [Eh]
	 SCS Total Energy          =    -117.6703786601714512 [Eh]
	-----------------------------------------------------------


*** tstop() called on atlantis at Tue Apr 19 02:38:03 2022
Module time:
	user time   =       0.46 seconds =       0.01 minutes
	system time =       0.03 seconds =       0.00 minutes
	total time  =          0 seconds =       0.00 minutes
Total time:
	user time   =       1.78 seconds =       0.03 minutes
	system time =       0.08 seconds =       0.00 minutes
	total time  =          2 seconds =       0.03 minutes
gradient() will perform analytic gradient computation.
    SCF Algorithm Type (re)set to DF.

*** tstart() called on atlantis
*** at Tue Apr 19 02:38:03 2022

   => Loading Basis Set <=

    Name: CC-PVTZ
    Role: ORBITAL
    Keyword: BASIS
    atoms 1-3 entry C          line   186 file /home/akrom/software/anaconda3/envs/ffpenv/share/psi4/basis/cc-pvtz.gbs 
    atoms 4-9 entry H          line    23 file /home/akrom/software/anaconda3/envs/ffpenv/share/psi4/basis/cc-pvtz.gbs 


         ---------------------------------------------------------
                                   SCF
               by Justin Turney, Rob Parrish, Andy Simmonett
                          and Daniel G. A. Smith
                              RHF Reference
                        1 Threads,    500 MiB Core
         ---------------------------------------------------------

  ==> Geometry <==

    Molecular point group: cs
    Full point group: Cs

    Geometry (in Angstrom), charge = 0, multiplicity = 1:

       Center              X                  Y                   Z               Mass       
    ------------   -----------------  -----------------  -----------------  -----------------
         C            0.321531939855     0.813261460475     0.000000000000    12.000000000000
         C           -0.865048060145    -0.128168539525     0.000000000000    12.000000000000
         C            0.543531939855    -0.685078539525     0.000000000000    12.000000000000
         H            0.537951939855     1.360691460475    -0.920390000000     1.007825032230
         H            0.537951939855     1.360691460475     0.920390000000     1.007825032230
         H           -1.447418060145    -0.214488539525     0.920340000000     1.007825032230
         H           -1.447418060145    -0.214488539525    -0.920340000000     1.007825032230
         H            0.909371939855    -1.146288539525    -0.920370000000     1.007825032230
         H            0.909371939855    -1.146288539525     0.920370000000     1.007825032230

  Running in cs symmetry.

  Rotational constants: A =      0.66472  B =      0.66470  C =      0.41647 [cm^-1]
  Rotational constants: A =  19927.70596  B =  19927.20236  C =  12485.44714 [MHz]
  Nuclear repulsion =   75.281464809014025

  Charge       = 0
  Multiplicity = 1
  Electrons    = 24
  Nalpha       = 12
  Nbeta        = 12

  ==> Algorithm <==

  SCF Algorithm Type is DF.
  DIIS enabled.
  MOM disabled.
  Fractional occupation disabled.
  Guess Type is SAD.
  Energy threshold   = 1.00e-10
  Density threshold  = 1.00e-10
  Integral threshold = 0.00e+00

  ==> Primary Basis <==

  Basis Set: CC-PVTZ
    Blend: CC-PVTZ
    Number of shells: 66
    Number of basis function: 174
    Number of Cartesian functions: 195
    Spherical Harmonics?: true
    Max angular momentum: 3

   => Loading Basis Set <=

    Name: (CC-PVTZ AUX)
    Role: JKFIT
    Keyword: DF_BASIS_SCF
    atoms 1-3 entry C          line   125 file /home/akrom/software/anaconda3/envs/ffpenv/share/psi4/basis/cc-pvtz-jkfit.gbs 
    atoms 4-9 entry H          line    51 file /home/akrom/software/anaconda3/envs/ffpenv/share/psi4/basis/cc-pvtz-jkfit.gbs 

  ==> Pre-Iterations <==

   -------------------------------------------------------
    Irrep   Nso     Nmo     Nalpha   Nbeta   Ndocc  Nsocc
   -------------------------------------------------------
     A'       102     102       0       0       0       0
     A"        72      72       0       0       0       0
   -------------------------------------------------------
    Total     174     174      12      12      12       0
   -------------------------------------------------------

  ==> Integral Setup <==

  DFHelper Memory: AOs need 0.102 GiB; user supplied 0.366 GiB. Using in-core AOs.

  ==> MemDFJK: Density-Fitted J/K Matrices <==

    J tasked:                   Yes
    K tasked:                   Yes
    wK tasked:                   No
    OpenMP threads:               1
    Memory [MiB]:               375
    Algorithm:                 Core
    Schwarz Cutoff:           1E-12
    Mask sparsity (%):       0.0000
    Fitting Condition:        1E-10

   => Auxiliary Basis Set <=

  Basis Set: (CC-PVTZ AUX)
    Blend: CC-PVTZ-JKFIT
    Number of shells: 135
    Number of basis function: 417
    Number of Cartesian functions: 498
    Spherical Harmonics?: true
    Max angular momentum: 4

  Minimum eigenvalue in the overlap matrix is 6.9054665632E-04.
  Using Symmetric Orthogonalization.

  SCF Guess: Superposition of Atomic Densities via on-the-fly atomic UHF.

  ==> Iterations <==

                           Total Energy        Delta E     RMS |[F,P]|

   @DF-RHF iter SAD:  -116.69024927540805   -1.16690e+02   0.00000e+00 
   @DF-RHF iter   1:  -117.00120007229239   -3.10951e-01   3.22961e-03 DIIS
   @DF-RHF iter   2:  -117.07884709540626   -7.76470e-02   1.58258e-03 DIIS
   @DF-RHF iter   3:  -117.09833816272328   -1.94911e-02   2.69141e-04 DIIS
   @DF-RHF iter   4:  -117.09940323152631   -1.06507e-03   3.43785e-05 DIIS
   @DF-RHF iter   5:  -117.09942882180579   -2.55903e-05   7.81911e-06 DIIS
   @DF-RHF iter   6:  -117.09943019126598   -1.36946e-06   1.35011e-06 DIIS
   @DF-RHF iter   7:  -117.09943023752470   -4.62587e-08   2.13920e-07 DIIS
   @DF-RHF iter   8:  -117.09943023851955   -9.94845e-10   2.35268e-08 DIIS
   @DF-RHF iter   9:  -117.09943023853072   -1.11697e-11   4.42413e-09 DIIS
   @DF-RHF iter  10:  -117.09943023853110   -3.83693e-13   7.35956e-10 DIIS
   @DF-RHF iter  11:  -117.09943023853108    1.42109e-14   2.50788e-10 DIIS
   @DF-RHF iter  12:  -117.09943023853131   -2.27374e-13   2.74547e-11 DIIS
  Energy and wave function converged.


  ==> Post-Iterations <==

    Orbital Energies [Eh]
    ---------------------

    Doubly Occupied:                                                      

       1Ap   -11.227235     2Ap   -11.226259     3Ap   -11.226254  
       4Ap    -1.124544     5Ap    -0.813840     6Ap    -0.813835  
       1App   -0.662642     7Ap    -0.621734     2App   -0.510052  
       3App   -0.510036     8Ap    -0.417109     9Ap    -0.417101  

    Virtual:                                                              

      10Ap     0.151004     4App    0.168899    11Ap     0.181753  
      12Ap     0.181755     5App    0.247219     6App    0.247229  
      13Ap     0.283101    14Ap     0.330215    15Ap     0.330218  
      16Ap     0.335821    17Ap     0.433920    18Ap     0.433933  
       7App    0.440451     8App    0.514364     9App    0.514407  
      19Ap     0.563070    10App    0.581567    20Ap     0.593145  
      21Ap     0.622319    22Ap     0.622330    23Ap     0.630263  
      11App    0.689762    12App    0.689766    24Ap     0.693046  
      25Ap     0.693055    26Ap     0.833815    27Ap     0.833823  
      13App    0.917070    28Ap     0.979958    14App    1.006699  
      15App    1.006714    29Ap     1.109460    30Ap     1.109484  
      16App    1.161229    17App    1.176210    18App    1.176241  
      31Ap     1.220197    32Ap     1.220201    33Ap     1.248540  
      34Ap     1.294238    19App    1.302711    35Ap     1.355350  
      36Ap     1.355366    20App    1.364379    21App    1.364399  
      37Ap     1.452178    38Ap     1.480109    39Ap     1.480116  
      22App    1.484962    23App    1.545523    24App    1.545526  
      40Ap     1.570097    41Ap     1.662693    42Ap     1.662702  
      25App    1.744214    26App    1.744265    43Ap     1.789571  
      44Ap     1.798595    45Ap     1.798600    27App    1.858888  
      28App    2.458449    46Ap     2.526460    47Ap     2.526475  
      48Ap     2.530254    29App    2.593717    49Ap     2.649478  
      50Ap     2.683031    51Ap     2.683039    30App    2.766089  
      31App    2.766154    52Ap     2.966693    53Ap     2.966718  
      32App    2.985157    33App    2.985174    54Ap     3.030810  
      55Ap     3.039317    56Ap     3.068755    57Ap     3.068765  
      34App    3.184404    35App    3.184424    36App    3.194307  
      58Ap     3.227813    59Ap     3.282275    37App    3.322450  
      38App    3.322459    39App    3.369174    60Ap     3.395567  
      61Ap     3.395600    40App    3.437089    62Ap     3.453691  
      63Ap     3.453704    41App    3.467694    42App    3.467698  
      64Ap     3.597484    43App    3.619870    44App    3.619907  
      65Ap     3.643335    66Ap     3.691586    67Ap     3.691632  
      45App    3.701071    46App    3.789971    47App    3.841101  
      68Ap     3.893627    48App    3.954526    49App    3.954575  
      69Ap     3.998041    70Ap     3.998092    50App    4.004777  
      51App    4.039576    52App    4.039599    71Ap     4.066627  
      72Ap     4.066635    73Ap     4.165625    74Ap     4.226721  
      53App    4.244755    54App    4.244777    75Ap     4.267041  
      76Ap     4.267075    77Ap     4.394296    78Ap     4.394317  
      55App    4.461472    56App    4.461486    79Ap     4.495388  
      80Ap     4.500298    81Ap     4.500307    57App    4.517013  
      82Ap     4.563322    83Ap     4.580985    84Ap     4.581017  
      58App    4.732984    59App    4.732991    85Ap     4.775906  
      86Ap     4.775935    87Ap     4.898425    60App    4.929074  
      88Ap     4.979858    89Ap     4.979874    61App    5.222487  
      90Ap     5.300299    62App    5.301378    63App    5.301392  
      64App    5.418071    91Ap     5.435047    65App    5.495948  
      66App    5.496017    92Ap     5.509576    93Ap     5.509651  
      94Ap     5.513707    67App    5.646519    95Ap     5.709713  
      96Ap     5.804017    97Ap     5.804023    98Ap     5.926501  
      99Ap     5.926518    68App    6.178551    69App    6.202358  
      70App    6.202452    71App    6.359084    72App    6.359106  
     100Ap    11.449233   101Ap    13.624493   102Ap    13.624665  

    Final Occupation by Irrep:
             Ap   App 
    DOCC [     9,    3 ]

  @DF-RHF Final Energy:  -117.09943023853131

   => Energetics <=

    Nuclear Repulsion Energy =             75.2814648090140253
    One-Electron Energy =                -305.6205094201799284
    Two-Electron Energy =                 113.2396143726345770
    Total Energy =                       -117.0994302385313119

Computation Completed


Properties will be evaluated at   0.000000,   0.000000,   0.000000 [a0]

Properties computed using the SCF density matrix

  Nuclear Dipole Moment: [e a0]
     X:    -0.0002      Y:    -0.0002      Z:     0.0000

  Electronic Dipole Moment: [e a0]
     X:     0.0002      Y:     0.0001      Z:     0.0000

  Dipole Moment: [e a0]
     X:    -0.0000      Y:    -0.0000      Z:     0.0000     Total:     0.0000

  Dipole Moment: [D]
     X:    -0.0001      Y:    -0.0001      Z:     0.0000     Total:     0.0001


*** tstop() called on atlantis at Tue Apr 19 02:38:05 2022
Module time:
	user time   =       1.41 seconds =       0.02 minutes
	system time =       0.04 seconds =       0.00 minutes
	total time  =          2 seconds =       0.03 minutes
Total time:
	user time   =       3.20 seconds =       0.05 minutes
	system time =       0.12 seconds =       0.00 minutes
	total time  =          4 seconds =       0.07 minutes

*** tstart() called on atlantis
*** at Tue Apr 19 02:38:05 2022


  //>>>>>>>>>>>>>>>>>>>>>>>>>>>>>>>>>>>//
  //               DFMP2               //
  //<<<<<<<<<<<<<<<<<<<<<<<<<<<<<<<<<<<//

   => Loading Basis Set <=

    Name: (CC-PVTZ AUX)
    Role: RIFIT
    Keyword: DF_BASIS_MP2
    atoms 1-3 entry C          line   209 file /home/akrom/software/anaconda3/envs/ffpenv/share/psi4/basis/cc-pvtz-ri.gbs 
    atoms 4-9 entry H          line    19 file /home/akrom/software/anaconda3/envs/ffpenv/share/psi4/basis/cc-pvtz-ri.gbs 

	 --------------------------------------------------------
	                          DF-MP2                         
	      2nd-Order Density-Fitted Moller-Plesset Theory     
	              RMP2 Wavefunction,   1 Threads             
	                                                         
	        Rob Parrish, Justin Turney, Andy Simmonett,      
	           Ed Hohenstein, and C. David Sherrill          
	 --------------------------------------------------------

   => Auxiliary Basis Set <=

  Basis Set: (CC-PVTZ AUX)
    Blend: CC-PVTZ-RI
    Number of shells: 129
    Number of basis function: 423
    Number of Cartesian functions: 513
    Spherical Harmonics?: true
    Max angular momentum: 4

	 --------------------------------------------------------
	                 NBF =   174, NAUX =   423
	 --------------------------------------------------------
	   CLASS    FOCC     OCC    AOCC    AVIR     VIR    FVIR
	   PAIRS       0      12      12     162     162       0
	 --------------------------------------------------------

  DFHelper Memory: AOs need 0.102 GiB; user supplied 0.366 GiB. Using in-core AOs.


         ------------------------------------------------------------
                                     CPHF                           
                                  Rob Parrish                       
         ------------------------------------------------------------

  ==> Geometry <==

    Molecular point group: cs
    Full point group: Cs

    Geometry (in Angstrom), charge = 0, multiplicity = 1:

       Center              X                  Y                   Z               Mass       
    ------------   -----------------  -----------------  -----------------  -----------------
         C            0.321531939855     0.813261460475     0.000000000000    12.000000000000
         C           -0.865048060145    -0.128168539525     0.000000000000    12.000000000000
         C            0.543531939855    -0.685078539525     0.000000000000    12.000000000000
         H            0.537951939855     1.360691460475    -0.920390000000     1.007825032230
         H            0.537951939855     1.360691460475     0.920390000000     1.007825032230
         H           -1.447418060145    -0.214488539525     0.920340000000     1.007825032230
         H           -1.447418060145    -0.214488539525    -0.920340000000     1.007825032230
         H            0.909371939855    -1.146288539525    -0.920370000000     1.007825032230
         H            0.909371939855    -1.146288539525     0.920370000000     1.007825032230

  Nuclear repulsion =   75.281464809014025
  Reference energy  = -117.099430238531312

  ==> Basis Set <==

  Basis Set: CC-PVTZ
    Blend: CC-PVTZ
    Number of shells: 66
    Number of basis function: 174
    Number of Cartesian functions: 195
    Spherical Harmonics?: true
    Max angular momentum: 3

  ==> CGRSolver (by Rob Parrish) <==

   Number of roots    =         1
   Preconditioning    =    JACOBI
   Convergence cutoff =     1E-06
   Maximum iterations =       100

  ==> CPHFRHamiltonian (by Rob Parrish) <== 

  ==> MemDFJK: Density-Fitted J/K Matrices <==

    J tasked:                   Yes
    K tasked:                   Yes
    wK tasked:                   No
    OpenMP threads:               1
    Memory [MiB]:               375
    Algorithm:                 Core
    Schwarz Cutoff:           1E-12
    Mask sparsity (%):       0.0000
    Fitting Condition:        1E-10

   => Auxiliary Basis Set <=

  Basis Set: (CC-PVTZ AUX)
    Blend: CC-PVTZ-JKFIT
    Number of shells: 135
    Number of basis function: 417
    Number of Cartesian functions: 498
    Spherical Harmonics?: true
    Max angular momentum: 4

  ==> CPHF Iterations <==

  => Iterations <=

             Iter  Converged  Remaining    Residual
  CGR           1          0          1   8.260E-02
  CGR           2          0          1   1.420E-02
  CGR           3          0          1   3.347E-03
  CGR           4          0          1   5.295E-04
  CGR           5          0          1   7.045E-05
  CGR           6          0          1   6.073E-06
  CGR           7          1          0   8.573E-07

    CGRSolver converged.

  ==> DFCorrGrad: Density-Fitted Correlated Gradients <==

    OpenMP threads:              1
    Integrals threads:           1
    Memory [GiB]:            0.366
    Schwarz Cutoff:          0E+00
    Fitting Condition:       1E-10

   => Auxiliary Basis Set <=

  Basis Set: (CC-PVTZ AUX)
    Blend: CC-PVTZ-JKFIT
    Number of shells: 135
    Number of basis function: 417
    Number of Cartesian functions: 498
    Spherical Harmonics?: true
    Max angular momentum: 4

	-----------------------------------------------------------
	 ==================> DF-MP2 Energies <==================== 
	-----------------------------------------------------------
	 Reference Energy          =    -117.0994302385313119 [Eh]
	 Singles Energy            =      -0.0000000000000000 [Eh]
	 Same-Spin Energy          =      -0.1224363366646801 [Eh]
	 Opposite-Spin Energy      =      -0.4417802528388683 [Eh]
	 Correlation Energy        =      -0.5642165895035485 [Eh]
	 Total Energy              =    -117.6636468280348566 [Eh]
	-----------------------------------------------------------
	 ================> DF-SCS-MP2 Energies <================== 
	-----------------------------------------------------------
	 SCS Same-Spin Scale       =       0.3333333333333333 [-]
	 SCS Opposite-Spin Scale   =       1.2000000000000000 [-]
	 SCS Same-Spin Energy      =      -0.0408121122215600 [Eh]
	 SCS Opposite-Spin Energy  =      -0.5301363034066420 [Eh]
	 SCS Correlation Energy    =      -0.5709484156282020 [Eh]
	 SCS Total Energy          =    -117.6703786541595207 [Eh]
	-----------------------------------------------------------


  -Total Gradient:
     Atom            X                  Y                   Z
    ------   -----------------  -----------------  -----------------
       1        0.000414895891     0.001050526890     0.000000000000
       2       -0.001091999671    -0.000158539241     0.000000000000
       3        0.000699878971    -0.000872460851     0.000000000000
       4        0.002586690972     0.006546069031    -0.010014426922
       5        0.002586690972     0.006546069031     0.010014426922
       6       -0.006971302549    -0.001035643125     0.010004726248
       7       -0.006971302549    -0.001035643125    -0.010004726248
       8        0.004373223982    -0.005520189305    -0.010010691311
       9        0.004373223982    -0.005520189305     0.010010691311


*** tstop() called on atlantis at Tue Apr 19 02:38:11 2022
Module time:
	user time   =       5.87 seconds =       0.10 minutes
	system time =       0.26 seconds =       0.00 minutes
	total time  =          6 seconds =       0.10 minutes
Total time:
	user time   =       9.07 seconds =       0.15 minutes
	system time =       0.38 seconds =       0.01 minutes
	total time  =         10 seconds =       0.17 minutes

  Based on options and gradient (rms=5.78E-03), recommend projecting translations and projecting rotations.
hessian() will perform frequency computation by finite difference of analytic gradients.

         ----------------------------------------------------------
                                   FINDIF
                     R. A. King and Jonathon Misiewicz
         ---------------------------------------------------------

  Using finite-differences of gradients to determine vibrational frequencies and 
  normal modes.  Resulting frequencies are only valid at stationary points.
    Generating geometries for use with 3-point formula.
    Displacement size will be 5.00e-03.
    Number of atoms is 9.
    Number of irreps is 2.
    Number of SALCs is 21.
    Translations projected? 1. Rotations projected? 1.
    Index of SALCs per irrep:
     1 :  0  1  2  3  4  5  6  7  8  9  10  11 
     2 :  12  13  14  15  16  17  18  19  20 
    Number of SALCs per irrep:
     Irrep 1: 12
     Irrep 2: 9
    Number of geometries (including reference) is 34.
    Number of displacements per irrep:
      Irrep 1: 24
      Irrep 2: 9

  //>>>>>>>>>>>>>>>>>>>>>>>>>>>>>>>>>>>//
  //    Loading displacement 1 of 34   //
  //<<<<<<<<<<<<<<<<<<<<<<<<<<<<<<<<<<<//
gradient() will perform analytic gradient computation.
    SCF Algorithm Type (re)set to DF.

*** tstart() called on atlantis
*** at Tue Apr 19 02:38:11 2022

   => Loading Basis Set <=

    Name: CC-PVTZ
    Role: ORBITAL
    Keyword: BASIS
    atoms 1-3 entry C          line   186 file /home/akrom/software/anaconda3/envs/ffpenv/share/psi4/basis/cc-pvtz.gbs 
    atoms 4-9 entry H          line    23 file /home/akrom/software/anaconda3/envs/ffpenv/share/psi4/basis/cc-pvtz.gbs 


         ---------------------------------------------------------
                                   SCF
               by Justin Turney, Rob Parrish, Andy Simmonett
                          and Daniel G. A. Smith
                              RHF Reference
                        1 Threads,    500 MiB Core
         ---------------------------------------------------------

  ==> Geometry <==

    Molecular point group: cs
    Full point group: Cs

    Geometry (in Angstrom), charge = 0, multiplicity = 1:

       Center              X                  Y                   Z               Mass       
    ------------   -----------------  -----------------  -----------------  -----------------
         C            0.321531939855     0.813261460475     0.000000000000    12.000000000000
         C           -0.865048060145    -0.128168539525     0.000000000000    12.000000000000
         C            0.543531939855    -0.685078539525     0.000000000000    12.000000000000
         H            0.537951939855     1.360691460475    -0.920390000000     1.007825032230
         H            0.537951939855     1.360691460475     0.920390000000     1.007825032230
         H           -1.447418060145    -0.214488539525     0.920340000000     1.007825032230
         H           -1.447418060145    -0.214488539525    -0.920340000000     1.007825032230
         H            0.909371939855    -1.146288539525    -0.920370000000     1.007825032230
         H            0.909371939855    -1.146288539525     0.920370000000     1.007825032230

  Running in cs symmetry.

  Rotational constants: A =      0.66472  B =      0.66470  C =      0.41647 [cm^-1]
  Rotational constants: A =  19927.70596  B =  19927.20236  C =  12485.44714 [MHz]
  Nuclear repulsion =   75.281464809014025

  Charge       = 0
  Multiplicity = 1
  Electrons    = 24
  Nalpha       = 12
  Nbeta        = 12

  ==> Algorithm <==

  SCF Algorithm Type is DF.
  DIIS enabled.
  MOM disabled.
  Fractional occupation disabled.
  Guess Type is SAD.
  Energy threshold   = 1.00e-10
  Density threshold  = 1.00e-10
  Integral threshold = 0.00e+00

  ==> Primary Basis <==

  Basis Set: CC-PVTZ
    Blend: CC-PVTZ
    Number of shells: 66
    Number of basis function: 174
    Number of Cartesian functions: 195
    Spherical Harmonics?: true
    Max angular momentum: 3

   => Loading Basis Set <=

    Name: (CC-PVTZ AUX)
    Role: JKFIT
    Keyword: DF_BASIS_SCF
    atoms 1-3 entry C          line   125 file /home/akrom/software/anaconda3/envs/ffpenv/share/psi4/basis/cc-pvtz-jkfit.gbs 
    atoms 4-9 entry H          line    51 file /home/akrom/software/anaconda3/envs/ffpenv/share/psi4/basis/cc-pvtz-jkfit.gbs 

  ==> Pre-Iterations <==

   -------------------------------------------------------
    Irrep   Nso     Nmo     Nalpha   Nbeta   Ndocc  Nsocc
   -------------------------------------------------------
     A'       102     102       0       0       0       0
     A"        72      72       0       0       0       0
   -------------------------------------------------------
    Total     174     174      12      12      12       0
   -------------------------------------------------------

  ==> Integral Setup <==

  DFHelper Memory: AOs need 0.102 GiB; user supplied 0.366 GiB. Using in-core AOs.

  ==> MemDFJK: Density-Fitted J/K Matrices <==

    J tasked:                   Yes
    K tasked:                   Yes
    wK tasked:                   No
    OpenMP threads:               1
    Memory [MiB]:               375
    Algorithm:                 Core
    Schwarz Cutoff:           1E-12
    Mask sparsity (%):       0.0000
    Fitting Condition:        1E-10

   => Auxiliary Basis Set <=

  Basis Set: (CC-PVTZ AUX)
    Blend: CC-PVTZ-JKFIT
    Number of shells: 135
    Number of basis function: 417
    Number of Cartesian functions: 498
    Spherical Harmonics?: true
    Max angular momentum: 4

  Minimum eigenvalue in the overlap matrix is 6.9054665632E-04.
  Using Symmetric Orthogonalization.

  SCF Guess: Superposition of Atomic Densities via on-the-fly atomic UHF.

  ==> Iterations <==

                           Total Energy        Delta E     RMS |[F,P]|

   @DF-RHF iter SAD:  -116.69024927540805   -1.16690e+02   0.00000e+00 
   @DF-RHF iter   1:  -117.00120007229239   -3.10951e-01   3.22961e-03 DIIS
   @DF-RHF iter   2:  -117.07884709540626   -7.76470e-02   1.58258e-03 DIIS
   @DF-RHF iter   3:  -117.09833816272328   -1.94911e-02   2.69141e-04 DIIS
   @DF-RHF iter   4:  -117.09940323152631   -1.06507e-03   3.43785e-05 DIIS
   @DF-RHF iter   5:  -117.09942882180579   -2.55903e-05   7.81911e-06 DIIS
   @DF-RHF iter   6:  -117.09943019126598   -1.36946e-06   1.35011e-06 DIIS
   @DF-RHF iter   7:  -117.09943023752470   -4.62587e-08   2.13920e-07 DIIS
   @DF-RHF iter   8:  -117.09943023851955   -9.94845e-10   2.35268e-08 DIIS
   @DF-RHF iter   9:  -117.09943023853072   -1.11697e-11   4.42413e-09 DIIS
   @DF-RHF iter  10:  -117.09943023853110   -3.83693e-13   7.35956e-10 DIIS
   @DF-RHF iter  11:  -117.09943023853108    1.42109e-14   2.50788e-10 DIIS
   @DF-RHF iter  12:  -117.09943023853131   -2.27374e-13   2.74547e-11 DIIS
  Energy and wave function converged.


  ==> Post-Iterations <==

    Orbital Energies [Eh]
    ---------------------

    Doubly Occupied:                                                      

       1Ap   -11.227235     2Ap   -11.226259     3Ap   -11.226254  
       4Ap    -1.124544     5Ap    -0.813840     6Ap    -0.813835  
       1App   -0.662642     7Ap    -0.621734     2App   -0.510052  
       3App   -0.510036     8Ap    -0.417109     9Ap    -0.417101  

    Virtual:                                                              

      10Ap     0.151004     4App    0.168899    11Ap     0.181753  
      12Ap     0.181755     5App    0.247219     6App    0.247229  
      13Ap     0.283101    14Ap     0.330215    15Ap     0.330218  
      16Ap     0.335821    17Ap     0.433920    18Ap     0.433933  
       7App    0.440451     8App    0.514364     9App    0.514407  
      19Ap     0.563070    10App    0.581567    20Ap     0.593145  
      21Ap     0.622319    22Ap     0.622330    23Ap     0.630263  
      11App    0.689762    12App    0.689766    24Ap     0.693046  
      25Ap     0.693055    26Ap     0.833815    27Ap     0.833823  
      13App    0.917070    28Ap     0.979958    14App    1.006699  
      15App    1.006714    29Ap     1.109460    30Ap     1.109484  
      16App    1.161229    17App    1.176210    18App    1.176241  
      31Ap     1.220197    32Ap     1.220201    33Ap     1.248540  
      34Ap     1.294238    19App    1.302711    35Ap     1.355350  
      36Ap     1.355366    20App    1.364379    21App    1.364399  
      37Ap     1.452178    38Ap     1.480109    39Ap     1.480116  
      22App    1.484962    23App    1.545523    24App    1.545526  
      40Ap     1.570097    41Ap     1.662693    42Ap     1.662702  
      25App    1.744214    26App    1.744265    43Ap     1.789571  
      44Ap     1.798595    45Ap     1.798600    27App    1.858888  
      28App    2.458449    46Ap     2.526460    47Ap     2.526475  
      48Ap     2.530254    29App    2.593717    49Ap     2.649478  
      50Ap     2.683031    51Ap     2.683039    30App    2.766089  
      31App    2.766154    52Ap     2.966693    53Ap     2.966718  
      32App    2.985157    33App    2.985174    54Ap     3.030810  
      55Ap     3.039317    56Ap     3.068755    57Ap     3.068765  
      34App    3.184404    35App    3.184424    36App    3.194307  
      58Ap     3.227813    59Ap     3.282275    37App    3.322450  
      38App    3.322459    39App    3.369174    60Ap     3.395567  
      61Ap     3.395600    40App    3.437089    62Ap     3.453691  
      63Ap     3.453704    41App    3.467694    42App    3.467698  
      64Ap     3.597484    43App    3.619870    44App    3.619907  
      65Ap     3.643335    66Ap     3.691586    67Ap     3.691632  
      45App    3.701071    46App    3.789971    47App    3.841101  
      68Ap     3.893627    48App    3.954526    49App    3.954575  
      69Ap     3.998041    70Ap     3.998092    50App    4.004777  
      51App    4.039576    52App    4.039599    71Ap     4.066627  
      72Ap     4.066635    73Ap     4.165625    74Ap     4.226721  
      53App    4.244755    54App    4.244777    75Ap     4.267041  
      76Ap     4.267075    77Ap     4.394296    78Ap     4.394317  
      55App    4.461472    56App    4.461486    79Ap     4.495388  
      80Ap     4.500298    81Ap     4.500307    57App    4.517013  
      82Ap     4.563322    83Ap     4.580985    84Ap     4.581017  
      58App    4.732984    59App    4.732991    85Ap     4.775906  
      86Ap     4.775935    87Ap     4.898425    60App    4.929074  
      88Ap     4.979858    89Ap     4.979874    61App    5.222487  
      90Ap     5.300299    62App    5.301378    63App    5.301392  
      64App    5.418071    91Ap     5.435047    65App    5.495948  
      66App    5.496017    92Ap     5.509576    93Ap     5.509651  
      94Ap     5.513707    67App    5.646519    95Ap     5.709713  
      96Ap     5.804017    97Ap     5.804023    98Ap     5.926501  
      99Ap     5.926518    68App    6.178551    69App    6.202358  
      70App    6.202452    71App    6.359084    72App    6.359106  
     100Ap    11.449233   101Ap    13.624493   102Ap    13.624665  

    Final Occupation by Irrep:
             Ap   App 
    DOCC [     9,    3 ]

  @DF-RHF Final Energy:  -117.09943023853131

   => Energetics <=

    Nuclear Repulsion Energy =             75.2814648090140253
    One-Electron Energy =                -305.6205094201799284
    Two-Electron Energy =                 113.2396143726345770
    Total Energy =                       -117.0994302385313119

Computation Completed


Properties will be evaluated at   0.000000,   0.000000,   0.000000 [a0]

Properties computed using the SCF density matrix

  Nuclear Dipole Moment: [e a0]
     X:    -0.0002      Y:    -0.0002      Z:     0.0000

  Electronic Dipole Moment: [e a0]
     X:     0.0002      Y:     0.0001      Z:     0.0000

  Dipole Moment: [e a0]
     X:    -0.0000      Y:    -0.0000      Z:     0.0000     Total:     0.0000

  Dipole Moment: [D]
     X:    -0.0001      Y:    -0.0001      Z:     0.0000     Total:     0.0001


*** tstop() called on atlantis at Tue Apr 19 02:38:13 2022
Module time:
	user time   =       1.41 seconds =       0.02 minutes
	system time =       0.04 seconds =       0.00 minutes
	total time  =          2 seconds =       0.03 minutes
Total time:
	user time   =      10.76 seconds =       0.18 minutes
	system time =       0.44 seconds =       0.01 minutes
	total time  =         12 seconds =       0.20 minutes

*** tstart() called on atlantis
*** at Tue Apr 19 02:38:13 2022


  //>>>>>>>>>>>>>>>>>>>>>>>>>>>>>>>>>>>//
  //               DFMP2               //
  //<<<<<<<<<<<<<<<<<<<<<<<<<<<<<<<<<<<//

   => Loading Basis Set <=

    Name: (CC-PVTZ AUX)
    Role: RIFIT
    Keyword: DF_BASIS_MP2
    atoms 1-3 entry C          line   209 file /home/akrom/software/anaconda3/envs/ffpenv/share/psi4/basis/cc-pvtz-ri.gbs 
    atoms 4-9 entry H          line    19 file /home/akrom/software/anaconda3/envs/ffpenv/share/psi4/basis/cc-pvtz-ri.gbs 

	 --------------------------------------------------------
	                          DF-MP2                         
	      2nd-Order Density-Fitted Moller-Plesset Theory     
	              RMP2 Wavefunction,   1 Threads             
	                                                         
	        Rob Parrish, Justin Turney, Andy Simmonett,      
	           Ed Hohenstein, and C. David Sherrill          
	 --------------------------------------------------------

   => Auxiliary Basis Set <=

  Basis Set: (CC-PVTZ AUX)
    Blend: CC-PVTZ-RI
    Number of shells: 129
    Number of basis function: 423
    Number of Cartesian functions: 513
    Spherical Harmonics?: true
    Max angular momentum: 4

	 --------------------------------------------------------
	                 NBF =   174, NAUX =   423
	 --------------------------------------------------------
	   CLASS    FOCC     OCC    AOCC    AVIR     VIR    FVIR
	   PAIRS       0      12      12     162     162       0
	 --------------------------------------------------------

  DFHelper Memory: AOs need 0.102 GiB; user supplied 0.366 GiB. Using in-core AOs.


         ------------------------------------------------------------
                                     CPHF                           
                                  Rob Parrish                       
         ------------------------------------------------------------

  ==> Geometry <==

    Molecular point group: cs
    Full point group: Cs

    Geometry (in Angstrom), charge = 0, multiplicity = 1:

       Center              X                  Y                   Z               Mass       
    ------------   -----------------  -----------------  -----------------  -----------------
         C            0.321531939855     0.813261460475     0.000000000000    12.000000000000
         C           -0.865048060145    -0.128168539525     0.000000000000    12.000000000000
         C            0.543531939855    -0.685078539525     0.000000000000    12.000000000000
         H            0.537951939855     1.360691460475    -0.920390000000     1.007825032230
         H            0.537951939855     1.360691460475     0.920390000000     1.007825032230
         H           -1.447418060145    -0.214488539525     0.920340000000     1.007825032230
         H           -1.447418060145    -0.214488539525    -0.920340000000     1.007825032230
         H            0.909371939855    -1.146288539525    -0.920370000000     1.007825032230
         H            0.909371939855    -1.146288539525     0.920370000000     1.007825032230

  Nuclear repulsion =   75.281464809014025
  Reference energy  = -117.099430238531312

  ==> Basis Set <==

  Basis Set: CC-PVTZ
    Blend: CC-PVTZ
    Number of shells: 66
    Number of basis function: 174
    Number of Cartesian functions: 195
    Spherical Harmonics?: true
    Max angular momentum: 3

  ==> CGRSolver (by Rob Parrish) <==

   Number of roots    =         1
   Preconditioning    =    JACOBI
   Convergence cutoff =     1E-06
   Maximum iterations =       100

  ==> CPHFRHamiltonian (by Rob Parrish) <== 

  ==> MemDFJK: Density-Fitted J/K Matrices <==

    J tasked:                   Yes
    K tasked:                   Yes
    wK tasked:                   No
    OpenMP threads:               1
    Memory [MiB]:               375
    Algorithm:                 Core
    Schwarz Cutoff:           1E-12
    Mask sparsity (%):       0.0000
    Fitting Condition:        1E-10

   => Auxiliary Basis Set <=

  Basis Set: (CC-PVTZ AUX)
    Blend: CC-PVTZ-JKFIT
    Number of shells: 135
    Number of basis function: 417
    Number of Cartesian functions: 498
    Spherical Harmonics?: true
    Max angular momentum: 4

  ==> CPHF Iterations <==

  => Iterations <=

             Iter  Converged  Remaining    Residual
  CGR           1          0          1   8.260E-02
  CGR           2          0          1   1.420E-02
  CGR           3          0          1   3.347E-03
  CGR           4          0          1   5.295E-04
  CGR           5          0          1   7.045E-05
  CGR           6          0          1   6.073E-06
  CGR           7          1          0   8.573E-07

    CGRSolver converged.

  ==> DFCorrGrad: Density-Fitted Correlated Gradients <==

    OpenMP threads:              1
    Integrals threads:           1
    Memory [GiB]:            0.366
    Schwarz Cutoff:          0E+00
    Fitting Condition:       1E-10

   => Auxiliary Basis Set <=

  Basis Set: (CC-PVTZ AUX)
    Blend: CC-PVTZ-JKFIT
    Number of shells: 135
    Number of basis function: 417
    Number of Cartesian functions: 498
    Spherical Harmonics?: true
    Max angular momentum: 4

	-----------------------------------------------------------
	 ==================> DF-MP2 Energies <==================== 
	-----------------------------------------------------------
	 Reference Energy          =    -117.0994302385313119 [Eh]
	 Singles Energy            =      -0.0000000000000000 [Eh]
	 Same-Spin Energy          =      -0.1224363366646801 [Eh]
	 Opposite-Spin Energy      =      -0.4417802528388683 [Eh]
	 Correlation Energy        =      -0.5642165895035485 [Eh]
	 Total Energy              =    -117.6636468280348566 [Eh]
	-----------------------------------------------------------
	 ================> DF-SCS-MP2 Energies <================== 
	-----------------------------------------------------------
	 SCS Same-Spin Scale       =       0.3333333333333333 [-]
	 SCS Opposite-Spin Scale   =       1.2000000000000000 [-]
	 SCS Same-Spin Energy      =      -0.0408121122215600 [Eh]
	 SCS Opposite-Spin Energy  =      -0.5301363034066420 [Eh]
	 SCS Correlation Energy    =      -0.5709484156282020 [Eh]
	 SCS Total Energy          =    -117.6703786541595207 [Eh]
	-----------------------------------------------------------


  -Total Gradient:
     Atom            X                  Y                   Z
    ------   -----------------  -----------------  -----------------
       1        0.000414895891     0.001050526890     0.000000000000
       2       -0.001091999671    -0.000158539241     0.000000000000
       3        0.000699878971    -0.000872460851     0.000000000000
       4        0.002586690972     0.006546069031    -0.010014426922
       5        0.002586690972     0.006546069031     0.010014426922
       6       -0.006971302549    -0.001035643125     0.010004726248
       7       -0.006971302549    -0.001035643125    -0.010004726248
       8        0.004373223982    -0.005520189305    -0.010010691311
       9        0.004373223982    -0.005520189305     0.010010691311


*** tstop() called on atlantis at Tue Apr 19 02:38:19 2022
Module time:
	user time   =       5.89 seconds =       0.10 minutes
	system time =       0.22 seconds =       0.00 minutes
	total time  =          6 seconds =       0.10 minutes
Total time:
	user time   =      16.65 seconds =       0.28 minutes
	system time =       0.66 seconds =       0.01 minutes
	total time  =         18 seconds =       0.30 minutes

  //>>>>>>>>>>>>>>>>>>>>>>>>>>>>>>>>>>>//
  //    Loading displacement 2 of 34   //
  //<<<<<<<<<<<<<<<<<<<<<<<<<<<<<<<<<<<//
gradient() will perform analytic gradient computation.
    SCF Algorithm Type (re)set to DF.

*** tstart() called on atlantis
*** at Tue Apr 19 02:38:19 2022

   => Loading Basis Set <=

    Name: CC-PVTZ
    Role: ORBITAL
    Keyword: BASIS
    atoms 1-3 entry C          line   186 file /home/akrom/software/anaconda3/envs/ffpenv/share/psi4/basis/cc-pvtz.gbs 
    atoms 4-9 entry H          line    23 file /home/akrom/software/anaconda3/envs/ffpenv/share/psi4/basis/cc-pvtz.gbs 


         ---------------------------------------------------------
                                   SCF
               by Justin Turney, Rob Parrish, Andy Simmonett
                          and Daniel G. A. Smith
                              RHF Reference
                        1 Threads,    500 MiB Core
         ---------------------------------------------------------

  ==> Geometry <==

    Molecular point group: cs
    Full point group: Cs

    Geometry (in Angstrom), charge = 0, multiplicity = 1:

       Center              X                  Y                   Z               Mass       
    ------------   -----------------  -----------------  -----------------  -----------------
         C            0.320981935461     0.813179232929     0.000000000000    12.000000000000
         C           -0.864778117207    -0.127947314912     0.000000000000    12.000000000000
         C            0.543659460418    -0.685217540638     0.000000000000    12.000000000000
         H            0.538602639069     1.360553886373    -0.920390000000     1.007825032230
         H            0.538602639069     1.360553886373     0.920390000000     1.007825032230
         H           -1.447170192407    -0.214118381478     0.920340000000     1.007825032230
         H           -1.447170192407    -0.214118381478    -0.920340000000     1.007825032230
         H            0.909381512053    -1.146521099385    -0.920370000000     1.007825032230
         H            0.909381512053    -1.146521099385     0.920370000000     1.007825032230

  Running in cs symmetry.

  Rotational constants: A =      0.66511  B =      0.66452  C =      0.41655 [cm^-1]
  Rotational constants: A =  19939.46144  B =  19921.88173  C =  12487.97026 [MHz]
  Nuclear repulsion =   75.286659304380962

  Charge       = 0
  Multiplicity = 1
  Electrons    = 24
  Nalpha       = 12
  Nbeta        = 12

  ==> Algorithm <==

  SCF Algorithm Type is DF.
  DIIS enabled.
  MOM disabled.
  Fractional occupation disabled.
  Guess Type is SAD.
  Energy threshold   = 1.00e-10
  Density threshold  = 1.00e-10
  Integral threshold = 0.00e+00

  ==> Primary Basis <==

  Basis Set: CC-PVTZ
    Blend: CC-PVTZ
    Number of shells: 66
    Number of basis function: 174
    Number of Cartesian functions: 195
    Spherical Harmonics?: true
    Max angular momentum: 3

   => Loading Basis Set <=

    Name: (CC-PVTZ AUX)
    Role: JKFIT
    Keyword: DF_BASIS_SCF
    atoms 1-3 entry C          line   125 file /home/akrom/software/anaconda3/envs/ffpenv/share/psi4/basis/cc-pvtz-jkfit.gbs 
    atoms 4-9 entry H          line    51 file /home/akrom/software/anaconda3/envs/ffpenv/share/psi4/basis/cc-pvtz-jkfit.gbs 

  ==> Pre-Iterations <==

   -------------------------------------------------------
    Irrep   Nso     Nmo     Nalpha   Nbeta   Ndocc  Nsocc
   -------------------------------------------------------
     A'       102     102       0       0       0       0
     A"        72      72       0       0       0       0
   -------------------------------------------------------
    Total     174     174      12      12      12       0
   -------------------------------------------------------

  ==> Integral Setup <==

  DFHelper Memory: AOs need 0.102 GiB; user supplied 0.366 GiB. Using in-core AOs.

  ==> MemDFJK: Density-Fitted J/K Matrices <==

    J tasked:                   Yes
    K tasked:                   Yes
    wK tasked:                   No
    OpenMP threads:               1
    Memory [MiB]:               375
    Algorithm:                 Core
    Schwarz Cutoff:           1E-12
    Mask sparsity (%):       0.0000
    Fitting Condition:        1E-10

   => Auxiliary Basis Set <=

  Basis Set: (CC-PVTZ AUX)
    Blend: CC-PVTZ-JKFIT
    Number of shells: 135
    Number of basis function: 417
    Number of Cartesian functions: 498
    Spherical Harmonics?: true
    Max angular momentum: 4

  Minimum eigenvalue in the overlap matrix is 6.8947762386E-04.
  Using Symmetric Orthogonalization.

  SCF Guess: Superposition of Atomic Densities via on-the-fly atomic UHF.

  ==> Iterations <==

                           Total Energy        Delta E     RMS |[F,P]|

   @DF-RHF iter SAD:  -116.69090617223344   -1.16691e+02   0.00000e+00 
   @DF-RHF iter   1:  -117.00114783399357   -3.10242e-01   3.23070e-03 DIIS
   @DF-RHF iter   2:  -117.07882646584982   -7.76786e-02   1.58356e-03 DIIS
   @DF-RHF iter   3:  -117.09834011323198   -1.95136e-02   2.69173e-04 DIIS
   @DF-RHF iter   4:  -117.09940559905991   -1.06549e-03   3.43850e-05 DIIS
   @DF-RHF iter   5:  -117.09943120053568   -2.56015e-05   7.82011e-06 DIIS
   @DF-RHF iter   6:  -117.09943257048157   -1.36995e-06   1.35040e-06 DIIS
   @DF-RHF iter   7:  -117.09943261672572   -4.62442e-08   2.16225e-07 DIIS
   @DF-RHF iter   8:  -117.09943261772169   -9.95968e-10   3.75640e-08 DIIS
   @DF-RHF iter   9:  -117.09943261773829   -1.65983e-11   1.29464e-08 DIIS
   @DF-RHF iter  10:  -117.09943261774043   -2.14584e-12   2.09850e-09 DIIS
   @DF-RHF iter  11:  -117.09943261774052   -8.52651e-14   2.51225e-10 DIIS
   @DF-RHF iter  12:  -117.09943261774085   -3.26850e-13   2.85622e-11 DIIS
  Energy and wave function converged.


  ==> Post-Iterations <==

    Orbital Energies [Eh]
    ---------------------

    Doubly Occupied:                                                      

       1Ap   -11.227221     2Ap   -11.226255     3Ap   -11.226227  
       4Ap    -1.124661     5Ap    -0.813868     6Ap    -0.813764  
       1App   -0.662644     7Ap    -0.621797     2App   -0.510047  
       3App   -0.509916     8Ap    -0.417402     9Ap    -0.416906  

    Virtual:                                                              

      10Ap     0.151003     4App    0.168879    11Ap     0.181746  
      12Ap     0.181762     5App    0.247208     6App    0.247255  
      13Ap     0.283162    14Ap     0.330130    15Ap     0.330319  
      16Ap     0.335817    17Ap     0.433890    18Ap     0.433949  
       7App    0.440432     8App    0.514171     9App    0.514589  
      19Ap     0.563038    10App    0.581539    20Ap     0.593186  
      21Ap     0.622322    22Ap     0.622423    23Ap     0.630255  
      11App    0.689686    12App    0.689795    24Ap     0.692966  
      25Ap     0.693281    26Ap     0.833794    27Ap     0.833910  
      13App    0.917084    28Ap     0.979972    14App    1.006676  
      15App    1.006768    29Ap     1.109367    30Ap     1.109591  
      16App    1.161262    17App    1.176233    18App    1.176286  
      31Ap     1.220126    32Ap     1.220298    33Ap     1.248529  
      34Ap     1.294249    19App    1.302752    35Ap     1.355336  
      36Ap     1.355527    20App    1.364291    21App    1.364499  
      37Ap     1.452196    38Ap     1.480110    39Ap     1.480232  
      22App    1.484930    23App    1.545445    24App    1.545517  
      40Ap     1.570007    41Ap     1.662518    42Ap     1.662875  
      25App    1.743990    26App    1.744524    43Ap     1.789427  
      44Ap     1.798361    45Ap     1.798619    27App    1.858934  
      28App    2.458408    46Ap     2.526551    47Ap     2.526706  
      48Ap     2.530419    29App    2.593734    49Ap     2.649507  
      50Ap     2.683041    51Ap     2.683160    30App    2.765777  
      31App    2.766583    52Ap     2.966577    53Ap     2.966845  
      32App    2.985140    33App    2.985307    54Ap     3.030924  
      55Ap     3.039598    56Ap     3.068620    57Ap     3.069028  
      34App    3.184298    35App    3.184635    36App    3.194282  
      58Ap     3.227765    59Ap     3.282242    37App    3.322328  
      38App    3.322642    39App    3.369228    60Ap     3.395457  
      61Ap     3.395807    40App    3.437140    62Ap     3.453516  
      63Ap     3.453843    41App    3.467464    42App    3.467729  
      64Ap     3.597625    43App    3.619816    44App    3.620159  
      65Ap     3.643377    66Ap     3.691639    67Ap     3.691666  
      45App    3.700912    46App    3.790135    47App    3.841098  
      68Ap     3.893516    48App    3.954576    49App    3.954822  
      69Ap     3.997682    70Ap     3.998605    50App    4.004810  
      51App    4.039512    52App    4.039694    71Ap     4.066454  
      72Ap     4.066768    73Ap     4.165913    74Ap     4.226854  
      53App    4.244582    54App    4.244867    75Ap     4.266698  
      76Ap     4.267145    77Ap     4.394190    78Ap     4.394509  
      55App    4.461443    56App    4.461588    79Ap     4.495372  
      80Ap     4.500051    81Ap     4.500453    57App    4.517084  
      82Ap     4.563326    83Ap     4.580943    84Ap     4.581442  
      58App    4.732834    59App    4.733180    85Ap     4.775510  
      86Ap     4.776664    87Ap     4.898280    60App    4.929100  
      88Ap     4.979695    89Ap     4.979905    61App    5.222223  
      90Ap     5.300133    62App    5.301014    63App    5.301463  
      64App    5.417898    91Ap     5.435564    65App    5.495741  
      66App    5.496130    92Ap     5.509405    93Ap     5.509792  
      94Ap     5.513610    67App    5.646589    95Ap     5.709641  
      96Ap     5.803625    97Ap     5.804038    98Ap     5.926232  
      99Ap     5.927304    68App    6.178630    69App    6.201674  
      70App    6.203211    71App    6.358575    72App    6.359535  
     100Ap    11.447772   101Ap    13.623063   102Ap    13.628692  

    Final Occupation by Irrep:
             Ap   App 
    DOCC [     9,    3 ]

  @DF-RHF Final Energy:  -117.09943261774085

   => Energetics <=

    Nuclear Repulsion Energy =             75.2866593043809615
    One-Electron Energy =                -305.6307704049423251
    Two-Electron Energy =                 113.2446784828205040
    Total Energy =                       -117.0994326177408453

Computation Completed


Properties will be evaluated at   0.000000,   0.000000,   0.000000 [a0]

Properties computed using the SCF density matrix

  Nuclear Dipole Moment: [e a0]
     X:     0.0015      Y:    -0.0002      Z:     0.0000

  Electronic Dipole Moment: [e a0]
     X:    -0.0018      Y:     0.0004      Z:     0.0000

  Dipole Moment: [e a0]
     X:    -0.0003      Y:     0.0002      Z:     0.0000     Total:     0.0004

  Dipole Moment: [D]
     X:    -0.0007      Y:     0.0006      Z:     0.0000     Total:     0.0009


*** tstop() called on atlantis at Tue Apr 19 02:38:20 2022
Module time:
	user time   =       1.41 seconds =       0.02 minutes
	system time =       0.02 seconds =       0.00 minutes
	total time  =          1 seconds =       0.02 minutes
Total time:
	user time   =      18.07 seconds =       0.30 minutes
	system time =       0.69 seconds =       0.01 minutes
	total time  =         19 seconds =       0.32 minutes

*** tstart() called on atlantis
*** at Tue Apr 19 02:38:20 2022


  //>>>>>>>>>>>>>>>>>>>>>>>>>>>>>>>>>>>//
  //               DFMP2               //
  //<<<<<<<<<<<<<<<<<<<<<<<<<<<<<<<<<<<//

   => Loading Basis Set <=

    Name: (CC-PVTZ AUX)
    Role: RIFIT
    Keyword: DF_BASIS_MP2
    atoms 1-3 entry C          line   209 file /home/akrom/software/anaconda3/envs/ffpenv/share/psi4/basis/cc-pvtz-ri.gbs 
    atoms 4-9 entry H          line    19 file /home/akrom/software/anaconda3/envs/ffpenv/share/psi4/basis/cc-pvtz-ri.gbs 

	 --------------------------------------------------------
	                          DF-MP2                         
	      2nd-Order Density-Fitted Moller-Plesset Theory     
	              RMP2 Wavefunction,   1 Threads             
	                                                         
	        Rob Parrish, Justin Turney, Andy Simmonett,      
	           Ed Hohenstein, and C. David Sherrill          
	 --------------------------------------------------------

   => Auxiliary Basis Set <=

  Basis Set: (CC-PVTZ AUX)
    Blend: CC-PVTZ-RI
    Number of shells: 129
    Number of basis function: 423
    Number of Cartesian functions: 513
    Spherical Harmonics?: true
    Max angular momentum: 4

	 --------------------------------------------------------
	                 NBF =   174, NAUX =   423
	 --------------------------------------------------------
	   CLASS    FOCC     OCC    AOCC    AVIR     VIR    FVIR
	   PAIRS       0      12      12     162     162       0
	 --------------------------------------------------------

  DFHelper Memory: AOs need 0.102 GiB; user supplied 0.366 GiB. Using in-core AOs.


         ------------------------------------------------------------
                                     CPHF                           
                                  Rob Parrish                       
         ------------------------------------------------------------

  ==> Geometry <==

    Molecular point group: cs
    Full point group: Cs

    Geometry (in Angstrom), charge = 0, multiplicity = 1:

       Center              X                  Y                   Z               Mass       
    ------------   -----------------  -----------------  -----------------  -----------------
         C            0.320981935461     0.813179232929     0.000000000000    12.000000000000
         C           -0.864778117207    -0.127947314912     0.000000000000    12.000000000000
         C            0.543659460418    -0.685217540638     0.000000000000    12.000000000000
         H            0.538602639069     1.360553886373    -0.920390000000     1.007825032230
         H            0.538602639069     1.360553886373     0.920390000000     1.007825032230
         H           -1.447170192407    -0.214118381478     0.920340000000     1.007825032230
         H           -1.447170192407    -0.214118381478    -0.920340000000     1.007825032230
         H            0.909381512053    -1.146521099385    -0.920370000000     1.007825032230
         H            0.909381512053    -1.146521099385     0.920370000000     1.007825032230

  Nuclear repulsion =   75.286659304380962
  Reference energy  = -117.099432617740845

  ==> Basis Set <==

  Basis Set: CC-PVTZ
    Blend: CC-PVTZ
    Number of shells: 66
    Number of basis function: 174
    Number of Cartesian functions: 195
    Spherical Harmonics?: true
    Max angular momentum: 3

  ==> CGRSolver (by Rob Parrish) <==

   Number of roots    =         1
   Preconditioning    =    JACOBI
   Convergence cutoff =     1E-06
   Maximum iterations =       100

  ==> CPHFRHamiltonian (by Rob Parrish) <== 

  ==> MemDFJK: Density-Fitted J/K Matrices <==

    J tasked:                   Yes
    K tasked:                   Yes
    wK tasked:                   No
    OpenMP threads:               1
    Memory [MiB]:               375
    Algorithm:                 Core
    Schwarz Cutoff:           1E-12
    Mask sparsity (%):       0.0000
    Fitting Condition:        1E-10

   => Auxiliary Basis Set <=

  Basis Set: (CC-PVTZ AUX)
    Blend: CC-PVTZ-JKFIT
    Number of shells: 135
    Number of basis function: 417
    Number of Cartesian functions: 498
    Spherical Harmonics?: true
    Max angular momentum: 4

  ==> CPHF Iterations <==

  => Iterations <=

             Iter  Converged  Remaining    Residual
  CGR           1          0          1   8.262E-02
  CGR           2          0          1   1.421E-02
  CGR           3          0          1   3.346E-03
  CGR           4          0          1   5.294E-04
  CGR           5          0          1   7.052E-05
  CGR           6          0          1   6.853E-06
  CGR           7          0          1   2.272E-06
  CGR           8          1          0   4.218E-07

    CGRSolver converged.

  ==> DFCorrGrad: Density-Fitted Correlated Gradients <==

    OpenMP threads:              1
    Integrals threads:           1
    Memory [GiB]:            0.366
    Schwarz Cutoff:          0E+00
    Fitting Condition:       1E-10

   => Auxiliary Basis Set <=

  Basis Set: (CC-PVTZ AUX)
    Blend: CC-PVTZ-JKFIT
    Number of shells: 135
    Number of basis function: 417
    Number of Cartesian functions: 498
    Spherical Harmonics?: true
    Max angular momentum: 4

	-----------------------------------------------------------
	 ==================> DF-MP2 Energies <==================== 
	-----------------------------------------------------------
	 Reference Energy          =    -117.0994326177408453 [Eh]
	 Singles Energy            =      -0.0000000000000000 [Eh]
	 Same-Spin Energy          =      -0.1224376716033261 [Eh]
	 Opposite-Spin Energy      =      -0.4417768191383528 [Eh]
	 Correlation Energy        =      -0.5642144907416788 [Eh]
	 Total Energy              =    -117.6636471084825217 [Eh]
	-----------------------------------------------------------
	 ================> DF-SCS-MP2 Energies <================== 
	-----------------------------------------------------------
	 SCS Same-Spin Scale       =       0.3333333333333333 [-]
	 SCS Opposite-Spin Scale   =       1.2000000000000000 [-]
	 SCS Same-Spin Energy      =      -0.0408125572011087 [Eh]
	 SCS Opposite-Spin Energy  =      -0.5301321829660233 [Eh]
	 SCS Correlation Energy    =      -0.5709447401671319 [Eh]
	 SCS Total Energy          =    -117.6703773579079808 [Eh]
	-----------------------------------------------------------


  -Total Gradient:
     Atom            X                  Y                   Z
    ------   -----------------  -----------------  -----------------
       1       -0.000131635457     0.000788520948     0.000000000000
       2       -0.000821623259    -0.000019828810     0.000000000000
       3        0.000736365001    -0.000875796539     0.000000000000
       4        0.002687369092     0.006604342145    -0.010102084321
       5        0.002687369092     0.006604342145     0.010102084321
       6       -0.006952892117    -0.001009930600     0.010010567336
       7       -0.006952892117    -0.001009930600    -0.010010567336
       8        0.004373969881    -0.005540859345    -0.010008249919
       9        0.004373969881    -0.005540859345     0.010008249919


*** tstop() called on atlantis at Tue Apr 19 02:38:26 2022
Module time:
	user time   =       5.91 seconds =       0.10 minutes
	system time =       0.26 seconds =       0.00 minutes
	total time  =          6 seconds =       0.10 minutes
Total time:
	user time   =      23.98 seconds =       0.40 minutes
	system time =       0.95 seconds =       0.02 minutes
	total time  =         25 seconds =       0.42 minutes

  //>>>>>>>>>>>>>>>>>>>>>>>>>>>>>>>>>>>//
  //    Loading displacement 3 of 34   //
  //<<<<<<<<<<<<<<<<<<<<<<<<<<<<<<<<<<<//
gradient() will perform analytic gradient computation.
    SCF Algorithm Type (re)set to DF.

*** tstart() called on atlantis
*** at Tue Apr 19 02:38:26 2022

   => Loading Basis Set <=

    Name: CC-PVTZ
    Role: ORBITAL
    Keyword: BASIS
    atoms 1-3 entry C          line   186 file /home/akrom/software/anaconda3/envs/ffpenv/share/psi4/basis/cc-pvtz.gbs 
    atoms 4-9 entry H          line    23 file /home/akrom/software/anaconda3/envs/ffpenv/share/psi4/basis/cc-pvtz.gbs 


         ---------------------------------------------------------
                                   SCF
               by Justin Turney, Rob Parrish, Andy Simmonett
                          and Daniel G. A. Smith
                              RHF Reference
                        1 Threads,    500 MiB Core
         ---------------------------------------------------------

  ==> Geometry <==

    Molecular point group: cs
    Full point group: Cs

    Geometry (in Angstrom), charge = 0, multiplicity = 1:

       Center              X                  Y                   Z               Mass       
    ------------   -----------------  -----------------  -----------------  -----------------
         C            0.322081944250     0.813343688021     0.000000000000    12.000000000000
         C           -0.865318003082    -0.128389764139     0.000000000000    12.000000000000
         C            0.543404419293    -0.684939538412     0.000000000000    12.000000000000
         H            0.537301240642     1.360829034576    -0.920390000000     1.007825032230
         H            0.537301240642     1.360829034576     0.920390000000     1.007825032230
         H           -1.447665927882    -0.214858697572     0.920340000000     1.007825032230
         H           -1.447665927882    -0.214858697572    -0.920340000000     1.007825032230
         H            0.909362367658    -1.146055979665    -0.920370000000     1.007825032230
         H            0.909362367658    -1.146055979665     0.920370000000     1.007825032230

  Running in cs symmetry.

  Rotational constants: A =      0.66489  B =      0.66431  C =      0.41639 [cm^-1]
  Rotational constants: A =  19932.94970  B =  19915.53021  C =  12482.92073 [MHz]
  Nuclear repulsion =   75.276267816162189

  Charge       = 0
  Multiplicity = 1
  Electrons    = 24
  Nalpha       = 12
  Nbeta        = 12

  ==> Algorithm <==

  SCF Algorithm Type is DF.
  DIIS enabled.
  MOM disabled.
  Fractional occupation disabled.
  Guess Type is SAD.
  Energy threshold   = 1.00e-10
  Density threshold  = 1.00e-10
  Integral threshold = 0.00e+00

  ==> Primary Basis <==

  Basis Set: CC-PVTZ
    Blend: CC-PVTZ
    Number of shells: 66
    Number of basis function: 174
    Number of Cartesian functions: 195
    Spherical Harmonics?: true
    Max angular momentum: 3

   => Loading Basis Set <=

    Name: (CC-PVTZ AUX)
    Role: JKFIT
    Keyword: DF_BASIS_SCF
    atoms 1-3 entry C          line   125 file /home/akrom/software/anaconda3/envs/ffpenv/share/psi4/basis/cc-pvtz-jkfit.gbs 
    atoms 4-9 entry H          line    51 file /home/akrom/software/anaconda3/envs/ffpenv/share/psi4/basis/cc-pvtz-jkfit.gbs 

  ==> Pre-Iterations <==

   -------------------------------------------------------
    Irrep   Nso     Nmo     Nalpha   Nbeta   Ndocc  Nsocc
   -------------------------------------------------------
     A'       102     102       0       0       0       0
     A"        72      72       0       0       0       0
   -------------------------------------------------------
    Total     174     174      12      12      12       0
   -------------------------------------------------------

  ==> Integral Setup <==

  DFHelper Memory: AOs need 0.102 GiB; user supplied 0.366 GiB. Using in-core AOs.

  ==> MemDFJK: Density-Fitted J/K Matrices <==

    J tasked:                   Yes
    K tasked:                   Yes
    wK tasked:                   No
    OpenMP threads:               1
    Memory [MiB]:               375
    Algorithm:                 Core
    Schwarz Cutoff:           1E-12
    Mask sparsity (%):       0.0000
    Fitting Condition:        1E-10

   => Auxiliary Basis Set <=

  Basis Set: (CC-PVTZ AUX)
    Blend: CC-PVTZ-JKFIT
    Number of shells: 135
    Number of basis function: 417
    Number of Cartesian functions: 498
    Spherical Harmonics?: true
    Max angular momentum: 4

  Minimum eigenvalue in the overlap matrix is 6.8983772260E-04.
  Using Symmetric Orthogonalization.

  SCF Guess: Superposition of Atomic Densities via on-the-fly atomic UHF.

  ==> Iterations <==

                           Total Energy        Delta E     RMS |[F,P]|

   @DF-RHF iter SAD:  -116.68959215962357   -1.16690e+02   0.00000e+00 
   @DF-RHF iter   1:  -117.00125092805578   -3.11659e-01   3.22852e-03 DIIS
   @DF-RHF iter   2:  -117.07886640716089   -7.76155e-02   1.58161e-03 DIIS
   @DF-RHF iter   3:  -117.09833496797157   -1.94686e-02   2.69108e-04 DIIS
   @DF-RHF iter   4:  -117.09939962115575   -1.06465e-03   3.43723e-05 DIIS
   @DF-RHF iter   5:  -117.09942520037032   -2.55792e-05   7.81842e-06 DIIS
   @DF-RHF iter   6:  -117.09942656937653   -1.36901e-06   1.35073e-06 DIIS
   @DF-RHF iter   7:  -117.09942661565685   -4.62803e-08   2.16282e-07 DIIS
   @DF-RHF iter   8:  -117.09942661665457   -9.97716e-10   3.75082e-08 DIIS
   @DF-RHF iter   9:  -117.09942661667147   -1.68967e-11   1.29430e-08 DIIS
   @DF-RHF iter  10:  -117.09942661667343   -1.96110e-12   2.09944e-09 DIIS
   @DF-RHF iter  11:  -117.09942661667377   -3.41061e-13   2.51257e-10 DIIS
   @DF-RHF iter  12:  -117.09942661667375    1.42109e-14   2.85454e-11 DIIS
  Energy and wave function converged.


  ==> Post-Iterations <==

    Orbital Energies [Eh]
    ---------------------

    Doubly Occupied:                                                      

       1Ap   -11.227249     2Ap   -11.226284     3Ap   -11.226260  
       4Ap    -1.124428     5Ap    -0.813915     6Ap    -0.813804  
       1App   -0.662640     7Ap    -0.621671     2App   -0.510180  
[...]
	 Opposite-Spin Energy      =      -0.4417803408754312 [Eh]
	 Correlation Energy        =      -0.5642166881082965 [Eh]
	 Total Energy              =    -117.6636443420738942 [Eh]
	-----------------------------------------------------------
	 ================> DF-SCS-MP2 Energies <================== 
	-----------------------------------------------------------
	 SCS Same-Spin Scale       =       0.3333333333333333 [-]
	 SCS Opposite-Spin Scale   =       1.2000000000000000 [-]
	 SCS Same-Spin Energy      =      -0.0408121157442884 [Eh]
	 SCS Opposite-Spin Energy  =      -0.5301364090505174 [Eh]
	 SCS Correlation Energy    =      -0.5709485247948058 [Eh]
	 SCS Total Energy          =    -117.6703761787603923 [Eh]
	-----------------------------------------------------------


  -Total Gradient:
     Atom            X                  Y                   Z
    ------   -----------------  -----------------  -----------------
       1        0.000414902558     0.001050581328     0.000006660994
       2       -0.001092474254    -0.000158739707     0.000425351028
       3        0.000700445829    -0.000874760377    -0.001185747966
       4        0.002584593953     0.006539511048    -0.010016025525
       5        0.002588782027     0.006552626484     0.010012820005
       6       -0.006803860753    -0.001033163179     0.009733720744
       7       -0.007138104695    -0.001038054281    -0.010275050620
       8        0.004015476139    -0.005173166604    -0.009359170989
       9        0.004730239197    -0.005864834712     0.010657442329


*** tstop() called on atlantis at Tue Apr 19 02:42:31 2022
Module time:
	user time   =       5.90 seconds =       0.10 minutes
	system time =       0.25 seconds =       0.00 minutes
	total time  =          6 seconds =       0.10 minutes
Total time:
	user time   =     258.80 seconds =       4.31 minutes
	system time =      10.06 seconds =       0.17 minutes
	total time  =        270 seconds =       4.50 minutes

         ----------------------------------------------------------
                                   FINDIF
                     R. A. King and Jonathon Misiewicz
         ---------------------------------------------------------

  Computing second-derivative from gradients using projected, 
  symmetry-adapted, cartesian coordinates.

  34 gradients passed in, including the reference geometry.
  Generating complete list of displacements from unique ones.

    Operation 2 takes plus displacements of irrep A" to minus ones.

-------------------------------------------------------------


  ==> Harmonic Vibrational Analysis <==

  non-mass-weighted Hessian:       Symmetric? True   Hermitian? True   Lin Dep Dim?  6 (0)
  projection of translations (True) and rotations (True) removed 6 degrees of freedom (6)
  total projector:                 Symmetric? True   Hermitian? True   Lin Dep Dim?  6 (6)
  mass-weighted Hessian:           Symmetric? True   Hermitian? True   Lin Dep Dim?  6 (0)
  pre-proj  low-frequency mode:    0.0000i [cm^-1]
  pre-proj  low-frequency mode:    0.0000i [cm^-1]
  pre-proj  low-frequency mode:    0.0000i [cm^-1]
  pre-proj  low-frequency mode:    0.0000  [cm^-1]
  pre-proj  low-frequency mode:    0.0000  [cm^-1]
  pre-proj  low-frequency mode:    0.0000  [cm^-1]
  pre-proj  all modes:['0.0001i' '0.0000i' '0.0000i' '0.0000' '0.0000' '0.0000' '827.2733'
 '827.2896' '880.7289' '880.7608' '937.0484' '1116.7977' '1116.8107'
 '1141.0932' '1199.7531' '1210.9177' '1247.5655' '1247.5656' '1513.6716'
 '1513.6866' '1554.2359' '3046.0563' '3046.0762' '3054.2544' '3113.7781'
 '3113.7890' '3133.2213']
  projected mass-weighted Hessian: Symmetric? True   Hermitian? True   Lin Dep Dim?  6 (6)
  post-proj low-frequency mode:    0.0000i [cm^-1] (TR)
  post-proj low-frequency mode:    0.0000i [cm^-1] (TR)
  post-proj low-frequency mode:    0.0000i [cm^-1] (TR)
  post-proj low-frequency mode:    0.0000i [cm^-1] (TR)
  post-proj low-frequency mode:    0.0000i [cm^-1] (TR)
  post-proj low-frequency mode:    0.0000  [cm^-1] (TR)
  post-proj  all modes:['0.0000i' '0.0000i' '0.0000i' '0.0000i' '0.0000i' '0.0000' '827.2733'
 '827.2896' '880.7289' '880.7608' '937.0484' '1116.7977' '1116.8107'
 '1141.0932' '1199.7531' '1210.9177' '1247.5655' '1247.5656' '1513.6716'
 '1513.6866' '1554.2359' '3046.0563' '3046.0762' '3054.2544' '3113.7781'
 '3113.7890' '3133.2213']

  Vibration                       7                   8                   9           
  Freq [cm^-1]                 827.2733            827.2896            880.7289       
  Irrep                          App                 App                  Ap          
  Reduced mass [u]              1.0228              1.0228              4.5085        
  Force const [mDyne/A]         0.4124              0.4124              2.0605        
  Turning point v=0 [a0]        0.3772              0.3772              0.1741        
  RMS dev v=0 [a0 u^1/2]        0.2698              0.2698              0.2614        
  Char temp [K]               1190.2621           1190.2855           1267.1728       
  ----------------------------------------------------------------------------------
      1   C               -0.00 -0.00  0.03    0.00  0.00 -0.01   -0.23  0.22 -0.00   
      2   C               -0.00  0.00 -0.02    0.00 -0.00 -0.02    0.32  0.10  0.00   
      3   C                0.00  0.00 -0.01    0.00  0.00  0.03   -0.06 -0.32  0.00   
      4   H               -0.03 -0.33 -0.18    0.43 -0.10  0.04   -0.30  0.22 -0.01   
      5   H                0.03  0.33 -0.18   -0.43  0.10  0.04   -0.30  0.22  0.01   
      6   H                0.26 -0.29  0.12    0.20  0.33  0.13    0.26  0.10 -0.04   
      7   H               -0.26  0.29  0.12   -0.20 -0.33  0.13    0.26  0.10  0.04   
      8   H                0.39  0.18  0.06   -0.09  0.33 -0.17   -0.12 -0.32 -0.02   
      9   H               -0.39 -0.18  0.06    0.09 -0.33 -0.17   -0.12 -0.32  0.02   

  Vibration                       10                  11                  12          
  Freq [cm^-1]                 880.7608            937.0484           1116.7977       
  Irrep                           Ap                 App                  Ap          
  Reduced mass [u]              4.5087              1.0440              1.1948        
  Force const [mDyne/A]         2.0607              0.5401              0.8780        
  Turning point v=0 [a0]        0.1741              0.3508              0.3004        
  RMS dev v=0 [a0 u^1/2]        0.2614              0.2535              0.2322        
  Char temp [K]               1267.2186           1348.2040           1606.8232       
  ----------------------------------------------------------------------------------
      1   C               -0.22 -0.25 -0.00    0.00  0.00 -0.03   -0.07  0.04  0.00   
      2   C               -0.10  0.30  0.00   -0.00 -0.00 -0.03    0.01 -0.01  0.00   
      3   C                0.32 -0.08 -0.00   -0.00 -0.00 -0.03   -0.07 -0.06 -0.00   
      4   H               -0.22 -0.19  0.03    0.13  0.33  0.20    0.41 -0.17 -0.01   
      5   H               -0.22 -0.19 -0.03   -0.13 -0.33  0.20    0.41 -0.17  0.01   
      6   H               -0.10  0.37  0.01    0.35  0.05  0.20   -0.03  0.08 -0.02   
      7   H               -0.10  0.37 -0.01   -0.35 -0.05  0.20   -0.03  0.08  0.02   
      8   H                0.33 -0.02 -0.03    0.22 -0.28  0.20    0.41  0.33 -0.01   
      9   H                0.33 -0.02  0.03   -0.22  0.28  0.20    0.41  0.33  0.01   

  Vibration                       13                  14                  15          
  Freq [cm^-1]                1116.8107           1141.0932           1199.7531       
  Irrep                           Ap                  Ap                  Ap          
  Reduced mass [u]              1.1948              1.4254              2.9754        
  Force const [mDyne/A]         0.8781              1.0936              2.5234        
  Turning point v=0 [a0]        0.3004              0.2721              0.1837        
  RMS dev v=0 [a0 u^1/2]        0.2322              0.2297              0.2240        
  Char temp [K]               1606.8419           1641.7791           1726.1777       
  ----------------------------------------------------------------------------------
      1   C                0.06 -0.02 -0.00   -0.10  0.04 -0.00   -0.09 -0.23 -0.00   
      2   C                0.01 -0.10  0.00    0.02 -0.11 -0.00    0.24  0.04  0.00   
      3   C               -0.04 -0.02 -0.00    0.09  0.07  0.00   -0.15  0.19 -0.00   
      4   H               -0.33  0.12 -0.01    0.37 -0.15 -0.00   -0.13 -0.34 -0.05   
      5   H               -0.33  0.12  0.01    0.37 -0.15  0.00   -0.13 -0.34  0.05   
      6   H               -0.08  0.56  0.00   -0.06  0.40  0.00    0.36  0.05  0.05   
      7   H               -0.08  0.56 -0.00   -0.06  0.40 -0.00    0.36  0.05 -0.05   
      8   H                0.18  0.12  0.01   -0.31 -0.25  0.00   -0.23  0.29 -0.05   
      9   H                0.18  0.12 -0.01   -0.31 -0.25 -0.00   -0.23  0.29  0.05   

  Vibration                       16                  17                  18          
  Freq [cm^-1]                1210.9177           1247.5655           1247.5656       
  Irrep                          App                 App                 App          
  Reduced mass [u]              1.0078              1.4471              1.4471        
  Force const [mDyne/A]         0.8707              1.3270              1.3270        
  Turning point v=0 [a0]        0.3141              0.2582              0.2582        
  RMS dev v=0 [a0 u^1/2]        0.2230              0.2197              0.2197        
  Char temp [K]               1742.2409           1794.9689           1794.9691       
  ----------------------------------------------------------------------------------
      1   C               -0.00 -0.00 -0.00   -0.00 -0.00 -0.09    0.00  0.00 -0.13   
      2   C                0.00 -0.00  0.00    0.00  0.00 -0.07   -0.00  0.00  0.15   
      3   C                0.00  0.00  0.00   -0.00  0.00  0.16    0.00 -0.00 -0.02   
      4   H               -0.38  0.15  0.00   -0.21  0.33  0.05    0.33  0.22  0.07   
      5   H                0.38 -0.15  0.00    0.21 -0.33  0.05   -0.33 -0.22  0.07   
      6   H               -0.06  0.40  0.00    0.22 -0.33  0.03   -0.33 -0.21 -0.08   
      7   H                0.06 -0.40  0.00   -0.22  0.33  0.03    0.33  0.21 -0.08   
      8   H                0.32  0.25 -0.00   -0.22  0.33 -0.08    0.33  0.21  0.01   
      9   H               -0.32 -0.25 -0.00    0.22 -0.33 -0.08   -0.33 -0.21  0.01   

  Vibration                       19                  20                  21          
  Freq [cm^-1]                1513.6716           1513.6866           1554.2359       
  Irrep                           Ap                  Ap                  Ap          
  Reduced mass [u]              1.0896              1.0896              1.2636        
  Force const [mDyne/A]         1.4709              1.4709              1.7984        
  Turning point v=0 [a0]        0.2702              0.2702              0.2476        
  RMS dev v=0 [a0 u^1/2]        0.1994              0.1994              0.1968        
  Char temp [K]               2177.8365           2177.8579           2236.1994       
  ----------------------------------------------------------------------------------
      1   C               -0.02 -0.06  0.00   -0.02 -0.01 -0.00    0.03  0.08 -0.00   
      2   C               -0.01 -0.01 -0.00   -0.07 -0.01  0.00   -0.09 -0.01 -0.00   
      3   C                0.02 -0.05 -0.00   -0.04  0.03 -0.00    0.05 -0.07  0.00   
      4   H                0.16  0.42  0.31    0.07  0.13  0.10   -0.12 -0.30 -0.25   
      5   H                0.16  0.42 -0.31    0.07  0.13 -0.10   -0.12 -0.30  0.25   
      6   H                0.10  0.03  0.07    0.46  0.06  0.32    0.31  0.05  0.25   
      7   H                0.10  0.03 -0.07    0.46  0.06 -0.32    0.31  0.05 -0.25   
      8   H               -0.21  0.28 -0.24    0.21 -0.24  0.22   -0.20  0.25 -0.25   
      9   H               -0.21  0.28  0.24    0.21 -0.24 -0.22   -0.20  0.25  0.25   

  Vibration                       22                  23                  24          
  Freq [cm^-1]                3046.0563           3046.0762           3054.2544       
  Irrep                           Ap                  Ap                  Ap          
  Reduced mass [u]              1.0495              1.0495              1.0635        
  Force const [mDyne/A]         5.7375              5.7376              5.8451        
  Turning point v=0 [a0]        0.1941              0.1941              0.1925        
  RMS dev v=0 [a0 u^1/2]        0.1406              0.1406              0.1404        
  Char temp [K]               4382.5969           4382.6255           4394.3920       
  ----------------------------------------------------------------------------------
      1   C                0.02  0.04 -0.00    0.01  0.02  0.00    0.02  0.04 -0.00   
      2   C                0.01  0.00  0.00    0.05  0.01 -0.00   -0.04 -0.01  0.00   
      3   C               -0.02  0.03  0.00    0.02 -0.02 -0.00    0.03 -0.03 -0.00   
      4   H               -0.10 -0.26  0.46   -0.04 -0.11  0.19   -0.08 -0.19  0.35   
      5   H               -0.10 -0.26 -0.46   -0.04 -0.11 -0.19   -0.08 -0.19 -0.35   
      6   H               -0.04 -0.01  0.06   -0.29 -0.04  0.49    0.21  0.03 -0.35   
      7   H               -0.04 -0.01 -0.06   -0.29 -0.04 -0.49    0.21  0.03  0.35   
      8   H                0.15 -0.19 -0.39   -0.11  0.14  0.30   -0.13  0.16  0.35   
      9   H                0.15 -0.19  0.39   -0.11  0.14 -0.30   -0.13  0.16 -0.35   

  Vibration                       25                  26                  27          
  Freq [cm^-1]                3113.7781           3113.7890           3133.2213       
  Irrep                          App                 App                 App          
  Reduced mass [u]              1.1206              1.1206              1.1162        
  Force const [mDyne/A]         6.4016              6.4017              6.4560        
  Turning point v=0 [a0]        0.1858              0.1858              0.1855        
  RMS dev v=0 [a0 u^1/2]        0.1390              0.1390              0.1386        
  Char temp [K]               4480.0334           4480.0491           4508.0079       
  ----------------------------------------------------------------------------------
      1   C                0.00  0.00  0.02   -0.00 -0.00 -0.08   -0.00 -0.00 -0.06   
      2   C               -0.00  0.00 -0.08    0.00  0.00  0.02   -0.00 -0.00 -0.06   
      3   C                0.00 -0.00  0.06    0.00 -0.00  0.06   -0.00  0.00 -0.06   
      4   H                0.03  0.08 -0.14   -0.11 -0.27  0.47   -0.08 -0.21  0.34   
      5   H               -0.03 -0.08 -0.14    0.11  0.27  0.47    0.08  0.21  0.34   
      6   H               -0.30 -0.05  0.47    0.07  0.01 -0.11   -0.22 -0.03  0.34   
      7   H                0.30  0.05  0.47   -0.07 -0.01 -0.11    0.22  0.03  0.34   
      8   H                0.13 -0.17 -0.33    0.14 -0.17 -0.35   -0.14  0.17  0.34   
      9   H               -0.13  0.17 -0.33   -0.14  0.17 -0.35    0.14 -0.17  0.34   

  ==> Thermochemistry Components <==

  Entropy, S
    Electronic S            0.000 [cal/(mol K)]        0.000 [J/(mol K)]       0.00000000 [mEh/K] (multiplicity = 1)
    Translational S        37.135 [cal/(mol K)]      155.375 [J/(mol K)]       0.05917914 [mEh/K] (mol. weight = 42.0470 [u], P = 101325.00 [Pa])
    Rotational S           21.699 [cal/(mol K)]       90.789 [J/(mol K)]       0.03457982 [mEh/K] (symmetry no. = 1)
    Vibrational S           1.144 [cal/(mol K)]        4.786 [J/(mol K)]       0.00182298 [mEh/K]
  Total S                  59.979 [cal/(mol K)]      250.950 [J/(mol K)]       0.09558194 [mEh/K]
  Correction S              0.000 [cal/(mol K)]        0.000 [J/(mol K)]       0.00000000 [mEh/K]

  Constant volume heat capacity, Cv
    Electronic Cv           0.000 [cal/(mol K)]        0.000 [J/(mol K)]       0.00000000 [mEh/K]
    Translational Cv        2.981 [cal/(mol K)]       12.472 [J/(mol K)]       0.00475022 [mEh/K]
    Rotational Cv           2.981 [cal/(mol K)]       12.472 [J/(mol K)]       0.00475022 [mEh/K]
    Vibrational Cv          4.457 [cal/(mol K)]       18.649 [J/(mol K)]       0.00710306 [mEh/K]
  Total Cv                 10.419 [cal/(mol K)]       43.592 [J/(mol K)]       0.01660349 [mEh/K]
  Correction Cv             0.000 [cal/(mol K)]        0.000 [J/(mol K)]       0.00000000 [mEh/K]

  Constant pressure heat capacity, Cp
    Electronic Cp           0.000 [cal/(mol K)]        0.000 [J/(mol K)]       0.00000000 [mEh/K]
    Translational Cp        4.968 [cal/(mol K)]       20.786 [J/(mol K)]       0.00791703 [mEh/K]
    Rotational Cp           2.981 [cal/(mol K)]       12.472 [J/(mol K)]       0.00475022 [mEh/K]
    Vibrational Cp          4.457 [cal/(mol K)]       18.649 [J/(mol K)]       0.00710306 [mEh/K]
  Total Cp                 12.406 [cal/(mol K)]       51.907 [J/(mol K)]       0.01977030 [mEh/K]
  Correction Cp             0.000 [cal/(mol K)]        0.000 [J/(mol K)]       0.00000000 [mEh/K]

  ==> Thermochemistry Energy Analysis <==

  Raw electronic energy, E0
  Total E0, Electronic energy at well bottom at 0 [K]                 -117.66364683 [Eh]

  Zero-point energy, ZPE_vib = Sum_i nu_i / 2
    Electronic ZPE          0.000 [kcal/mol]        0.000 [kJ/mol]       0.00000000 [Eh]
    Translational ZPE       0.000 [kcal/mol]        0.000 [kJ/mol]       0.00000000 [Eh]
    Rotational ZPE          0.000 [kcal/mol]        0.000 [kJ/mol]       0.00000000 [Eh]
    Vibrational ZPE        51.068 [kcal/mol]      213.667 [kJ/mol]       0.08138156 [Eh]       17861.187 [cm^-1]
  Correction ZPE           51.068 [kcal/mol]      213.667 [kJ/mol]       0.08138156 [Eh]       17861.187 [cm^-1]
  Total ZPE, Electronic energy at 0 [K]                               -117.58226527 [Eh]

  Thermal Energy, E (includes ZPE)
    Electronic E            0.000 [kcal/mol]        0.000 [kJ/mol]       0.00000000 [Eh]
    Translational E         0.889 [kcal/mol]        3.718 [kJ/mol]       0.00141628 [Eh]
    Rotational E            0.889 [kcal/mol]        3.718 [kJ/mol]       0.00141628 [Eh]
    Vibrational E          51.348 [kcal/mol]      214.839 [kJ/mol]       0.08182795 [Eh]
  Correction E             53.125 [kcal/mol]      222.276 [kJ/mol]       0.08466050 [Eh]
  Total E, Electronic energy at  298.15 [K]                           -117.57898633 [Eh]

  Enthalpy, H_trans = E_trans + k_B * T
    Electronic H            0.000 [kcal/mol]        0.000 [kJ/mol]       0.00000000 [Eh]
    Translational H         1.481 [kcal/mol]        6.197 [kJ/mol]       0.00236046 [Eh]
    Rotational H            0.889 [kcal/mol]        3.718 [kJ/mol]       0.00141628 [Eh]
    Vibrational H          51.348 [kcal/mol]      214.839 [kJ/mol]       0.08182795 [Eh]
  Correction H             53.718 [kcal/mol]      224.755 [kJ/mol]       0.08560469 [Eh]
  Total H, Enthalpy at  298.15 [K]                                    -117.57804214 [Eh]

  Gibbs free energy, G = H - T * S
    Electronic G            0.000 [kcal/mol]        0.000 [kJ/mol]       0.00000000 [Eh]
    Translational G        -9.591 [kcal/mol]      -40.128 [kJ/mol]      -0.01528380 [Eh]
    Rotational G           -5.581 [kcal/mol]      -23.350 [kJ/mol]      -0.00889370 [Eh]
    Vibrational G          51.007 [kcal/mol]      213.412 [kJ/mol]       0.08128443 [Eh]
  Correction G             35.835 [kcal/mol]      149.934 [kJ/mol]       0.05710693 [Eh]
  Total G, Free enthalpy at  298.15 [K]                               -117.60653990 [Eh]

    Psi4 stopped on: Tuesday, 19 April 2022 02:42AM
    Psi4 wall time for execution: 0:04:29.65

*** Psi4 exiting successfully. Buy a developer a beer!
