
    -----------------------------------------------------------------------
          Psi4: An Open-Source Ab Initio Electronic Structure Package
                               Psi4 1.3.2 release

                         Git: Rev {HEAD} ecbda83 


    R. M. Parrish, L. A. Burns, D. G. A. Smith, A. C. Simmonett,
    A. E. DePrince III, E. G. Hohenstein, U. Bozkaya, A. Yu. Sokolov,
    R. Di Remigio, R. M. Richard, J. F. Gonthier, A. M. James,
    H. R. McAlexander, A. Kumar, M. Saitow, X. Wang, B. P. Pritchard,
    P. Verma, H. F. Schaefer III, K. Patkowski, R. A. King, E. F. Valeev,
    F. A. Evangelista, J. M. Turney, T. D. Crawford, and C. D. Sherrill,
    J. Chem. Theory Comput. 13(7) pp 3185--3197 (2017).
    (doi: 10.1021/acs.jctc.7b00174)


                         Additional Contributions by
    P. Kraus, H. Kruse, M. H. Lechner, M. C. Schieber, R. A. Shaw,
    A. Alenaizan, R. Galvelis, Z. L. Glick, S. Lehtola, and J. P. Misiewicz

    -----------------------------------------------------------------------


    Psi4 started on: Tuesday, 19 April 2022 03:00PM

    Process ID: 3264
    Host:       atlantis
    PSIDATADIR: /home/akrom/software/anaconda3/envs/ffpenv/share/psi4
    Memory:     500.0 MiB
    Threads:    1
    
  ==> Input File <==

--------------------------------------------------------------------------
set basis  cc-pVTZ
molecule {
0 1
   C        0.32153        0.81326        0.00000
   C       -0.86505       -0.12817        0.00000
   C        0.54353       -0.68508        0.00000
   H        0.53795        1.36069       -0.92039
   H        0.53795        1.36069        0.92039
   H       -1.44742       -0.21449        0.92034
   H       -1.44742       -0.21449       -0.92034
   H        0.90937       -1.14629       -0.92037
   H        0.90937       -1.14629        0.92037
}
energy('B3LYP')
frequencies('B3LYP')
--------------------------------------------------------------------------

*** tstart() called on atlantis
*** at Tue Apr 19 15:00:51 2022

   => Loading Basis Set <=

    Name: CC-PVTZ
    Role: ORBITAL
    Keyword: BASIS
    atoms 1-3 entry C          line   186 file /home/akrom/software/anaconda3/envs/ffpenv/share/psi4/basis/cc-pvtz.gbs 
    atoms 4-9 entry H          line    23 file /home/akrom/software/anaconda3/envs/ffpenv/share/psi4/basis/cc-pvtz.gbs 


         ---------------------------------------------------------
                                   SCF
               by Justin Turney, Rob Parrish, Andy Simmonett
                          and Daniel G. A. Smith
                              RKS Reference
                        1 Threads,    500 MiB Core
         ---------------------------------------------------------

  ==> Geometry <==

    Molecular point group: cs
    Full point group: Cs

    Geometry (in Angstrom), charge = 0, multiplicity = 1:

       Center              X                  Y                   Z               Mass       
    ------------   -----------------  -----------------  -----------------  -----------------
         C            0.321531939855     0.813261460475     0.000000000000    12.000000000000
         C           -0.865048060145    -0.128168539525     0.000000000000    12.000000000000
         C            0.543531939855    -0.685078539525     0.000000000000    12.000000000000
         H            0.537951939855     1.360691460475    -0.920390000000     1.007825032230
         H            0.537951939855     1.360691460475     0.920390000000     1.007825032230
         H           -1.447418060145    -0.214488539525     0.920340000000     1.007825032230
         H           -1.447418060145    -0.214488539525    -0.920340000000     1.007825032230
         H            0.909371939855    -1.146288539525    -0.920370000000     1.007825032230
         H            0.909371939855    -1.146288539525     0.920370000000     1.007825032230

  Running in cs symmetry.

  Rotational constants: A =      0.66472  B =      0.66470  C =      0.41647 [cm^-1]
  Rotational constants: A =  19927.70596  B =  19927.20236  C =  12485.44714 [MHz]
  Nuclear repulsion =   75.281464809014025

  Charge       = 0
  Multiplicity = 1
  Electrons    = 24
  Nalpha       = 12
  Nbeta        = 12

  ==> Algorithm <==

  SCF Algorithm Type is DF.
  DIIS enabled.
  MOM disabled.
  Fractional occupation disabled.
  Guess Type is SAD.
  Energy threshold   = 1.00e-06
  Density threshold  = 1.00e-06
  Integral threshold = 0.00e+00

  ==> Primary Basis <==

  Basis Set: CC-PVTZ
    Blend: CC-PVTZ
    Number of shells: 66
    Number of basis function: 174
    Number of Cartesian functions: 195
    Spherical Harmonics?: true
    Max angular momentum: 3

  ==> DFT Potential <==

   => Composite Functional: B3LYP <= 

    B3LYP Hyb-GGA Exchange-Correlation Functional

    P. J. Stephens, F. J. Devlin, C. F. Chabalowski, and M. J. Frisch, J. Phys. Chem. 98, 11623 (1994)

    Deriv               =              1
    GGA                 =           TRUE
    Meta                =          FALSE

    Exchange Hybrid     =           TRUE
    MP2 Hybrid          =          FALSE

   => Exchange Functionals <=

    0.0800   Slater exchange
    0.7200         Becke 88

   => Exact (HF) Exchange <=

    0.2000               HF 

   => Correlation Functionals <=

    0.1900   Vosko, Wilk & Nusair (VWN5_RPA)
    0.8100   Lee, Yang & Parr

   => Molecular Quadrature <=

    Radial Scheme          =       TREUTLER
    Pruning Scheme         =           FLAT
    Nuclear Scheme         =       TREUTLER

    BS radius alpha        =              1
    Pruning alpha          =              1
    Radial Points          =             75
    Spherical Points       =            302
    Total Points           =         201034
    Total Blocks           =           1571
    Max Points             =            256
    Max Functions          =            174

   => Loading Basis Set <=

    Name: (CC-PVTZ AUX)
    Role: JKFIT
    Keyword: DF_BASIS_SCF
    atoms 1-3 entry C          line   125 file /home/akrom/software/anaconda3/envs/ffpenv/share/psi4/basis/cc-pvtz-jkfit.gbs 
    atoms 4-9 entry H          line    51 file /home/akrom/software/anaconda3/envs/ffpenv/share/psi4/basis/cc-pvtz-jkfit.gbs 

  ==> Pre-Iterations <==

   -------------------------------------------------------
    Irrep   Nso     Nmo     Nalpha   Nbeta   Ndocc  Nsocc
   -------------------------------------------------------
     A'       102     102       0       0       0       0
     A"        72      72       0       0       0       0
   -------------------------------------------------------
    Total     174     174      12      12      12       0
   -------------------------------------------------------

  ==> Integral Setup <==

  DFHelper Memory: AOs need 0.102 GiB; user supplied 0.102 GiB. Using in-core AOs.

  ==> MemDFJK: Density-Fitted J/K Matrices <==

    J tasked:                   Yes
    K tasked:                   Yes
    wK tasked:                   No
    OpenMP threads:               1
    Memory [MiB]:               104
    Algorithm:                 Core
    Schwarz Cutoff:           1E-12
    Mask sparsity (%):       0.0000
    Fitting Condition:        1E-10

   => Auxiliary Basis Set <=

  Basis Set: (CC-PVTZ AUX)
    Blend: CC-PVTZ-JKFIT
    Number of shells: 135
    Number of basis function: 417
    Number of Cartesian functions: 498
    Spherical Harmonics?: true
    Max angular momentum: 4

  Cached 33.4% of DFT collocation blocks in 0.288 [GiB].

  Minimum eigenvalue in the overlap matrix is 6.9054665632E-04.
  Using Symmetric Orthogonalization.

  SCF Guess: Superposition of Atomic Densities via on-the-fly atomic UHF.

  ==> Iterations <==

                           Total Energy        Delta E     RMS |[F,P]|

   @DF-RKS iter SAD:  -117.50898456864121   -1.17509e+02   0.00000e+00 
   @DF-RKS iter   1:  -117.54166897066654   -3.26844e-02   7.06265e-03 DIIS
   @DF-RKS iter   2:  -117.17567293634207    3.65996e-01   9.48923e-03 DIIS
   @DF-RKS iter   3:  -117.94048376716954   -7.64811e-01   4.46490e-04 DIIS
   @DF-RKS iter   4:  -117.94193462055607   -1.45085e-03   9.40742e-05 DIIS
   @DF-RKS iter   5:  -117.94199428301830   -5.96625e-05   9.40183e-06 DIIS
   @DF-RKS iter   6:  -117.94199502352262   -7.40504e-07   3.56270e-07 DIIS
  Energy and wave function converged.


  ==> Post-Iterations <==

    Orbital Energies [Eh]
    ---------------------

    Doubly Occupied:                                                      

       1Ap   -10.176800     2Ap   -10.176424     3Ap   -10.176419  
       4Ap    -0.846833     5Ap    -0.596015     6Ap    -0.596010  
       1App   -0.493096     7Ap    -0.464339     2App   -0.364956  
       3App   -0.364942     8Ap    -0.297009     9Ap    -0.297003  

    Virtual:                                                              

      10Ap     0.043795     4App    0.059131    11Ap     0.077396  
      12Ap     0.077400    13Ap     0.127858     5App    0.147253  
       6App    0.147260    14Ap     0.200686    15Ap     0.200690  
      16Ap     0.207464     7App    0.282365    17Ap     0.296464  
      18Ap     0.296477     8App    0.368138     9App    0.368166  
      19Ap     0.387391    20Ap     0.419752    21Ap     0.419762  
      22Ap     0.422387    10App    0.430149    23Ap     0.472641  
      11App    0.491411    12App    0.491416    24Ap     0.495203  
      25Ap     0.495209    26Ap     0.666051    27Ap     0.666065  
      13App    0.725613    28Ap     0.780064    14App    0.813512  
      15App    0.813528    29Ap     0.913148    30Ap     0.913174  
      16App    0.953072    17App    0.980234    18App    0.980265  
      31Ap     1.004213    32Ap     1.004216    33Ap     1.047820  
      34Ap     1.081747    19App    1.096506    35Ap     1.120249  
      36Ap     1.120263    20App    1.148247    21App    1.148256  
      37Ap     1.231804    38Ap     1.260161    39Ap     1.260167  
      22App    1.268235    23App    1.306218    24App    1.306221  
      40Ap     1.360265    41Ap     1.440918    42Ap     1.440936  
      43Ap     1.513136    25App    1.531530    26App    1.531579  
      44Ap     1.543440    45Ap     1.543444    27App    1.620367  
      28App    2.146245    46Ap     2.166097    47Ap     2.166109  
      48Ap     2.228840    29App    2.254964    49Ap     2.340229  
      50Ap     2.362507    51Ap     2.362522    30App    2.444363  
      31App    2.444428    52Ap     2.626018    53Ap     2.626040  
      32App    2.649368    33App    2.649387    54Ap     2.674029  
      55Ap     2.681022    56Ap     2.741897    57Ap     2.741908  
      34App    2.854991    35App    2.855002    36App    2.871509  
      58Ap     2.895744    59Ap     2.950689    37App    2.989706  
      38App    2.989722    39App    3.060028    60Ap     3.064858  
      61Ap     3.064890    40App    3.091062    62Ap     3.102775  
      63Ap     3.102789    41App    3.109920    42App    3.109923  
      64Ap     3.258576    65Ap     3.296122    43App    3.304222  
      44App    3.304256    45App    3.358843    66Ap     3.370131  
      67Ap     3.370173    46App    3.450878    47App    3.535159  
      68Ap     3.571102    48App    3.611619    49App    3.611665  
      69Ap     3.666484    70Ap     3.666533    50App    3.667117  
      51App    3.726437    52App    3.726473    71Ap     3.741333  
      72Ap     3.741338    73Ap     3.774346    74Ap     3.900470  
      75Ap     3.908877    76Ap     3.908904    53App    3.920492  
      54App    3.920511    77Ap     4.047596    78Ap     4.047609  
      55App    4.135798    56App    4.135812    79Ap     4.156748  
      80Ap     4.156755    81Ap     4.177434    57App    4.201446  
      82Ap     4.224334    83Ap     4.230948    84Ap     4.230989  
      85Ap     4.393686    86Ap     4.393728    58App    4.397777  
      59App    4.397792    87Ap     4.522048    60App    4.594881  
      88Ap     4.631567    89Ap     4.631577    61App    4.845264  
      90Ap     4.921024    62App    4.930646    63App    4.930663  
      91Ap     5.032675    64App    5.062271    65App    5.132691  
      66App    5.132756    92Ap     5.145203    93Ap     5.161298  
      94Ap     5.161367    67App    5.284982    95Ap     5.341111  
      96Ap     5.417524    97Ap     5.417532    98Ap     5.517247  
      99Ap     5.517257    68App    5.781318    69App    5.815202  
      70App    5.815290    71App    5.971299    72App    5.971322  
     100Ap    10.819928   101Ap    12.884726   102Ap    12.884888  

    Final Occupation by Irrep:
             Ap   App 
    DOCC [     9,    3 ]

  @DF-RKS Final Energy:  -117.94199502352262

   => Energetics <=

    Nuclear Repulsion Energy =             75.2814648090140253
    One-Electron Energy =                -305.9742719368804842
    Two-Electron Energy =                 127.7312490448012738
    DFT Exchange-Correlation Energy =     -14.9804369404574533
    Empirical Dispersion Energy =           0.0000000000000000
    VV10 Nonlocal Energy =                  0.0000000000000000
    Total Energy =                       -117.9419950235226224

Computation Completed


Properties will be evaluated at   0.000000,   0.000000,   0.000000 [a0]

Properties computed using the SCF density matrix

  Nuclear Dipole Moment: [e a0]
     X:    -0.0002      Y:    -0.0002      Z:     0.0000

  Electronic Dipole Moment: [e a0]
     X:     0.0001      Y:     0.0001      Z:     0.0000

  Dipole Moment: [e a0]
     X:    -0.0000      Y:    -0.0000      Z:     0.0000     Total:     0.0000

  Dipole Moment: [D]
     X:    -0.0001      Y:    -0.0000      Z:     0.0000     Total:     0.0001


*** tstop() called on atlantis at Tue Apr 19 15:01:00 2022
Module time:
	user time   =       8.18 seconds =       0.14 minutes
	system time =       0.12 seconds =       0.00 minutes
	total time  =          9 seconds =       0.15 minutes
Total time:
	user time   =       8.18 seconds =       0.14 minutes
	system time =       0.12 seconds =       0.00 minutes
	total time  =          9 seconds =       0.15 minutes
gradient() will perform analytic gradient computation.

*** tstart() called on atlantis
*** at Tue Apr 19 15:01:00 2022

   => Loading Basis Set <=

    Name: CC-PVTZ
    Role: ORBITAL
    Keyword: BASIS
    atoms 1-3 entry C          line   186 file /home/akrom/software/anaconda3/envs/ffpenv/share/psi4/basis/cc-pvtz.gbs 
    atoms 4-9 entry H          line    23 file /home/akrom/software/anaconda3/envs/ffpenv/share/psi4/basis/cc-pvtz.gbs 


         ---------------------------------------------------------
                                   SCF
               by Justin Turney, Rob Parrish, Andy Simmonett
                          and Daniel G. A. Smith
                              RKS Reference
                        1 Threads,    500 MiB Core
         ---------------------------------------------------------

  ==> Geometry <==

    Molecular point group: cs
    Full point group: Cs

    Geometry (in Angstrom), charge = 0, multiplicity = 1:

       Center              X                  Y                   Z               Mass       
    ------------   -----------------  -----------------  -----------------  -----------------
         C            0.321531939855     0.813261460475     0.000000000000    12.000000000000
         C           -0.865048060145    -0.128168539525     0.000000000000    12.000000000000
         C            0.543531939855    -0.685078539525     0.000000000000    12.000000000000
         H            0.537951939855     1.360691460475    -0.920390000000     1.007825032230
         H            0.537951939855     1.360691460475     0.920390000000     1.007825032230
         H           -1.447418060145    -0.214488539525     0.920340000000     1.007825032230
         H           -1.447418060145    -0.214488539525    -0.920340000000     1.007825032230
         H            0.909371939855    -1.146288539525    -0.920370000000     1.007825032230
         H            0.909371939855    -1.146288539525     0.920370000000     1.007825032230

  Running in cs symmetry.

  Rotational constants: A =      0.66472  B =      0.66470  C =      0.41647 [cm^-1]
  Rotational constants: A =  19927.70596  B =  19927.20236  C =  12485.44714 [MHz]
  Nuclear repulsion =   75.281464809014025

  Charge       = 0
  Multiplicity = 1
  Electrons    = 24
  Nalpha       = 12
  Nbeta        = 12

  ==> Algorithm <==

  SCF Algorithm Type is DF.
  DIIS enabled.
  MOM disabled.
  Fractional occupation disabled.
  Guess Type is SAD.
  Energy threshold   = 1.00e-08
  Density threshold  = 1.00e-08
  Integral threshold = 0.00e+00

  ==> Primary Basis <==

  Basis Set: CC-PVTZ
    Blend: CC-PVTZ
    Number of shells: 66
    Number of basis function: 174
    Number of Cartesian functions: 195
    Spherical Harmonics?: true
    Max angular momentum: 3

  ==> DFT Potential <==

   => Composite Functional: B3LYP <= 

    B3LYP Hyb-GGA Exchange-Correlation Functional

    P. J. Stephens, F. J. Devlin, C. F. Chabalowski, and M. J. Frisch, J. Phys. Chem. 98, 11623 (1994)

    Deriv               =              1
    GGA                 =           TRUE
    Meta                =          FALSE

    Exchange Hybrid     =           TRUE
    MP2 Hybrid          =          FALSE

   => Exchange Functionals <=

    0.0800   Slater exchange
    0.7200         Becke 88

   => Exact (HF) Exchange <=

    0.2000               HF 

   => Correlation Functionals <=

    0.1900   Vosko, Wilk & Nusair (VWN5_RPA)
    0.8100   Lee, Yang & Parr

   => Molecular Quadrature <=

    Radial Scheme          =       TREUTLER
    Pruning Scheme         =           FLAT
    Nuclear Scheme         =       TREUTLER

    BS radius alpha        =              1
    Pruning alpha          =              1
    Radial Points          =             75
    Spherical Points       =            302
    Total Points           =         201034
    Total Blocks           =           1571
    Max Points             =            256
    Max Functions          =            174

   => Loading Basis Set <=

    Name: (CC-PVTZ AUX)
    Role: JKFIT
    Keyword: DF_BASIS_SCF
    atoms 1-3 entry C          line   125 file /home/akrom/software/anaconda3/envs/ffpenv/share/psi4/basis/cc-pvtz-jkfit.gbs 
    atoms 4-9 entry H          line    51 file /home/akrom/software/anaconda3/envs/ffpenv/share/psi4/basis/cc-pvtz-jkfit.gbs 

  ==> Pre-Iterations <==

   -------------------------------------------------------
    Irrep   Nso     Nmo     Nalpha   Nbeta   Ndocc  Nsocc
   -------------------------------------------------------
     A'       102     102       0       0       0       0
     A"        72      72       0       0       0       0
   -------------------------------------------------------
    Total     174     174      12      12      12       0
   -------------------------------------------------------

  ==> Integral Setup <==

  DFHelper Memory: AOs need 0.102 GiB; user supplied 0.102 GiB. Using in-core AOs.

  ==> MemDFJK: Density-Fitted J/K Matrices <==

    J tasked:                   Yes
    K tasked:                   Yes
    wK tasked:                   No
    OpenMP threads:               1
    Memory [MiB]:               104
    Algorithm:                 Core
    Schwarz Cutoff:           1E-12
    Mask sparsity (%):       0.0000
    Fitting Condition:        1E-10

   => Auxiliary Basis Set <=

  Basis Set: (CC-PVTZ AUX)
    Blend: CC-PVTZ-JKFIT
    Number of shells: 135
    Number of basis function: 417
    Number of Cartesian functions: 498
    Spherical Harmonics?: true
    Max angular momentum: 4

  Cached 33.4% of DFT collocation blocks in 0.288 [GiB].

  Minimum eigenvalue in the overlap matrix is 6.9054665632E-04.
  Using Symmetric Orthogonalization.

  SCF Guess: Superposition of Atomic Densities via on-the-fly atomic UHF.

  ==> Iterations <==

                           Total Energy        Delta E     RMS |[F,P]|

   @DF-RKS iter SAD:  -117.50898456856856   -1.17509e+02   0.00000e+00 
   @DF-RKS iter   1:  -117.54166897059270   -3.26844e-02   7.06265e-03 DIIS
   @DF-RKS iter   2:  -117.17567293626745    3.65996e-01   9.48923e-03 DIIS
   @DF-RKS iter   3:  -117.94048376709202   -7.64811e-01   4.46490e-04 DIIS
   @DF-RKS iter   4:  -117.94193462047848   -1.45085e-03   9.40742e-05 DIIS
   @DF-RKS iter   5:  -117.94199428294094   -5.96625e-05   9.40183e-06 DIIS
   @DF-RKS iter   6:  -117.94199502344478   -7.40504e-07   3.56270e-07 DIIS
   @DF-RKS iter   7:  -117.94199502492214   -1.47736e-09   3.19611e-08 DIIS
   @DF-RKS iter   8:  -117.94199502493575   -1.36140e-11   7.48528e-09 DIIS
  Energy and wave function converged.


  ==> Post-Iterations <==

    Orbital Energies [Eh]
    ---------------------

    Doubly Occupied:                                                      

       1Ap   -10.176801     2Ap   -10.176424     3Ap   -10.176420  
       4Ap    -0.846833     5Ap    -0.596016     6Ap    -0.596011  
       1App   -0.493096     7Ap    -0.464340     2App   -0.364956  
       3App   -0.364942     8Ap    -0.297010     9Ap    -0.297004  

    Virtual:                                                              

      10Ap     0.043795     4App    0.059130    11Ap     0.077396  
      12Ap     0.077399    13Ap     0.127857     5App    0.147253  
       6App    0.147260    14Ap     0.200686    15Ap     0.200689  
      16Ap     0.207464     7App    0.282365    17Ap     0.296464  
      18Ap     0.296477     8App    0.368137     9App    0.368166  
      19Ap     0.387391    20Ap     0.419752    21Ap     0.419761  
      22Ap     0.422386    10App    0.430148    23Ap     0.472641  
      11App    0.491411    12App    0.491416    24Ap     0.495203  
      25Ap     0.495209    26Ap     0.666051    27Ap     0.666065  
      13App    0.725612    28Ap     0.780063    14App    0.813512  
      15App    0.813527    29Ap     0.913147    30Ap     0.913174  
      16App    0.953071    17App    0.980233    18App    0.980264  
      31Ap     1.004213    32Ap     1.004215    33Ap     1.047819  
      34Ap     1.081747    19App    1.096506    35Ap     1.120249  
      36Ap     1.120262    20App    1.148247    21App    1.148255  
      37Ap     1.231803    38Ap     1.260161    39Ap     1.260167  
      22App    1.268234    23App    1.306217    24App    1.306221  
      40Ap     1.360265    41Ap     1.440918    42Ap     1.440935  
      43Ap     1.513136    25App    1.531530    26App    1.531578  
      44Ap     1.543440    45Ap     1.543443    27App    1.620366  
      28App    2.146244    46Ap     2.166096    47Ap     2.166108  
      48Ap     2.228840    29App    2.254964    49Ap     2.340228  
      50Ap     2.362506    51Ap     2.362521    30App    2.444363  
      31App    2.444428    52Ap     2.626017    53Ap     2.626040  
      32App    2.649367    33App    2.649386    54Ap     2.674029  
      55Ap     2.681021    56Ap     2.741896    57Ap     2.741907  
      34App    2.854990    35App    2.855001    36App    2.871508  
      58Ap     2.895743    59Ap     2.950688    37App    2.989706  
      38App    2.989721    39App    3.060027    60Ap     3.064857  
      61Ap     3.064889    40App    3.091062    62Ap     3.102775  
      63Ap     3.102788    41App    3.109919    42App    3.109922  
      64Ap     3.258575    65Ap     3.296122    43App    3.304221  
      44App    3.304255    45App    3.358843    66Ap     3.370131  
      67Ap     3.370173    46App    3.450877    47App    3.535158  
      68Ap     3.571101    48App    3.611618    49App    3.611664  
      69Ap     3.666484    70Ap     3.666533    50App    3.667116  
      51App    3.726437    52App    3.726473    71Ap     3.741333  
      72Ap     3.741338    73Ap     3.774346    74Ap     3.900469  
      75Ap     3.908876    76Ap     3.908903    53App    3.920492  
      54App    3.920511    77Ap     4.047596    78Ap     4.047609  
      55App    4.135798    56App    4.135812    79Ap     4.156748  
      80Ap     4.156754    81Ap     4.177433    57App    4.201447  
      82Ap     4.224334    83Ap     4.230947    84Ap     4.230989  
      85Ap     4.393685    86Ap     4.393727    58App    4.397777  
      59App    4.397792    87Ap     4.522048    60App    4.594881  
      88Ap     4.631567    89Ap     4.631577    61App    4.845263  
      90Ap     4.921024    62App    4.930646    63App    4.930663  
      91Ap     5.032674    64App    5.062271    65App    5.132691  
      66App    5.132755    92Ap     5.145203    93Ap     5.161298  
      94Ap     5.161366    67App    5.284981    95Ap     5.341111  
      96Ap     5.417524    97Ap     5.417532    98Ap     5.517247  
      99Ap     5.517256    68App    5.781318    69App    5.815202  
      70App    5.815289    71App    5.971298    72App    5.971322  
     100Ap    10.819928   101Ap    12.884725   102Ap    12.884888  

    Final Occupation by Irrep:
             Ap   App 
    DOCC [     9,    3 ]

  @DF-RKS Final Energy:  -117.94199502493575

   => Energetics <=

    Nuclear Repulsion Energy =             75.2814648090140253
    One-Electron Energy =                -305.9740225111091831
    Two-Electron Energy =                 127.7309892138938778
    DFT Exchange-Correlation Energy =     -14.9804265367344840
    Empirical Dispersion Energy =           0.0000000000000000
    VV10 Nonlocal Energy =                  0.0000000000000000
    Total Energy =                       -117.9419950249357498

Computation Completed


Properties will be evaluated at   0.000000,   0.000000,   0.000000 [a0]

Properties computed using the SCF density matrix

  Nuclear Dipole Moment: [e a0]
     X:    -0.0002      Y:    -0.0002      Z:     0.0000

  Electronic Dipole Moment: [e a0]
     X:     0.0001      Y:     0.0001      Z:     0.0000

  Dipole Moment: [e a0]
     X:    -0.0000      Y:    -0.0000      Z:     0.0000     Total:     0.0000

  Dipole Moment: [D]
     X:    -0.0001      Y:    -0.0000      Z:     0.0000     Total:     0.0001


*** tstop() called on atlantis at Tue Apr 19 15:01:10 2022
Module time:
	user time   =      10.13 seconds =       0.17 minutes
	system time =       0.06 seconds =       0.00 minutes
	total time  =         10 seconds =       0.17 minutes
Total time:
	user time   =      18.31 seconds =       0.31 minutes
	system time =       0.18 seconds =       0.00 minutes
	total time  =         19 seconds =       0.32 minutes

*** tstart() called on atlantis
*** at Tue Apr 19 15:01:10 2022


         ------------------------------------------------------------
                                   SCF GRAD                          
                          Rob Parrish, Justin Turney,                
                       Andy Simmonett, and Alex Sokolov              
         ------------------------------------------------------------

  ==> Geometry <==

    Molecular point group: cs
    Full point group: Cs

    Geometry (in Angstrom), charge = 0, multiplicity = 1:

       Center              X                  Y                   Z               Mass       
    ------------   -----------------  -----------------  -----------------  -----------------
         C            0.321531939855     0.813261460475     0.000000000000    12.000000000000
         C           -0.865048060145    -0.128168539525     0.000000000000    12.000000000000
         C            0.543531939855    -0.685078539525     0.000000000000    12.000000000000
         H            0.537951939855     1.360691460475    -0.920390000000     1.007825032230
         H            0.537951939855     1.360691460475     0.920390000000     1.007825032230
         H           -1.447418060145    -0.214488539525     0.920340000000     1.007825032230
         H           -1.447418060145    -0.214488539525    -0.920340000000     1.007825032230
         H            0.909371939855    -1.146288539525    -0.920370000000     1.007825032230
         H            0.909371939855    -1.146288539525     0.920370000000     1.007825032230

  Nuclear repulsion =   75.281464809014025

  ==> Basis Set <==

  Basis Set: CC-PVTZ
    Blend: CC-PVTZ
    Number of shells: 66
    Number of basis function: 174
    Number of Cartesian functions: 195
    Spherical Harmonics?: true
    Max angular momentum: 3

  ==> DFJKGrad: Density-Fitted SCF Gradients <==

    Gradient:                    1
    J tasked:                  Yes
    K tasked:                  Yes
    wK tasked:                  No
    OpenMP threads:              1
    Integrals threads:           1
    Memory [MiB]:              375
    Schwarz Cutoff:          0E+00
    Fitting Condition:       1E-10

   => Auxiliary Basis Set <=

  Basis Set: (CC-PVTZ AUX)
    Blend: CC-PVTZ-JKFIT
    Number of shells: 135
    Number of basis function: 417
    Number of Cartesian functions: 498
    Spherical Harmonics?: true
    Max angular momentum: 4

  ==> DFT Potential <==

   => Composite Functional: B3LYP <= 

    B3LYP Hyb-GGA Exchange-Correlation Functional

    P. J. Stephens, F. J. Devlin, C. F. Chabalowski, and M. J. Frisch, J. Phys. Chem. 98, 11623 (1994)

    Deriv               =              1
    GGA                 =           TRUE
    Meta                =          FALSE

    Exchange Hybrid     =           TRUE
    MP2 Hybrid          =          FALSE

   => Exchange Functionals <=

    0.0800   Slater exchange
    0.7200         Becke 88

   => Exact (HF) Exchange <=

    0.2000               HF 

   => Correlation Functionals <=

    0.1900   Vosko, Wilk & Nusair (VWN5_RPA)
    0.8100   Lee, Yang & Parr

   => Molecular Quadrature <=

    Radial Scheme          =       TREUTLER
    Pruning Scheme         =           FLAT
    Nuclear Scheme         =       TREUTLER

    BS radius alpha        =              1
    Pruning alpha          =              1
    Radial Points          =             75
    Spherical Points       =            302
    Total Points           =         201034
    Total Blocks           =           1571
    Max Points             =            256
    Max Functions          =            174


  -Total Gradient:
     Atom            X                  Y                   Z
    ------   -----------------  -----------------  -----------------
       1        0.000578158883     0.001475598389     0.000000000000
       2       -0.001540316710    -0.000223720365     0.000000000000
       3        0.000983143983    -0.001227464248     0.000000000000
       4        0.001331684482     0.003372034114    -0.007028986027
       5        0.001331684482     0.003372034114     0.007028986027
       6       -0.003594647241    -0.000535931882     0.007019917071
       7       -0.003594647241    -0.000535931882    -0.007019917071
       8        0.002252173540    -0.002845994331    -0.007025924410
       9        0.002252173540    -0.002845994331     0.007025924410


*** tstop() called on atlantis at Tue Apr 19 15:01:14 2022
Module time:
	user time   =       3.51 seconds =       0.06 minutes
	system time =       0.05 seconds =       0.00 minutes
	total time  =          4 seconds =       0.07 minutes
Total time:
	user time   =      21.82 seconds =       0.36 minutes
	system time =       0.23 seconds =       0.00 minutes
	total time  =         23 seconds =       0.38 minutes

  Based on options and gradient (rms=3.76E-03), recommend projecting translations and projecting rotations.
hessian() will perform frequency computation by finite difference of analytic gradients.

         ----------------------------------------------------------
                                   FINDIF
                     R. A. King and Jonathon Misiewicz
         ---------------------------------------------------------

  Using finite-differences of gradients to determine vibrational frequencies and 
  normal modes.  Resulting frequencies are only valid at stationary points.
    Generating geometries for use with 3-point formula.
    Displacement size will be 5.00e-03.
    Number of atoms is 9.
    Number of irreps is 2.
    Number of SALCs is 21.
    Translations projected? 1. Rotations projected? 1.
    Index of SALCs per irrep:
     1 :  0  1  2  3  4  5  6  7  8  9  10  11 
     2 :  12  13  14  15  16  17  18  19  20 
    Number of SALCs per irrep:
     Irrep 1: 12
     Irrep 2: 9
    Number of geometries (including reference) is 34.
    Number of displacements per irrep:
      Irrep 1: 24
      Irrep 2: 9

  //>>>>>>>>>>>>>>>>>>>>>>>>>>>>>>>>>>>//
  //    Loading displacement 1 of 34   //
  //<<<<<<<<<<<<<<<<<<<<<<<<<<<<<<<<<<<//
gradient() will perform analytic gradient computation.

*** tstart() called on atlantis
*** at Tue Apr 19 15:01:14 2022

   => Loading Basis Set <=

    Name: CC-PVTZ
    Role: ORBITAL
    Keyword: BASIS
    atoms 1-3 entry C          line   186 file /home/akrom/software/anaconda3/envs/ffpenv/share/psi4/basis/cc-pvtz.gbs 
    atoms 4-9 entry H          line    23 file /home/akrom/software/anaconda3/envs/ffpenv/share/psi4/basis/cc-pvtz.gbs 


         ---------------------------------------------------------
                                   SCF
               by Justin Turney, Rob Parrish, Andy Simmonett
                          and Daniel G. A. Smith
                              RKS Reference
                        1 Threads,    500 MiB Core
         ---------------------------------------------------------

  ==> Geometry <==

    Molecular point group: cs
    Full point group: Cs

    Geometry (in Angstrom), charge = 0, multiplicity = 1:

       Center              X                  Y                   Z               Mass       
    ------------   -----------------  -----------------  -----------------  -----------------
         C            0.321531939855     0.813261460475     0.000000000000    12.000000000000
         C           -0.865048060145    -0.128168539525     0.000000000000    12.000000000000
         C            0.543531939855    -0.685078539525     0.000000000000    12.000000000000
         H            0.537951939855     1.360691460475    -0.920390000000     1.007825032230
         H            0.537951939855     1.360691460475     0.920390000000     1.007825032230
         H           -1.447418060145    -0.214488539525     0.920340000000     1.007825032230
         H           -1.447418060145    -0.214488539525    -0.920340000000     1.007825032230
         H            0.909371939855    -1.146288539525    -0.920370000000     1.007825032230
         H            0.909371939855    -1.146288539525     0.920370000000     1.007825032230

  Running in cs symmetry.

  Rotational constants: A =      0.66472  B =      0.66470  C =      0.41647 [cm^-1]
  Rotational constants: A =  19927.70596  B =  19927.20236  C =  12485.44714 [MHz]
  Nuclear repulsion =   75.281464809014025

  Charge       = 0
  Multiplicity = 1
  Electrons    = 24
  Nalpha       = 12
  Nbeta        = 12

  ==> Algorithm <==

  SCF Algorithm Type is DF.
  DIIS enabled.
  MOM disabled.
  Fractional occupation disabled.
  Guess Type is SAD.
  Energy threshold   = 1.00e-08
  Density threshold  = 1.00e-08
  Integral threshold = 0.00e+00

  ==> Primary Basis <==

  Basis Set: CC-PVTZ
    Blend: CC-PVTZ
    Number of shells: 66
    Number of basis function: 174
    Number of Cartesian functions: 195
    Spherical Harmonics?: true
    Max angular momentum: 3

  ==> DFT Potential <==

   => Composite Functional: B3LYP <= 

    B3LYP Hyb-GGA Exchange-Correlation Functional

    P. J. Stephens, F. J. Devlin, C. F. Chabalowski, and M. J. Frisch, J. Phys. Chem. 98, 11623 (1994)

    Deriv               =              1
    GGA                 =           TRUE
    Meta                =          FALSE

    Exchange Hybrid     =           TRUE
    MP2 Hybrid          =          FALSE

   => Exchange Functionals <=

    0.0800   Slater exchange
    0.7200         Becke 88

   => Exact (HF) Exchange <=

    0.2000               HF 

   => Correlation Functionals <=

    0.1900   Vosko, Wilk & Nusair (VWN5_RPA)
    0.8100   Lee, Yang & Parr

   => Molecular Quadrature <=

    Radial Scheme          =       TREUTLER
    Pruning Scheme         =           FLAT
    Nuclear Scheme         =       TREUTLER

    BS radius alpha        =              1
    Pruning alpha          =              1
    Radial Points          =             75
    Spherical Points       =            302
    Total Points           =         201034
    Total Blocks           =           1571
    Max Points             =            256
    Max Functions          =            174

   => Loading Basis Set <=

    Name: (CC-PVTZ AUX)
    Role: JKFIT
    Keyword: DF_BASIS_SCF
    atoms 1-3 entry C          line   125 file /home/akrom/software/anaconda3/envs/ffpenv/share/psi4/basis/cc-pvtz-jkfit.gbs 
    atoms 4-9 entry H          line    51 file /home/akrom/software/anaconda3/envs/ffpenv/share/psi4/basis/cc-pvtz-jkfit.gbs 

  ==> Pre-Iterations <==

   -------------------------------------------------------
    Irrep   Nso     Nmo     Nalpha   Nbeta   Ndocc  Nsocc
   -------------------------------------------------------
     A'       102     102       0       0       0       0
     A"        72      72       0       0       0       0
   -------------------------------------------------------
    Total     174     174      12      12      12       0
   -------------------------------------------------------

  ==> Integral Setup <==

  DFHelper Memory: AOs need 0.102 GiB; user supplied 0.102 GiB. Using in-core AOs.

  ==> MemDFJK: Density-Fitted J/K Matrices <==

    J tasked:                   Yes
    K tasked:                   Yes
    wK tasked:                   No
    OpenMP threads:               1
    Memory [MiB]:               104
    Algorithm:                 Core
    Schwarz Cutoff:           1E-12
    Mask sparsity (%):       0.0000
    Fitting Condition:        1E-10

   => Auxiliary Basis Set <=

  Basis Set: (CC-PVTZ AUX)
    Blend: CC-PVTZ-JKFIT
    Number of shells: 135
    Number of basis function: 417
    Number of Cartesian functions: 498
    Spherical Harmonics?: true
    Max angular momentum: 4

  Cached 33.4% of DFT collocation blocks in 0.288 [GiB].

  Minimum eigenvalue in the overlap matrix is 6.9054665632E-04.
  Using Symmetric Orthogonalization.

  SCF Guess: Superposition of Atomic Densities via on-the-fly atomic UHF.

  ==> Iterations <==

                           Total Energy        Delta E     RMS |[F,P]|

   @DF-RKS iter SAD:  -117.50898456856855   -1.17509e+02   0.00000e+00 
   @DF-RKS iter   1:  -117.54166897059234   -3.26844e-02   7.06265e-03 DIIS
   @DF-RKS iter   2:  -117.17567293626759    3.65996e-01   9.48923e-03 DIIS
   @DF-RKS iter   3:  -117.94048376709188   -7.64811e-01   4.46490e-04 DIIS
   @DF-RKS iter   4:  -117.94193462047875   -1.45085e-03   9.40742e-05 DIIS
   @DF-RKS iter   5:  -117.94199428294083   -5.96625e-05   9.40183e-06 DIIS
   @DF-RKS iter   6:  -117.94199502344497   -7.40504e-07   3.56270e-07 DIIS
   @DF-RKS iter   7:  -117.94199502492201   -1.47703e-09   3.19611e-08 DIIS
   @DF-RKS iter   8:  -117.94199502493579   -1.37845e-11   7.48528e-09 DIIS
  Energy and wave function converged.


  ==> Post-Iterations <==

    Orbital Energies [Eh]
    ---------------------

    Doubly Occupied:                                                      

       1Ap   -10.176801     2Ap   -10.176424     3Ap   -10.176420  
       4Ap    -0.846833     5Ap    -0.596016     6Ap    -0.596011  
       1App   -0.493096     7Ap    -0.464340     2App   -0.364956  
       3App   -0.364942     8Ap    -0.297010     9Ap    -0.297004  

    Virtual:                                                              

      10Ap     0.043795     4App    0.059130    11Ap     0.077396  
      12Ap     0.077399    13Ap     0.127857     5App    0.147253  
       6App    0.147260    14Ap     0.200686    15Ap     0.200689  
      16Ap     0.207464     7App    0.282365    17Ap     0.296464  
      18Ap     0.296477     8App    0.368137     9App    0.368166  
      19Ap     0.387391    20Ap     0.419752    21Ap     0.419761  
      22Ap     0.422386    10App    0.430148    23Ap     0.472641  
      11App    0.491411    12App    0.491416    24Ap     0.495203  
      25Ap     0.495209    26Ap     0.666051    27Ap     0.666065  
      13App    0.725612    28Ap     0.780063    14App    0.813512  
      15App    0.813527    29Ap     0.913147    30Ap     0.913174  
      16App    0.953071    17App    0.980233    18App    0.980264  
      31Ap     1.004213    32Ap     1.004215    33Ap     1.047819  
      34Ap     1.081747    19App    1.096506    35Ap     1.120249  
      36Ap     1.120262    20App    1.148247    21App    1.148255  
      37Ap     1.231803    38Ap     1.260161    39Ap     1.260167  
      22App    1.268234    23App    1.306217    24App    1.306221  
      40Ap     1.360265    41Ap     1.440918    42Ap     1.440935  
      43Ap     1.513136    25App    1.531530    26App    1.531578  
      44Ap     1.543440    45Ap     1.543443    27App    1.620366  
      28App    2.146244    46Ap     2.166096    47Ap     2.166108  
      48Ap     2.228840    29App    2.254964    49Ap     2.340228  
      50Ap     2.362506    51Ap     2.362521    30App    2.444363  
      31App    2.444428    52Ap     2.626017    53Ap     2.626040  
      32App    2.649367    33App    2.649386    54Ap     2.674029  
      55Ap     2.681021    56Ap     2.741896    57Ap     2.741907  
      34App    2.854990    35App    2.855001    36App    2.871508  
      58Ap     2.895743    59Ap     2.950688    37App    2.989706  
      38App    2.989721    39App    3.060027    60Ap     3.064857  
      61Ap     3.064889    40App    3.091062    62Ap     3.102775  
      63Ap     3.102788    41App    3.109919    42App    3.109922  
      64Ap     3.258575    65Ap     3.296122    43App    3.304221  
      44App    3.304255    45App    3.358843    66Ap     3.370131  
      67Ap     3.370173    46App    3.450877    47App    3.535158  
      68Ap     3.571101    48App    3.611618    49App    3.611664  
      69Ap     3.666484    70Ap     3.666533    50App    3.667116  
      51App    3.726437    52App    3.726473    71Ap     3.741333  
      72Ap     3.741338    73Ap     3.774346    74Ap     3.900469  
      75Ap     3.908876    76Ap     3.908903    53App    3.920492  
      54App    3.920511    77Ap     4.047596    78Ap     4.047609  
      55App    4.135798    56App    4.135812    79Ap     4.156748  
      80Ap     4.156754    81Ap     4.177433    57App    4.201447  
      82Ap     4.224334    83Ap     4.230947    84Ap     4.230989  
      85Ap     4.393685    86Ap     4.393727    58App    4.397777  
      59App    4.397792    87Ap     4.522048    60App    4.594881  
      88Ap     4.631567    89Ap     4.631577    61App    4.845263  
      90Ap     4.921024    62App    4.930646    63App    4.930663  
      91Ap     5.032674    64App    5.062271    65App    5.132691  
      66App    5.132755    92Ap     5.145203    93Ap     5.161298  
      94Ap     5.161366    67App    5.284981    95Ap     5.341111  
      96Ap     5.417524    97Ap     5.417532    98Ap     5.517247  
      99Ap     5.517256    68App    5.781318    69App    5.815202  
      70App    5.815289    71App    5.971298    72App    5.971322  
     100Ap    10.819928   101Ap    12.884725   102Ap    12.884888  

    Final Occupation by Irrep:
             Ap   App 
    DOCC [     9,    3 ]

  @DF-RKS Final Energy:  -117.94199502493579

   => Energetics <=

    Nuclear Repulsion Energy =             75.2814648090140253
    One-Electron Energy =                -305.9740225111084442
    Two-Electron Energy =                 127.7309892138930678
    DFT Exchange-Correlation Energy =     -14.9804265367344609
    Empirical Dispersion Energy =           0.0000000000000000
    VV10 Nonlocal Energy =                  0.0000000000000000
    Total Energy =                       -117.9419950249357925

Computation Completed


Properties will be evaluated at   0.000000,   0.000000,   0.000000 [a0]

Properties computed using the SCF density matrix

  Nuclear Dipole Moment: [e a0]
     X:    -0.0002      Y:    -0.0002      Z:     0.0000

  Electronic Dipole Moment: [e a0]
     X:     0.0001      Y:     0.0001      Z:     0.0000

  Dipole Moment: [e a0]
     X:    -0.0000      Y:    -0.0000      Z:     0.0000     Total:     0.0000

  Dipole Moment: [D]
     X:    -0.0001      Y:    -0.0000      Z:     0.0000     Total:     0.0001


*** tstop() called on atlantis at Tue Apr 19 15:01:24 2022
Module time:
	user time   =      10.17 seconds =       0.17 minutes
	system time =       0.06 seconds =       0.00 minutes
	total time  =         10 seconds =       0.17 minutes
Total time:
	user time   =      32.28 seconds =       0.54 minutes
	system time =       0.30 seconds =       0.01 minutes
	total time  =         33 seconds =       0.55 minutes

*** tstart() called on atlantis
*** at Tue Apr 19 15:01:24 2022


         ------------------------------------------------------------
                                   SCF GRAD                          
                          Rob Parrish, Justin Turney,                
                       Andy Simmonett, and Alex Sokolov              
         ------------------------------------------------------------

  ==> Geometry <==

    Molecular point group: cs
    Full point group: Cs

    Geometry (in Angstrom), charge = 0, multiplicity = 1:

       Center              X                  Y                   Z               Mass       
    ------------   -----------------  -----------------  -----------------  -----------------
         C            0.321531939855     0.813261460475     0.000000000000    12.000000000000
         C           -0.865048060145    -0.128168539525     0.000000000000    12.000000000000
         C            0.543531939855    -0.685078539525     0.000000000000    12.000000000000
         H            0.537951939855     1.360691460475    -0.920390000000     1.007825032230
         H            0.537951939855     1.360691460475     0.920390000000     1.007825032230
         H           -1.447418060145    -0.214488539525     0.920340000000     1.007825032230
         H           -1.447418060145    -0.214488539525    -0.920340000000     1.007825032230
         H            0.909371939855    -1.146288539525    -0.920370000000     1.007825032230
         H            0.909371939855    -1.146288539525     0.920370000000     1.007825032230

  Nuclear repulsion =   75.281464809014025

  ==> Basis Set <==

  Basis Set: CC-PVTZ
    Blend: CC-PVTZ
    Number of shells: 66
    Number of basis function: 174
    Number of Cartesian functions: 195
    Spherical Harmonics?: true
    Max angular momentum: 3

  ==> DFJKGrad: Density-Fitted SCF Gradients <==

    Gradient:                    1
    J tasked:                  Yes
    K tasked:                  Yes
    wK tasked:                  No
    OpenMP threads:              1
    Integrals threads:           1
    Memory [MiB]:              375
    Schwarz Cutoff:          0E+00
    Fitting Condition:       1E-10

   => Auxiliary Basis Set <=

  Basis Set: (CC-PVTZ AUX)
    Blend: CC-PVTZ-JKFIT
    Number of shells: 135
    Number of basis function: 417
    Number of Cartesian functions: 498
    Spherical Harmonics?: true
    Max angular momentum: 4

  ==> DFT Potential <==

   => Composite Functional: B3LYP <= 

    B3LYP Hyb-GGA Exchange-Correlation Functional

    P. J. Stephens, F. J. Devlin, C. F. Chabalowski, and M. J. Frisch, J. Phys. Chem. 98, 11623 (1994)

    Deriv               =              1
    GGA                 =           TRUE
    Meta                =          FALSE

    Exchange Hybrid     =           TRUE
    MP2 Hybrid          =          FALSE

   => Exchange Functionals <=

    0.0800   Slater exchange
    0.7200         Becke 88

   => Exact (HF) Exchange <=

    0.2000               HF 

   => Correlation Functionals <=

    0.1900   Vosko, Wilk & Nusair (VWN5_RPA)
    0.8100   Lee, Yang & Parr

   => Molecular Quadrature <=

    Radial Scheme          =       TREUTLER
    Pruning Scheme         =           FLAT
    Nuclear Scheme         =       TREUTLER

    BS radius alpha        =              1
    Pruning alpha          =              1
    Radial Points          =             75
    Spherical Points       =            302
    Total Points           =         201034
    Total Blocks           =           1571
    Max Points             =            256
    Max Functions          =            174


  -Total Gradient:
     Atom            X                  Y                   Z
    ------   -----------------  -----------------  -----------------
       1        0.000578158937     0.001475598653     0.000000000000
       2       -0.001540316943    -0.000223720358     0.000000000000
       3        0.000983144050    -0.001227464337     0.000000000000
       4        0.001331684392     0.003372033877    -0.007028985651
       5        0.001331684392     0.003372033877     0.007028985651
       6       -0.003594647005    -0.000535931849     0.007019916715
       7       -0.003594647005    -0.000535931849    -0.007019916715
       8        0.002252173450    -0.002845994217    -0.007025924183
       9        0.002252173450    -0.002845994217     0.007025924183


*** tstop() called on atlantis at Tue Apr 19 15:01:28 2022
Module time:
	user time   =       3.50 seconds =       0.06 minutes
	system time =       0.05 seconds =       0.00 minutes
	total time  =          4 seconds =       0.07 minutes
Total time:
	user time   =      35.78 seconds =       0.60 minutes
	system time =       0.35 seconds =       0.01 minutes
	total time  =         37 seconds =       0.62 minutes

  //>>>>>>>>>>>>>>>>>>>>>>>>>>>>>>>>>>>//
  //    Loading displacement 2 of 34   //
  //<<<<<<<<<<<<<<<<<<<<<<<<<<<<<<<<<<<//
gradient() will perform analytic gradient computation.

*** tstart() called on atlantis
*** at Tue Apr 19 15:01:28 2022

   => Loading Basis Set <=

    Name: CC-PVTZ
    Role: ORBITAL
    Keyword: BASIS
    atoms 1-3 entry C          line   186 file /home/akrom/software/anaconda3/envs/ffpenv/share/psi4/basis/cc-pvtz.gbs 
    atoms 4-9 entry H          line    23 file /home/akrom/software/anaconda3/envs/ffpenv/share/psi4/basis/cc-pvtz.gbs 


         ---------------------------------------------------------
                                   SCF
               by Justin Turney, Rob Parrish, Andy Simmonett
                          and Daniel G. A. Smith
                              RKS Reference
                        1 Threads,    500 MiB Core
         ---------------------------------------------------------

  ==> Geometry <==

    Molecular point group: cs
    Full point group: Cs

    Geometry (in Angstrom), charge = 0, multiplicity = 1:

       Center              X                  Y                   Z               Mass       
    ------------   -----------------  -----------------  -----------------  -----------------
         C            0.320981935461     0.813179232929     0.000000000000    12.000000000000
         C           -0.864778117207    -0.127947314912     0.000000000000    12.000000000000
         C            0.543659460418    -0.685217540638     0.000000000000    12.000000000000
         H            0.538602639069     1.360553886373    -0.920390000000     1.007825032230
         H            0.538602639069     1.360553886373     0.920390000000     1.007825032230
         H           -1.447170192407    -0.214118381478     0.920340000000     1.007825032230
         H           -1.447170192407    -0.214118381478    -0.920340000000     1.007825032230
         H            0.909381512053    -1.146521099385    -0.920370000000     1.007825032230
         H            0.909381512053    -1.146521099385     0.920370000000     1.007825032230

  Running in cs symmetry.

  Rotational constants: A =      0.66511  B =      0.66452  C =      0.41655 [cm^-1]
  Rotational constants: A =  19939.46144  B =  19921.88173  C =  12487.97026 [MHz]
  Nuclear repulsion =   75.286659304380962

  Charge       = 0
  Multiplicity = 1
  Electrons    = 24
  Nalpha       = 12
  Nbeta        = 12

  ==> Algorithm <==

  SCF Algorithm Type is DF.
  DIIS enabled.
  MOM disabled.
  Fractional occupation disabled.
  Guess Type is SAD.
  Energy threshold   = 1.00e-08
  Density threshold  = 1.00e-08
  Integral threshold = 0.00e+00

  ==> Primary Basis <==

  Basis Set: CC-PVTZ
    Blend: CC-PVTZ
    Number of shells: 66
    Number of basis function: 174
    Number of Cartesian functions: 195
    Spherical Harmonics?: true
    Max angular momentum: 3

  ==> DFT Potential <==

   => Composite Functional: B3LYP <= 

    B3LYP Hyb-GGA Exchange-Correlation Functional

    P. J. Stephens, F. J. Devlin, C. F. Chabalowski, and M. J. Frisch, J. Phys. Chem. 98, 11623 (1994)

    Deriv               =              1
    GGA                 =           TRUE
    Meta                =          FALSE

    Exchange Hybrid     =           TRUE
    MP2 Hybrid          =          FALSE

   => Exchange Functionals <=

    0.0800   Slater exchange
    0.7200         Becke 88

   => Exact (HF) Exchange <=

    0.2000               HF 

   => Correlation Functionals <=

    0.1900   Vosko, Wilk & Nusair (VWN5_RPA)
    0.8100   Lee, Yang & Parr

   => Molecular Quadrature <=

    Radial Scheme          =       TREUTLER
    Pruning Scheme         =           FLAT
    Nuclear Scheme         =       TREUTLER

    BS radius alpha        =              1
    Pruning alpha          =              1
    Radial Points          =             75
    Spherical Points       =            302
    Total Points           =         201043
    Total Blocks           =           1554
    Max Points             =            256
    Max Functions          =            174

   => Loading Basis Set <=

    Name: (CC-PVTZ AUX)
    Role: JKFIT
    Keyword: DF_BASIS_SCF
    atoms 1-3 entry C          line   125 file /home/akrom/software/anaconda3/envs/ffpenv/share/psi4/basis/cc-pvtz-jkfit.gbs 
    atoms 4-9 entry H          line    51 file /home/akrom/software/anaconda3/envs/ffpenv/share/psi4/basis/cc-pvtz-jkfit.gbs 

  ==> Pre-Iterations <==

   -------------------------------------------------------
    Irrep   Nso     Nmo     Nalpha   Nbeta   Ndocc  Nsocc
   -------------------------------------------------------
     A'       102     102       0       0       0       0
     A"        72      72       0       0       0       0
   -------------------------------------------------------
    Total     174     174      12      12      12       0
   -------------------------------------------------------

  ==> Integral Setup <==

  DFHelper Memory: AOs need 0.102 GiB; user supplied 0.102 GiB. Using in-core AOs.

  ==> MemDFJK: Density-Fitted J/K Matrices <==

    J tasked:                   Yes
    K tasked:                   Yes
    wK tasked:                   No
    OpenMP threads:               1
    Memory [MiB]:               104
    Algorithm:                 Core
    Schwarz Cutoff:           1E-12
    Mask sparsity (%):       0.0000
    Fitting Condition:        1E-10

   => Auxiliary Basis Set <=

  Basis Set: (CC-PVTZ AUX)
    Blend: CC-PVTZ-JKFIT
    Number of shells: 135
    Number of basis function: 417
    Number of Cartesian functions: 498
    Spherical Harmonics?: true
    Max angular momentum: 4

  Cached 33.3% of DFT collocation blocks in 0.291 [GiB].

  Minimum eigenvalue in the overlap matrix is 6.8947762386E-04.
  Using Symmetric Orthogonalization.

  SCF Guess: Superposition of Atomic Densities via on-the-fly atomic UHF.

  ==> Iterations <==

                           Total Energy        Delta E     RMS |[F,P]|

   @DF-RKS iter SAD:  -117.50946733031384   -1.17509e+02   0.00000e+00 
   @DF-RKS iter   1:  -117.54148114169456   -3.20138e-02   7.06454e-03 DIIS
   @DF-RKS iter   2:  -117.17502672128043    3.66454e-01   9.49325e-03 DIIS
   @DF-RKS iter   3:  -117.94048654484519   -7.65460e-01   4.46510e-04 DIIS
   @DF-RKS iter   4:  -117.94193770626663   -1.45116e-03   9.40781e-05 DIIS
   @DF-RKS iter   5:  -117.94199736651358   -5.96602e-05   9.42067e-06 DIIS
   @DF-RKS iter   6:  -117.94199810713667   -7.40623e-07   6.87484e-07 DIIS
   @DF-RKS iter   7:  -117.94199810709237    4.42952e-11   7.42292e-07 DIIS
   @DF-RKS iter   8:  -117.94199811117713   -4.08475e-09   3.50885e-08 DIIS
   @DF-RKS iter   9:  -117.94199811118855   -1.14255e-11   1.70185e-09 DIIS
  Energy and wave function converged.


  ==> Post-Iterations <==

    Orbital Energies [Eh]
    ---------------------

    Doubly Occupied:                                                      

       1Ap   -10.176790     2Ap   -10.176420     3Ap   -10.176401  
       4Ap    -0.846931     5Ap    -0.596035     6Ap    -0.595958  
       1App   -0.493105     7Ap    -0.464387     2App   -0.364954  
       3App   -0.364850     8Ap    -0.297228     9Ap    -0.296850  

    Virtual:                                                              

      10Ap     0.043793     4App    0.059097    11Ap     0.077393  
      12Ap     0.077403    13Ap     0.127929     5App    0.147255  
       6App    0.147263    14Ap     0.200602    15Ap     0.200821  
      16Ap     0.207459     7App    0.282348    17Ap     0.296442  
      18Ap     0.296490     8App    0.367953     9App    0.368324  
      19Ap     0.387355    20Ap     0.419716    21Ap     0.419975  
      22Ap     0.422418    10App    0.430131    23Ap     0.472632  
      11App    0.491345    12App    0.491429    24Ap     0.495154  
      25Ap     0.495300    26Ap     0.666021    27Ap     0.666138  
      13App    0.725629    28Ap     0.780068    14App    0.813502  
      15App    0.813573    29Ap     0.913057    30Ap     0.913275  
      16App    0.953110    17App    0.980248    18App    0.980318  
      31Ap     1.004161    32Ap     1.004308    33Ap     1.047816  
      34Ap     1.081755    19App    1.096546    35Ap     1.120232  
      36Ap     1.120399    20App    1.148160    21App    1.148346  
      37Ap     1.231825    38Ap     1.260180    39Ap     1.260240  
      22App    1.268201    23App    1.306138    24App    1.306210  
      40Ap     1.360173    41Ap     1.440742    42Ap     1.441085  
      43Ap     1.513005    25App    1.531333    26App    1.531843  
      44Ap     1.543241    45Ap     1.543447    27App    1.620403  
      28App    2.146199    46Ap     2.166175    47Ap     2.166382  
      48Ap     2.228991    29App    2.254965    49Ap     2.340252  
      50Ap     2.362524    51Ap     2.362623    30App    2.444031  
      31App    2.444874    52Ap     2.625921    53Ap     2.626160  
      32App    2.649349    33App    2.649503    54Ap     2.674332  
      55Ap     2.681137    56Ap     2.741731    57Ap     2.742177  
      34App    2.854877    35App    2.855207    36App    2.871479  
      58Ap     2.895676    59Ap     2.950673    37App    2.989605  
      38App    2.989886    39App    3.060083    60Ap     3.064733  
      61Ap     3.065105    40App    3.091115    62Ap     3.102578  
      63Ap     3.102939    41App    3.109670    42App    3.109949  
      64Ap     3.258709    65Ap     3.296180    43App    3.304150  
      44App    3.304538    45App    3.358676    66Ap     3.370178  
      67Ap     3.370212    46App    3.451045    47App    3.535153  
      68Ap     3.570982    48App    3.611661    49App    3.611886  
      69Ap     3.666127    70Ap     3.667066    50App    3.667139  
      51App    3.726390    52App    3.726560    71Ap     3.741181  
      72Ap     3.741435    73Ap     3.774579    74Ap     3.900586  
      75Ap     3.908485    76Ap     3.908979    53App    3.920311  
      54App    3.920612    77Ap     4.047430    78Ap     4.047857  
      55App    4.135778    56App    4.135911    79Ap     4.156540  
      80Ap     4.156881    81Ap     4.177423    57App    4.201517  
      82Ap     4.224342    83Ap     4.230853    84Ap     4.231378  
      85Ap     4.393328    86Ap     4.394463    58App    4.397637  
      59App    4.397956    87Ap     4.521864    60App    4.594902  
      88Ap     4.631392    89Ap     4.631617    61App    4.845012  
      90Ap     4.920897    62App    4.930303    63App    4.930726  
      91Ap     5.033188    64App    5.062095    65App    5.132492  
      66App    5.132863    92Ap     5.145083    93Ap     5.161106  
      94Ap     5.161532    67App    5.285045    95Ap     5.341010  
      96Ap     5.417151    97Ap     5.417676    98Ap     5.517069  
      99Ap     5.517847    68App    5.781409    69App    5.814570  
      70App    5.816017    71App    5.970738    72App    5.971767  
     100Ap    10.818508   101Ap    12.883345   102Ap    12.888748  

    Final Occupation by Irrep:
             Ap   App 
    DOCC [     9,    3 ]

  @DF-RKS Final Energy:  -117.94199811118855

   => Energetics <=

    Nuclear Repulsion Energy =             75.2866593043809615
    One-Electron Energy =                -305.9842606348216236
    Two-Electron Energy =                 127.7361011762120881
    DFT Exchange-Correlation Energy =     -14.9804979569599883
    Empirical Dispersion Energy =           0.0000000000000000
    VV10 Nonlocal Energy =                  0.0000000000000000
    Total Energy =                       -117.9419981111885534

Computation Completed


Properties will be evaluated at   0.000000,   0.000000,   0.000000 [a0]

Properties computed using the SCF density matrix

  Nuclear Dipole Moment: [e a0]
     X:     0.0015      Y:    -0.0002      Z:     0.0000

  Electronic Dipole Moment: [e a0]
     X:    -0.0017      Y:     0.0003      Z:     0.0000

  Dipole Moment: [e a0]
     X:    -0.0002      Y:     0.0001      Z:     0.0000     Total:     0.0002

  Dipole Moment: [D]
     X:    -0.0004      Y:     0.0004      Z:     0.0000     Total:     0.0005


*** tstop() called on atlantis at Tue Apr 19 15:01:39 2022
Module time:
	user time   =      11.06 seconds =       0.18 minutes
	system time =       0.08 seconds =       0.00 minutes
	total time  =         11 seconds =       0.18 minutes
Total time:
	user time   =      46.84 seconds =       0.78 minutes
	system time =       0.43 seconds =       0.01 minutes
	total time  =         48 seconds =       0.80 minutes

*** tstart() called on atlantis
*** at Tue Apr 19 15:01:39 2022


         ------------------------------------------------------------
                                   SCF GRAD                          
                          Rob Parrish, Justin Turney,                
                       Andy Simmonett, and Alex Sokolov              
         ------------------------------------------------------------

  ==> Geometry <==

    Molecular point group: cs
    Full point group: Cs

    Geometry (in Angstrom), charge = 0, multiplicity = 1:

       Center              X                  Y                   Z               Mass       
    ------------   -----------------  -----------------  -----------------  -----------------
         C            0.320981935461     0.813179232929     0.000000000000    12.000000000000
         C           -0.864778117207    -0.127947314912     0.000000000000    12.000000000000
         C            0.543659460418    -0.685217540638     0.000000000000    12.000000000000
         H            0.538602639069     1.360553886373    -0.920390000000     1.007825032230
         H            0.538602639069     1.360553886373     0.920390000000     1.007825032230
         H           -1.447170192407    -0.214118381478     0.920340000000     1.007825032230
         H           -1.447170192407    -0.214118381478    -0.920340000000     1.007825032230
         H            0.909381512053    -1.146521099385    -0.920370000000     1.007825032230
         H            0.909381512053    -1.146521099385     0.920370000000     1.007825032230

  Nuclear repulsion =   75.286659304380962

  ==> Basis Set <==

  Basis Set: CC-PVTZ
    Blend: CC-PVTZ
    Number of shells: 66
    Number of basis function: 174
    Number of Cartesian functions: 195
    Spherical Harmonics?: true
    Max angular momentum: 3

  ==> DFJKGrad: Density-Fitted SCF Gradients <==

    Gradient:                    1
    J tasked:                  Yes
    K tasked:                  Yes
    wK tasked:                  No
    OpenMP threads:              1
    Integrals threads:           1
    Memory [MiB]:              375
    Schwarz Cutoff:          0E+00
    Fitting Condition:       1E-10

   => Auxiliary Basis Set <=

  Basis Set: (CC-PVTZ AUX)
    Blend: CC-PVTZ-JKFIT
    Number of shells: 135
    Number of basis function: 417
    Number of Cartesian functions: 498
    Spherical Harmonics?: true
    Max angular momentum: 4

  ==> DFT Potential <==

   => Composite Functional: B3LYP <= 

    B3LYP Hyb-GGA Exchange-Correlation Functional

    P. J. Stephens, F. J. Devlin, C. F. Chabalowski, and M. J. Frisch, J. Phys. Chem. 98, 11623 (1994)

    Deriv               =              1
    GGA                 =           TRUE
    Meta                =          FALSE

    Exchange Hybrid     =           TRUE
    MP2 Hybrid          =          FALSE

   => Exchange Functionals <=

    0.0800   Slater exchange
    0.7200         Becke 88

   => Exact (HF) Exchange <=

    0.2000               HF 

   => Correlation Functionals <=

    0.1900   Vosko, Wilk & Nusair (VWN5_RPA)
    0.8100   Lee, Yang & Parr

   => Molecular Quadrature <=

    Radial Scheme          =       TREUTLER
    Pruning Scheme         =           FLAT
    Nuclear Scheme         =       TREUTLER

    BS radius alpha        =              1
    Pruning alpha          =              1
    Radial Points          =             75
    Spherical Points       =            302
    Total Points           =         201043
    Total Blocks           =           1554
    Max Points             =            256
    Max Functions          =            174


  -Total Gradient:
     Atom            X                  Y                   Z
    ------   -----------------  -----------------  -----------------
       1        0.000056089780     0.001217173507     0.000000000000
       2       -0.001297141984    -0.000092250078     0.000000000000
       3        0.001027013673    -0.001231193527     0.000000000000
       4        0.001429709724     0.003428965885    -0.007115494168
       5        0.001429709724     0.003428965885     0.007115494168
       6       -0.003576067994    -0.000510507592     0.007024299944
       7       -0.003576067994    -0.000510507592    -0.007024299944
       8        0.002251700246    -0.002867822723    -0.007022708087
       9        0.002251700246    -0.002867822723     0.007022708087


*** tstop() called on atlantis at Tue Apr 19 15:01:42 2022
Module time:
	user time   =       3.49 seconds =       0.06 minutes
	system time =       0.05 seconds =       0.00 minutes
	total time  =          3 seconds =       0.05 minutes
Total time:
	user time   =      50.33 seconds =       0.84 minutes
	system time =       0.48 seconds =       0.01 minutes
	total time  =         51 seconds =       0.85 minutes

  //>>>>>>>>>>>>>>>>>>>>>>>>>>>>>>>>>>>//
  //    Loading displacement 3 of 34   //
  //<<<<<<<<<<<<<<<<<<<<<<<<<<<<<<<<<<<//
gradient() will perform analytic gradient computation.

*** tstart() called on atlantis
*** at Tue Apr 19 15:01:42 2022

   => Loading Basis Set <=

    Name: CC-PVTZ
    Role: ORBITAL
    Keyword: BASIS
    atoms 1-3 entry C          line   186 file /home/akrom/software/anaconda3/envs/ffpenv/share/psi4/basis/cc-pvtz.gbs 
    atoms 4-9 entry H          line    23 file /home/akrom/software/anaconda3/envs/ffpenv/share/psi4/basis/cc-pvtz.gbs 


         ---------------------------------------------------------
                                   SCF
               by Justin Turney, Rob Parrish, Andy Simmonett
                          and Daniel G. A. Smith
                              RKS Reference
                        1 Threads,    500 MiB Core
         ---------------------------------------------------------

  ==> Geometry <==

    Molecular point group: cs
    Full point group: Cs

    Geometry (in Angstrom), charge = 0, multiplicity = 1:

       Center              X                  Y                   Z               Mass       
    ------------   -----------------  -----------------  -----------------  -----------------
         C            0.322081944250     0.813343688021     0.000000000000    12.000000000000
         C           -0.865318003082    -0.128389764139     0.000000000000    12.000000000000
         C            0.543404419293    -0.684939538412     0.000000000000    12.000000000000
         H            0.537301240642     1.360829034576    -0.920390000000     1.007825032230
         H            0.537301240642     1.360829034576     0.920390000000     1.007825032230
         H           -1.447665927882    -0.214858697572     0.920340000000     1.007825032230
         H           -1.447665927882    -0.214858697572    -0.920340000000     1.007825032230
         H            0.909362367658    -1.146055979665    -0.920370000000     1.007825032230
         H            0.909362367658    -1.146055979665     0.920370000000     1.007825032230

  Running in cs symmetry.

  Rotational constants: A =      0.66489  B =      0.66431  C =      0.41639 [cm^-1]
  Rotational constants: A =  19932.94970  B =  19915.53021  C =  12482.92073 [MHz]
  Nuclear repulsion =   75.276267816162189

  Charge       = 0
  Multiplicity = 1
  Electrons    = 24
  Nalpha       = 12
  Nbeta        = 12

  ==> Algorithm <==

  SCF Algorithm Type is DF.
  DIIS enabled.
  MOM disabled.
  Fractional occupation disabled.
  Guess Type is SAD.
  Energy threshold   = 1.00e-08
  Density threshold  = 1.00e-08
  Integral threshold = 0.00e+00

  ==> Primary Basis <==

  Basis Set: CC-PVTZ
    Blend: CC-PVTZ
    Number of shells: 66
    Number of basis function: 174
    Number of Cartesian functions: 195
    Spherical Harmonics?: true
    Max angular momentum: 3

  ==> DFT Potential <==

   => Composite Functional: B3LYP <= 

    B3LYP Hyb-GGA Exchange-Correlation Functional

    P. J. Stephens, F. J. Devlin, C. F. Chabalowski, and M. J. Frisch, J. Phys. Chem. 98, 11623 (1994)

    Deriv               =              1
    GGA                 =           TRUE
    Meta                =          FALSE

    Exchange Hybrid     =           TRUE
    MP2 Hybrid          =          FALSE

   => Exchange Functionals <=

    0.0800   Slater exchange
    0.7200         Becke 88

   => Exact (HF) Exchange <=

    0.2000               HF 

   => Correlation Functionals <=

    0.1900   Vosko, Wilk & Nusair (VWN5_RPA)
    0.8100   Lee, Yang & Parr

   => Molecular Quadrature <=

    Radial Scheme          =       TREUTLER
    Pruning Scheme         =           FLAT
    Nuclear Scheme         =       TREUTLER

    BS radius alpha        =              1
    Pruning alpha          =              1
    Radial Points          =             75
    Spherical Points       =            302
    Total Points           =         201037
    Total Blocks           =           1562
    Max Points             =            256
    Max Functions          =            174

   => Loading Basis Set <=

    Name: (CC-PVTZ AUX)
    Role: JKFIT
    Keyword: DF_BASIS_SCF
    atoms 1-3 entry C          line   125 file /home/akrom/software/anaconda3/envs/ffpenv/share/psi4/basis/cc-pvtz-jkfit.gbs 
    atoms 4-9 entry H          line    51 file /home/akrom/software/anaconda3/envs/ffpenv/share/psi4/basis/cc-pvtz-jkfit.gbs 

  ==> Pre-Iterations <==

   -------------------------------------------------------
    Irrep   Nso     Nmo     Nalpha   Nbeta   Ndocc  Nsocc
   -------------------------------------------------------
     A'       102     102       0       0       0       0
     A"        72      72       0       0       0       0
   -------------------------------------------------------
    Total     174     174      12      12      12       0
   -------------------------------------------------------

  ==> Integral Setup <==

  DFHelper Memory: AOs need 0.102 GiB; user supplied 0.102 GiB. Using in-core AOs.

  ==> MemDFJK: Density-Fitted J/K Matrices <==

    J tasked:                   Yes
    K tasked:                   Yes
    wK tasked:                   No
    OpenMP threads:               1
    Memory [MiB]:               104
    Algorithm:                 Core
    Schwarz Cutoff:           1E-12
    Mask sparsity (%):       0.0000
    Fitting Condition:        1E-10

   => Auxiliary Basis Set <=

  Basis Set: (CC-PVTZ AUX)
    Blend: CC-PVTZ-JKFIT
    Number of shells: 135
    Number of basis function: 417
    Number of Cartesian functions: 498
    Spherical Harmonics?: true
    Max angular momentum: 4

  Cached 33.4% of DFT collocation blocks in 0.292 [GiB].

  Minimum eigenvalue in the overlap matrix is 6.8983772260E-04.
  Using Symmetric Orthogonalization.

  SCF Guess: Superposition of Atomic Densities via on-the-fly atomic UHF.

  ==> Iterations <==

                           Total Energy        Delta E     RMS |[F,P]|

   @DF-RKS iter SAD:  -117.50853232675261   -1.17509e+02   0.00000e+00 
   @DF-RKS iter   1:  -117.54186649305848   -3.33342e-02   7.06074e-03 DIIS
   @DF-RKS iter   2:  -117.17633303791877    3.65533e-01   9.48516e-03 DIIS
   @DF-RKS iter   3:  -117.94048726518737   -7.64154e-01   4.46462e-04 DIIS
   @DF-RKS iter   4:  -117.94193775286774   -1.45049e-03   9.40722e-05 DIIS
   @DF-RKS iter   5:  -117.94199741679989   -5.96639e-05   9.40778e-06 DIIS
   @DF-RKS iter   6:  -117.94199815560341   -7.38804e-07   6.78531e-07 DIIS
   @DF-RKS iter   7:  -117.94199815559183    1.15818e-11   7.30848e-07 DIIS
   @DF-RKS iter   8:  -117.94199815955095   -3.95912e-09   3.53749e-08 DIIS
   @DF-RKS iter   9:  -117.94199815956280   -1.18519e-11   1.70323e-09 DIIS
  Energy and wave function converged.


  ==> Post-Iterations <==

    Orbital Energies [Eh]
    ---------------------

    Doubly Occupied:                                                      

       1Ap   -10.176814     2Ap   -10.176443     3Ap   -10.176427  
       4Ap    -0.846737     5Ap    -0.596072     6Ap    -0.595990  
       1App   -0.493091     7Ap    -0.464293     2App   -0.365054  
       3App   -0.364939     8Ap    -0.297164     9Ap    -0.296787  

    Virtual:                                                              

      10Ap     0.043798     4App    0.059163    11Ap     0.077393  
      12Ap     0.077401    13Ap     0.127784     5App    0.147243  
       6App    0.147263    14Ap     0.200559    15Ap     0.200771  
      16Ap     0.207468     7App    0.282374    17Ap     0.296439  
      18Ap     0.296504     8App    0.367944     9App    0.368350  
      19Ap     0.387423    20Ap     0.419529    21Ap     0.419793  
      22Ap     0.422363    10App    0.430170    23Ap     0.472636  
      11App    0.491400    12App    0.491481    24Ap     0.495118  
      25Ap     0.495254    26Ap     0.665947    27Ap     0.666078  
      13App    0.725600    28Ap     0.780039    14App    0.813469  
      15App    0.813546    29Ap     0.913035    30Ap     0.913271  
      16App    0.953038    17App    0.980174    18App    0.980259  
      31Ap     1.004126    32Ap     1.004274    33Ap     1.047822  
      34Ap     1.081745    19App    1.096460    35Ap     1.120108  
      36Ap     1.120275    20App    1.148157    21App    1.148338  
      37Ap     1.231785    38Ap     1.260092    39Ap     1.260147  
      22App    1.268259    23App    1.306232    24App    1.306300  
      40Ap     1.360354    41Ap     1.440770    42Ap     1.441089  
      43Ap     1.513262    25App    1.531270    26App    1.531825  
      44Ap     1.543428    45Ap     1.543642    27App    1.620313  
      28App    2.146296    46Ap     2.165810    47Ap     2.166031  
      48Ap     2.228678    29App    2.254949    49Ap     2.340193  
      50Ap     2.362385    51Ap     2.362511    30App    2.443897  
      31App    2.444782    52Ap     2.625881    53Ap     2.626145  
      32App    2.649241    33App    2.649406    54Ap     2.673717  
      55Ap     2.680905    56Ap     2.741630    57Ap     2.742076  
      34App    2.854781    35App    2.855118    36App    2.871546  
      58Ap     2.895800    59Ap     2.950703    37App    2.989548  
      38App    2.989819    39App    3.059967    60Ap     3.064611  
      61Ap     3.064999    40App    3.091016    62Ap     3.102623  
      63Ap     3.102986    41App    3.109885    42App    3.110160  
      64Ap     3.258434    65Ap     3.296064    43App    3.303922  
      44App    3.304336    45App    3.358990    66Ap     3.370079  
      67Ap     3.370143    46App    3.450707    47App    3.535151  
      68Ap     3.571227    48App    3.611359    49App    3.611649  
      69Ap     3.665944    70Ap     3.666894    50App    3.667092  
      51App    3.726371    52App    3.726518    71Ap     3.741234  
      72Ap     3.741489    73Ap     3.774104    74Ap     3.900340  
      75Ap     3.908788    76Ap     3.909305    53App    3.920400  
      54App    3.920674    77Ap     4.047363    78Ap     4.047762  
      55App    4.135711    56App    4.135828    79Ap     4.156623  
      80Ap     4.156953    81Ap     4.177445    57App    4.201379  
      82Ap     4.224321    83Ap     4.230544    84Ap     4.231085  
      85Ap     4.392975    86Ap     4.394060    58App    4.397603  
      59App    4.397935    87Ap     4.522234    60App    4.594837  
      88Ap     4.631526    89Ap     4.631753    61App    4.845503  
      90Ap     4.921151    62App    4.930592    63App    4.930998  
      91Ap     5.032160    64App    5.062431    65App    5.132562  
      66App    5.132968    92Ap     5.145307    93Ap     5.161159  
      94Ap     5.161511    67App    5.284904    95Ap     5.341162  
      96Ap     5.417388    97Ap     5.417910    98Ap     5.516654  
      99Ap     5.517438    68App    5.781229    69App    5.814440  
      70App    5.815945    71App    5.970853    72App    5.971874  
     100Ap    10.821329   101Ap    12.880982   102Ap    12.886170  

    Final Occupation by Irrep:
             Ap   App 
    DOCC [     9,    3 ]

  @DF-RKS Final Energy:  -117.94199815956280

   => Energetics <=

    Nuclear Repulsion Energy =             75.2762678161621892
    One-Electron Energy =                -305.9637617899666111
    Two-Electron Energy =                 127.7258513801347135
    DFT Exchange-Correlation Energy =     -14.9803555658931042
    Empirical Dispersion Energy =           0.0000000000000000
    VV10 Nonlocal Energy =                  0.0000000000000000
    Total Energy =                       -117.9419981595628002

Computation Completed


Properties will be evaluated at   0.000000,   0.000000,   0.000000 [a0]

Properties computed using the SCF density matrix

  Nuclear Dipole Moment: [e a0]
     X:    -0.0019      Y:    -0.0002      Z:     0.0000

  Electronic Dipole Moment: [e a0]
     X:     0.0020      Y:    -0.0000      Z:     0.0000

  Dipole Moment: [e a0]
     X:     0.0001      Y:    -0.0002      Z:     0.0000     Total:     0.0002

  Dipole Moment: [D]
     X:     0.0003      Y:    -0.0005      Z:     0.0000     Total:     0.0006


*** tstop() called on atlantis at Tue Apr 19 15:01:53 2022
Module time:
	user time   =      11.08 seconds =       0.18 minutes
	system time =       0.05 seconds =       0.00 minutes
	total time  =         11 seconds =       0.18 minutes
Total time:
	user time   =      61.42 seconds =       1.02 minutes
	system time =       0.53 seconds =       0.01 minutes
	total time  =         62 seconds =       1.03 minutes

*** tstart() called on atlantis
*** at Tue Apr 19 15:01:53 2022


         ------------------------------------------------------------
                                   SCF GRAD                          
                          Rob Parrish, Justin Turney,                
                       Andy Simmonett, and Alex Sokolov              
         ------------------------------------------------------------

[...]

   => Exchange Functionals <=

    0.0800   Slater exchange
    0.7200         Becke 88

   => Exact (HF) Exchange <=

    0.2000               HF 

   => Correlation Functionals <=

    0.1900   Vosko, Wilk & Nusair (VWN5_RPA)
    0.8100   Lee, Yang & Parr

   => Molecular Quadrature <=

    Radial Scheme          =       TREUTLER
    Pruning Scheme         =           FLAT
    Nuclear Scheme         =       TREUTLER

    BS radius alpha        =              1
    Pruning alpha          =              1
    Radial Points          =             75
    Spherical Points       =            302
    Total Points           =         201035
    Total Blocks           =           1569
    Max Points             =            256
    Max Functions          =            174


  -Total Gradient:
     Atom            X                  Y                   Z
    ------   -----------------  -----------------  -----------------
       1        0.000577652245     0.001475833629     0.000003954365
       2       -0.001540750679    -0.000223736056     0.000418769251
       3        0.000984163367    -0.001230224604    -0.001172058047
       4        0.001329151014     0.003365816029    -0.007030072777
       5        0.001334362173     0.003378197752     0.007027953845
       6       -0.003428466171    -0.000533358004     0.006753251798
       7       -0.003760162383    -0.000538430452    -0.007285915416
       8        0.001901785112    -0.002502475897    -0.006381422880
       9        0.002601785151    -0.003187129805     0.007665601540


*** tstop() called on atlantis at Tue Apr 19 15:09:27 2022
Module time:
	user time   =       3.48 seconds =       0.06 minutes
	system time =       0.05 seconds =       0.00 minutes
	total time  =          3 seconds =       0.05 minutes
Total time:
	user time   =     511.13 seconds =       8.52 minutes
	system time =       3.75 seconds =       0.06 minutes
	total time  =        516 seconds =       8.60 minutes

         ----------------------------------------------------------
                                   FINDIF
                     R. A. King and Jonathon Misiewicz
         ---------------------------------------------------------

  Computing second-derivative from gradients using projected, 
  symmetry-adapted, cartesian coordinates.

  34 gradients passed in, including the reference geometry.
  Generating complete list of displacements from unique ones.

    Operation 2 takes plus displacements of irrep A" to minus ones.

-------------------------------------------------------------


  ==> Harmonic Vibrational Analysis <==

  non-mass-weighted Hessian:       Symmetric? True   Hermitian? True   Lin Dep Dim?  6 (0)
  projection of translations (True) and rotations (True) removed 6 degrees of freedom (6)
  total projector:                 Symmetric? True   Hermitian? True   Lin Dep Dim?  6 (6)
  mass-weighted Hessian:           Symmetric? True   Hermitian? True   Lin Dep Dim?  6 (0)
  pre-proj  low-frequency mode:    0.0000i [cm^-1]
  pre-proj  low-frequency mode:    0.0000i [cm^-1]
  pre-proj  low-frequency mode:    0.0000i [cm^-1]
  pre-proj  low-frequency mode:    0.0000i [cm^-1]
  pre-proj  low-frequency mode:    0.0000  [cm^-1]
  pre-proj  low-frequency mode:    0.0000  [cm^-1]
  pre-proj  all modes:['0.0000i' '0.0000i' '0.0000i' '0.0000i' '0.0000' '0.0000' '800.0501'
 '800.1639' '857.0136' '859.1196' '909.6403' '1086.6861' '1089.4484'
 '1124.3041' '1179.6175' '1183.2108' '1231.9245' '1232.0067' '1488.2605'
 '1488.5031' '1526.4737' '3021.9793' '3022.0467' '3028.6985' '3093.7529'
 '3093.7785' '3115.8042']
  projected mass-weighted Hessian: Symmetric? True   Hermitian? True   Lin Dep Dim?  6 (6)
  post-proj low-frequency mode:    0.0001i [cm^-1] (TR)
  post-proj low-frequency mode:    0.0000i [cm^-1] (TR)
  post-proj low-frequency mode:    0.0000i [cm^-1] (TR)
  post-proj low-frequency mode:    0.0000i [cm^-1] (TR)
  post-proj low-frequency mode:    0.0000i [cm^-1] (TR)
  post-proj low-frequency mode:    0.0000  [cm^-1] (TR)
  post-proj  all modes:['0.0001i' '0.0000i' '0.0000i' '0.0000i' '0.0000i' '0.0000' '800.0501'
 '800.1639' '857.0136' '859.1196' '909.6403' '1086.6861' '1089.4484'
 '1124.3041' '1179.6175' '1183.2108' '1231.9245' '1232.0067' '1488.2605'
 '1488.5031' '1526.4737' '3021.9793' '3022.0467' '3028.6985' '3093.7529'
 '3093.7785' '3115.8042']

  Vibration                       7                   8                   9           
  Freq [cm^-1]                 800.0501            800.1639            857.0136       
  Irrep                          App                 App                  Ap          
  Reduced mass [u]              1.0208              1.0209              4.2462        
  Force const [mDyne/A]         0.3850              0.3851              1.8375        
  Turning point v=0 [a0]        0.3840              0.3839              0.1819        
  RMS dev v=0 [a0 u^1/2]        0.2743              0.2743              0.2650        
  Char temp [K]               1151.0939           1151.2577           1233.0518       
  ----------------------------------------------------------------------------------
      1   C                0.00  0.00 -0.03   -0.00 -0.00  0.00   -0.20  0.23  0.00   
      2   C                0.00 -0.00  0.01    0.00 -0.00 -0.03    0.32  0.07 -0.00   
      3   C               -0.00 -0.00  0.02    0.00 -0.00  0.02   -0.08 -0.30 -0.00   
      4   H                0.18  0.27  0.18    0.39 -0.21 -0.03   -0.30  0.24 -0.01   
      5   H               -0.18 -0.27  0.18   -0.39  0.21 -0.03   -0.30  0.24  0.01   
      6   H               -0.18  0.39 -0.07    0.27  0.21  0.17    0.26  0.08 -0.04   
      7   H                0.18 -0.39 -0.07   -0.27 -0.21  0.17    0.26  0.08  0.04   
      8   H               -0.40 -0.06 -0.11    0.06  0.37 -0.14   -0.16 -0.32 -0.02   
      9   H                0.40  0.06 -0.11   -0.06 -0.37 -0.14   -0.16 -0.32  0.02   

  Vibration                       10                  11                  12          
  Freq [cm^-1]                 859.1196            909.6403           1086.6861       
  Irrep                           Ap                 App                  Ap          
  Reduced mass [u]              4.2755              1.0441              1.2136        
  Force const [mDyne/A]         1.8593              0.5090              0.8444        
  Turning point v=0 [a0]        0.1810              0.3560              0.3022        
  RMS dev v=0 [a0 u^1/2]        0.2647              0.2573              0.2354        
  Char temp [K]               1236.0818           1308.7698           1563.4994       
  ----------------------------------------------------------------------------------
      1   C               -0.23 -0.23 -0.00    0.00 -0.00 -0.03    0.04  0.00 -0.00   
      2   C               -0.07  0.29 -0.00   -0.00  0.00 -0.03    0.02 -0.11  0.00   
      3   C                0.30 -0.10  0.00    0.00  0.00 -0.03   -0.06 -0.03  0.00   
      4   H               -0.25 -0.17  0.03    0.13  0.33  0.20   -0.18  0.06 -0.02   
      5   H               -0.25 -0.17 -0.03   -0.13 -0.33  0.20   -0.18  0.06  0.02   
      6   H               -0.08  0.39  0.00    0.35  0.05  0.20   -0.09  0.56 -0.00   
      7   H               -0.08  0.39 -0.00   -0.35 -0.05  0.20   -0.09  0.56  0.00   
      8   H                0.32 -0.03 -0.03    0.22 -0.28  0.20    0.29  0.22  0.01   
      9   H                0.32 -0.03  0.03   -0.22  0.28  0.20    0.29  0.22 -0.01   

  Vibration                       13                  14                  15          
  Freq [cm^-1]                1089.4484           1124.3041           1179.6175       
  Irrep                           Ap                  Ap                 App          
  Reduced mass [u]              1.2170              1.4256              1.0078        
  Force const [mDyne/A]         0.8511              1.0617              0.8263        
  Turning point v=0 [a0]        0.3013              0.2741              0.3182        
  RMS dev v=0 [a0 u^1/2]        0.2351              0.2314              0.2259        
  Char temp [K]               1567.4737           1617.6232           1697.2069       
  ----------------------------------------------------------------------------------
      1   C               -0.10  0.04  0.00    0.10 -0.04 -0.00    0.00  0.00 -0.00   
      2   C                0.02  0.02 -0.00   -0.01  0.11 -0.00    0.00 -0.00  0.00   
      3   C               -0.06 -0.06 -0.00   -0.09 -0.07  0.00   -0.00 -0.00 -0.00   
      4   H                0.50 -0.20 -0.01   -0.37  0.14 -0.00   -0.38  0.15  0.00   
      5   H                0.50 -0.20  0.01   -0.37  0.14  0.00    0.38 -0.15  0.00   
      6   H                0.00 -0.10 -0.02    0.06 -0.40  0.00   -0.06  0.40 -0.00   
      7   H                0.00 -0.10  0.02    0.06 -0.40 -0.00    0.06 -0.40 -0.00   
      8   H                0.33  0.28 -0.01    0.32  0.25 -0.00    0.32  0.25  0.00   
      9   H                0.33  0.28  0.01    0.32  0.25  0.00   -0.32 -0.25  0.00   

  Vibration                       16                  17                  18          
  Freq [cm^-1]                1183.2108           1231.9245           1232.0067       
  Irrep                           Ap                 App                 App          
  Reduced mass [u]              3.0092              1.4513              1.4513        
  Force const [mDyne/A]         2.4821              1.2977              1.2979        
  Turning point v=0 [a0]        0.1839              0.2595              0.2595        
  RMS dev v=0 [a0 u^1/2]        0.2256              0.2211              0.2211        
  Char temp [K]               1702.3770           1772.4650           1772.5833       
  ----------------------------------------------------------------------------------
      1   C               -0.09 -0.23  0.00    0.00  0.00  0.16   -0.00 -0.00 -0.02   
      2   C                0.24  0.03 -0.00   -0.00 -0.00 -0.06    0.00  0.00  0.15   
      3   C               -0.15  0.20  0.00   -0.00 -0.00 -0.10   -0.00  0.00 -0.13   
      4   H               -0.13 -0.34 -0.05   -0.10 -0.39 -0.09    0.37 -0.10  0.01   
      5   H               -0.13 -0.34  0.05    0.10  0.39 -0.09   -0.37  0.10  0.01   
      6   H                0.36  0.06  0.05    0.10  0.37  0.03   -0.39  0.09 -0.08   
      7   H                0.36  0.06 -0.05   -0.10 -0.37  0.03    0.39 -0.09 -0.08   
      8   H               -0.24  0.28 -0.05   -0.09 -0.38  0.05    0.38 -0.11  0.07   
      9   H               -0.24  0.28  0.05    0.09  0.38  0.05   -0.38  0.11  0.07   

  Vibration                       19                  20                  21          
  Freq [cm^-1]                1488.2605           1488.5031           1526.4737       
  Irrep                           Ap                  Ap                  Ap          
  Reduced mass [u]              1.0881              1.0885              1.2610        
  Force const [mDyne/A]         1.4200              1.4209              1.7313        
  Turning point v=0 [a0]        0.2727              0.2726              0.2501        
  RMS dev v=0 [a0 u^1/2]        0.2011              0.2011              0.1986        
  Char temp [K]               2141.2755           2141.6245           2196.2558       
  ----------------------------------------------------------------------------------
      1   C               -0.01  0.02 -0.00   -0.03 -0.06 -0.00    0.03  0.08  0.00   
      2   C               -0.05  0.00  0.00   -0.04 -0.02  0.00   -0.09 -0.01  0.00   
      3   C               -0.04  0.05 -0.00    0.00 -0.03  0.00    0.05 -0.07 -0.00   
      4   H               -0.02 -0.09 -0.06    0.17  0.43  0.32   -0.12 -0.30 -0.25   
      5   H               -0.02 -0.09  0.06    0.17  0.43 -0.32   -0.12 -0.30  0.25   
      6   H                0.35  0.04  0.25    0.30  0.06  0.21    0.32  0.05  0.25   
      7   H                0.35  0.04 -0.25    0.30  0.06 -0.21    0.32  0.05 -0.25   
      8   H                0.28 -0.35  0.31   -0.08  0.13 -0.11   -0.20  0.25 -0.25   
      9   H                0.28 -0.35 -0.31   -0.08  0.13  0.11   -0.20  0.25  0.25   

  Vibration                       22                  23                  24          
  Freq [cm^-1]                3021.9793           3022.0467           3028.6985       
  Irrep                           Ap                  Ap                  Ap          
  Reduced mass [u]              1.0494              1.0495              1.0609        
  Force const [mDyne/A]         5.6464              5.6471              5.7337        
  Turning point v=0 [a0]        0.1948              0.1948              0.1936        
  RMS dev v=0 [a0 u^1/2]        0.1411              0.1411              0.1410        
  Char temp [K]               4347.9554           4348.0523           4357.6229       
  ----------------------------------------------------------------------------------
      1   C                0.00  0.00  0.00    0.02  0.05  0.00    0.01  0.04  0.00   
      2   C                0.04  0.01 -0.00    0.02  0.00  0.00   -0.04 -0.01 -0.00   
      3   C                0.03 -0.03 -0.00   -0.02  0.02  0.00    0.02 -0.03 -0.00   
      4   H               -0.01 -0.02  0.04   -0.11 -0.28  0.49   -0.08 -0.19  0.35   
      5   H               -0.01 -0.02 -0.04   -0.11 -0.28 -0.49   -0.08 -0.19 -0.35   
      6   H               -0.26 -0.04  0.44   -0.13 -0.02  0.21    0.21  0.03 -0.36   
      7   H               -0.26 -0.04 -0.44   -0.13 -0.02 -0.21    0.21  0.03  0.36   
      8   H               -0.16  0.20  0.41    0.10 -0.13 -0.28   -0.13  0.16  0.35   
      9   H               -0.16  0.20 -0.41    0.10 -0.13  0.28   -0.13  0.16 -0.35   

  Vibration                       25                  26                  27          
  Freq [cm^-1]                3093.7529           3093.7785           3115.8042       
  Irrep                          App                 App                 App          
  Reduced mass [u]              1.1204              1.1204              1.1161        
  Force const [mDyne/A]         6.3183              6.3185              6.3838        
  Turning point v=0 [a0]        0.1864              0.1864              0.1861        
  RMS dev v=0 [a0 u^1/2]        0.1395              0.1395              0.1390        
  Char temp [K]               4451.2216           4451.2584           4482.9485       
  ----------------------------------------------------------------------------------
      1   C               -0.00 -0.00  0.06   -0.00 -0.00  0.06    0.00  0.00 -0.06   
      2   C               -0.00 -0.00 -0.08   -0.00 -0.00  0.02    0.00  0.00 -0.06   
      3   C               -0.00  0.00  0.02   -0.00  0.00 -0.08   -0.00  0.00 -0.06   
      4   H                0.08  0.20 -0.34    0.08  0.20 -0.34   -0.08 -0.21  0.34   
      5   H               -0.08 -0.20 -0.34   -0.08 -0.20 -0.34    0.08  0.21  0.34   
      6   H               -0.29 -0.04  0.47    0.08  0.02 -0.13   -0.22 -0.03  0.34   
      7   H                0.29  0.04  0.47   -0.08 -0.02 -0.13    0.22  0.03  0.34   
      8   H                0.04 -0.06 -0.12   -0.19  0.23  0.47   -0.14  0.17  0.34   
      9   H               -0.04  0.06 -0.12    0.19 -0.23  0.47    0.14 -0.17  0.34   

  ==> Thermochemistry Components <==

  Entropy, S
    Electronic S            0.000 [cal/(mol K)]        0.000 [J/(mol K)]       0.00000000 [mEh/K] (multiplicity = 1)
    Translational S        37.135 [cal/(mol K)]      155.375 [J/(mol K)]       0.05917914 [mEh/K] (mol. weight = 42.0470 [u], P = 101325.00 [Pa])
    Rotational S           21.699 [cal/(mol K)]       90.789 [J/(mol K)]       0.03457982 [mEh/K] (symmetry no. = 1)
    Vibrational S           1.263 [cal/(mol K)]        5.285 [J/(mol K)]       0.00201281 [mEh/K]
  Total S                  60.098 [cal/(mol K)]      251.449 [J/(mol K)]       0.09577177 [mEh/K]
  Correction S              0.000 [cal/(mol K)]        0.000 [J/(mol K)]       0.00000000 [mEh/K]

  Constant volume heat capacity, Cv
    Electronic Cv           0.000 [cal/(mol K)]        0.000 [J/(mol K)]       0.00000000 [mEh/K]
    Translational Cv        2.981 [cal/(mol K)]       12.472 [J/(mol K)]       0.00475022 [mEh/K]
    Rotational Cv           2.981 [cal/(mol K)]       12.472 [J/(mol K)]       0.00475022 [mEh/K]
    Vibrational Cv          4.778 [cal/(mol K)]       19.991 [J/(mol K)]       0.00761417 [mEh/K]
  Total Cv                 10.740 [cal/(mol K)]       44.934 [J/(mol K)]       0.01711460 [mEh/K]
  Correction Cv             0.000 [cal/(mol K)]        0.000 [J/(mol K)]       0.00000000 [mEh/K]

  Constant pressure heat capacity, Cp
    Electronic Cp           0.000 [cal/(mol K)]        0.000 [J/(mol K)]       0.00000000 [mEh/K]
    Translational Cp        4.968 [cal/(mol K)]       20.786 [J/(mol K)]       0.00791703 [mEh/K]
    Rotational Cp           2.981 [cal/(mol K)]       12.472 [J/(mol K)]       0.00475022 [mEh/K]
    Vibrational Cp          4.778 [cal/(mol K)]       19.991 [J/(mol K)]       0.00761417 [mEh/K]
  Total Cp                 12.727 [cal/(mol K)]       53.249 [J/(mol K)]       0.02028141 [mEh/K]
  Correction Cp             0.000 [cal/(mol K)]        0.000 [J/(mol K)]       0.00000000 [mEh/K]

  ==> Thermochemistry Energy Analysis <==

  Raw electronic energy, E0
  Total E0, Electronic energy at well bottom at 0 [K]                 -117.94199502 [Eh]

  Zero-point energy, ZPE_vib = Sum_i nu_i / 2
    Electronic ZPE          0.000 [kcal/mol]        0.000 [kJ/mol]       0.00000000 [Eh]
    Translational ZPE       0.000 [kcal/mol]        0.000 [kJ/mol]       0.00000000 [Eh]
    Rotational ZPE          0.000 [kcal/mol]        0.000 [kJ/mol]       0.00000000 [Eh]
    Vibrational ZPE        50.367 [kcal/mol]      210.737 [kJ/mol]       0.08026550 [Eh]       17616.241 [cm^-1]
  Correction ZPE           50.367 [kcal/mol]      210.737 [kJ/mol]       0.08026550 [Eh]       17616.241 [cm^-1]
  Total ZPE, Electronic energy at 0 [K]                               -117.86172952 [Eh]

  Thermal Energy, E (includes ZPE)
    Electronic E            0.000 [kcal/mol]        0.000 [kJ/mol]       0.00000000 [Eh]
    Translational E         0.889 [kcal/mol]        3.718 [kJ/mol]       0.00141628 [Eh]
    Rotational E            0.889 [kcal/mol]        3.718 [kJ/mol]       0.00141628 [Eh]
    Vibrational E          50.675 [kcal/mol]      212.025 [kJ/mol]       0.08075598 [Eh]
  Correction E             52.453 [kcal/mol]      219.462 [kJ/mol]       0.08358853 [Eh]
  Total E, Electronic energy at  298.15 [K]                           -117.85840649 [Eh]

  Enthalpy, H_trans = E_trans + k_B * T
    Electronic H            0.000 [kcal/mol]        0.000 [kJ/mol]       0.00000000 [Eh]
    Translational H         1.481 [kcal/mol]        6.197 [kJ/mol]       0.00236046 [Eh]
    Rotational H            0.889 [kcal/mol]        3.718 [kJ/mol]       0.00141628 [Eh]
    Vibrational H          50.675 [kcal/mol]      212.025 [kJ/mol]       0.08075598 [Eh]
  Correction H             53.045 [kcal/mol]      221.941 [kJ/mol]       0.08453272 [Eh]
  Total H, Enthalpy at  298.15 [K]                                    -117.85746231 [Eh]

  Gibbs free energy, G = H - T * S
    Electronic G            0.000 [kcal/mol]        0.000 [kJ/mol]       0.00000000 [Eh]
    Translational G        -9.591 [kcal/mol]      -40.128 [kJ/mol]      -0.01528380 [Eh]
    Rotational G           -5.581 [kcal/mol]      -23.350 [kJ/mol]      -0.00889370 [Eh]
    Vibrational G          50.299 [kcal/mol]      210.449 [kJ/mol]       0.08015586 [Eh]
  Correction G             35.127 [kcal/mol]      146.971 [kJ/mol]       0.05597836 [Eh]
  Total G, Free enthalpy at  298.15 [K]                               -117.88601666 [Eh]

    Psi4 stopped on: Tuesday, 19 April 2022 03:09PM
    Psi4 wall time for execution: 0:08:36.10

*** Psi4 exiting successfully. Buy a developer a beer!
