
    -----------------------------------------------------------------------
          Psi4: An Open-Source Ab Initio Electronic Structure Package
                               Psi4 1.3.2 release

                         Git: Rev {HEAD} ecbda83 


    R. M. Parrish, L. A. Burns, D. G. A. Smith, A. C. Simmonett,
    A. E. DePrince III, E. G. Hohenstein, U. Bozkaya, A. Yu. Sokolov,
    R. Di Remigio, R. M. Richard, J. F. Gonthier, A. M. James,
    H. R. McAlexander, A. Kumar, M. Saitow, X. Wang, B. P. Pritchard,
    P. Verma, H. F. Schaefer III, K. Patkowski, R. A. King, E. F. Valeev,
    F. A. Evangelista, J. M. Turney, T. D. Crawford, and C. D. Sherrill,
    J. Chem. Theory Comput. 13(7) pp 3185--3197 (2017).
    (doi: 10.1021/acs.jctc.7b00174)


                         Additional Contributions by
    P. Kraus, H. Kruse, M. H. Lechner, M. C. Schieber, R. A. Shaw,
    A. Alenaizan, R. Galvelis, Z. L. Glick, S. Lehtola, and J. P. Misiewicz

    -----------------------------------------------------------------------


    Psi4 started on: Tuesday, 19 April 2022 10:40AM

    Process ID: 29262
    Host:       atlantis
    PSIDATADIR: /home/akrom/software/anaconda3/envs/ffpenv/share/psi4
    Memory:     500.0 MiB
    Threads:    1
    
  ==> Input File <==

--------------------------------------------------------------------------
set basis  aug-cc-pVTZ
molecule {
0 1
   C        0.32153        0.81326        0.00000
   C       -0.86505       -0.12817        0.00000
   C        0.54353       -0.68508        0.00000
   H        0.53795        1.36069       -0.92039
   H        0.53795        1.36069        0.92039
   H       -1.44742       -0.21449        0.92034
   H       -1.44742       -0.21449       -0.92034
   H        0.90937       -1.14629       -0.92037
   H        0.90937       -1.14629        0.92037
}
energy('m06-2x')
frequencies('m06-2x')
--------------------------------------------------------------------------

*** tstart() called on atlantis
*** at Tue Apr 19 10:40:10 2022

   => Loading Basis Set <=

    Name: AUG-CC-PVTZ
    Role: ORBITAL
    Keyword: BASIS
    atoms 1-3 entry C          line   235 file /home/akrom/software/anaconda3/envs/ffpenv/share/psi4/basis/aug-cc-pvtz.gbs 
    atoms 4-9 entry H          line    36 file /home/akrom/software/anaconda3/envs/ffpenv/share/psi4/basis/aug-cc-pvtz.gbs 


         ---------------------------------------------------------
                                   SCF
               by Justin Turney, Rob Parrish, Andy Simmonett
                          and Daniel G. A. Smith
                              RKS Reference
                        1 Threads,    500 MiB Core
         ---------------------------------------------------------

  ==> Geometry <==

    Molecular point group: cs
    Full point group: Cs

    Geometry (in Angstrom), charge = 0, multiplicity = 1:

       Center              X                  Y                   Z               Mass       
    ------------   -----------------  -----------------  -----------------  -----------------
         C            0.321531939855     0.813261460475     0.000000000000    12.000000000000
         C           -0.865048060145    -0.128168539525     0.000000000000    12.000000000000
         C            0.543531939855    -0.685078539525     0.000000000000    12.000000000000
         H            0.537951939855     1.360691460475    -0.920390000000     1.007825032230
         H            0.537951939855     1.360691460475     0.920390000000     1.007825032230
         H           -1.447418060145    -0.214488539525     0.920340000000     1.007825032230
         H           -1.447418060145    -0.214488539525    -0.920340000000     1.007825032230
         H            0.909371939855    -1.146288539525    -0.920370000000     1.007825032230
         H            0.909371939855    -1.146288539525     0.920370000000     1.007825032230

  Running in cs symmetry.

  Rotational constants: A =      0.66472  B =      0.66470  C =      0.41647 [cm^-1]
  Rotational constants: A =  19927.70596  B =  19927.20236  C =  12485.44714 [MHz]
  Nuclear repulsion =   75.281464809014025

  Charge       = 0
  Multiplicity = 1
  Electrons    = 24
  Nalpha       = 12
  Nbeta        = 12

  ==> Algorithm <==

  SCF Algorithm Type is DF.
  DIIS enabled.
  MOM disabled.
  Fractional occupation disabled.
  Guess Type is SAD.
  Energy threshold   = 1.00e-06
  Density threshold  = 1.00e-06
  Integral threshold = 0.00e+00

  ==> Primary Basis <==

  Basis Set: AUG-CC-PVTZ
    Blend: AUG-CC-PVTZ
    Number of shells: 96
    Number of basis function: 276
    Number of Cartesian functions: 315
    Spherical Harmonics?: true
    Max angular momentum: 3

  ==> DFT Potential <==

   => Composite Functional: M06-2X <= 

    Hybrid M06-2X Meta-GGA XC Functional

    Y. Zhao and D. G. Truhlar,  Theor. Chem. Acc., 120, 215, 2008


    Deriv               =              1
    GGA                 =           TRUE
    Meta                =           TRUE

    Exchange Hybrid     =           TRUE
    MP2 Hybrid          =          FALSE

   => Exchange Functionals <=

    1.0000   XC_HYB_MGGA_X_M06_2X

   => Exact (HF) Exchange <=

    0.5400               HF 

   => Correlation Functionals <=

    1.0000   XC_MGGA_C_M06_2X

   => Molecular Quadrature <=

    Radial Scheme          =       TREUTLER
    Pruning Scheme         =           FLAT
    Nuclear Scheme         =       TREUTLER

    BS radius alpha        =              1
    Pruning alpha          =              1
    Radial Points          =             75
    Spherical Points       =            302
    Total Points           =         203850
    Total Blocks           =           1576
    Max Points             =            256
    Max Functions          =            276

   => Loading Basis Set <=

    Name: (AUG-CC-PVTZ AUX)
    Role: JKFIT
    Keyword: DF_BASIS_SCF
    atoms 1-3 entry C          line   162 file /home/akrom/software/anaconda3/envs/ffpenv/share/psi4/basis/aug-cc-pvtz-jkfit.gbs 
    atoms 4-9 entry H          line    70 file /home/akrom/software/anaconda3/envs/ffpenv/share/psi4/basis/aug-cc-pvtz-jkfit.gbs 

  ==> Pre-Iterations <==

   -------------------------------------------------------
    Irrep   Nso     Nmo     Nalpha   Nbeta   Ndocc  Nsocc
   -------------------------------------------------------
     A'       159     159       0       0       0       0
     A"       117     117       0       0       0       0
   -------------------------------------------------------
    Total     276     276      12      12      12       0
   -------------------------------------------------------

  ==> Integral Setup <==

  DFHelper Memory: AOs need 0.352 GiB; user supplied 0.352 GiB. Using in-core AOs.

  ==> MemDFJK: Density-Fitted J/K Matrices <==

    J tasked:                   Yes
    K tasked:                   Yes
    wK tasked:                   No
    OpenMP threads:               1
    Memory [MiB]:               360
    Algorithm:                 Core
    Schwarz Cutoff:           1E-12
    Mask sparsity (%):       0.0000
    Fitting Condition:        1E-10

   => Auxiliary Basis Set <=

  Basis Set: (AUG-CC-PVTZ AUX)
    Blend: AUG-CC-PVTZ-JKFIT
    Number of shells: 174
    Number of basis function: 588
    Number of Cartesian functions: 723
    Spherical Harmonics?: true
    Max angular momentum: 4

  Cached 0.4% of DFT collocation blocks in 0.014 [GiB].

  Minimum eigenvalue in the overlap matrix is 1.6775936804E-05.
  Using Symmetric Orthogonalization.

  SCF Guess: Superposition of Atomic Densities via on-the-fly atomic UHF.

  ==> Iterations <==

                           Total Energy        Delta E     RMS |[F,P]|

   @DF-RKS iter SAD:  -117.44440505784570   -1.17444e+02   0.00000e+00 
   @DF-RKS iter   1:  -117.57014027464253   -1.25735e-01   4.00316e-03 DIIS
   @DF-RKS iter   2:  -117.55946247606053    1.06778e-02   3.97250e-03 DIIS
   @DF-RKS iter   3:  -117.87672305831170   -3.17261e-01   2.46864e-04 DIIS
   @DF-RKS iter   4:  -117.87792090881980   -1.19785e-03   3.08724e-05 DIIS
   @DF-RKS iter   5:  -117.87794656265167   -2.56538e-05   6.13356e-06 DIIS
   @DF-RKS iter   6:  -117.87794764127361   -1.07862e-06   6.42101e-07 DIIS
   @DF-RKS iter   7:  -117.87794767034899   -2.90754e-08   9.61609e-08 DIIS
  Energy and wave function converged.


  ==> Post-Iterations <==

    Orbital Energies [Eh]
    ---------------------

    Doubly Occupied:                                                      

       1Ap   -10.539503     2Ap   -10.538898     3Ap   -10.538885  
       4Ap    -0.944118     5Ap    -0.678988     6Ap    -0.678972  
       1App   -0.565624     7Ap    -0.528135     2App   -0.424469  
       3App   -0.424441     8Ap    -0.351020     9Ap    -0.350993  

    Virtual:                                                              

      10Ap     0.000101     4App    0.011768    11Ap     0.014098  
      12Ap     0.014098     5App    0.041874     6App    0.041875  
      13Ap     0.055413    14Ap     0.061377    15Ap     0.061379  
      16Ap     0.091449    17Ap     0.091451    18Ap     0.096025  
       7App    0.096749    19Ap     0.103488     8App    0.124525  
       9App    0.124528    20Ap     0.135555    21Ap     0.135559  
      10App    0.179807    22Ap     0.180816    23Ap     0.183231  
      11App    0.186129    12App    0.186131    24Ap     0.223573  
      25Ap     0.227146    26Ap     0.227149    27Ap     0.266816  
      28Ap     0.266825    13App    0.268794    14App    0.278712  
      29Ap     0.283697    30Ap     0.283703    15App    0.309975  
      16App    0.309982    17App    0.320280    18App    0.320287  
      31Ap     0.325532    19App    0.338055    32Ap     0.347288  
      33Ap     0.347296    34Ap     0.354102    35Ap     0.354117  
      36Ap     0.357778    37Ap     0.360517    20App    0.394240  
      21App    0.404011    22App    0.404030    38Ap     0.413268  
      39Ap     0.413287    40Ap     0.432045    41Ap     0.435533  
      23App    0.436995    24App    0.436995    42Ap     0.455332  
      43Ap     0.455335    44Ap     0.507949    45Ap     0.507962  
      46Ap     0.527746    25App    0.531290    26App    0.531315  
      27App    0.570592    28App    0.600485    47Ap     0.624339  
      48Ap     0.624359    29App    0.662584    30App    0.662622  
      31App    0.700946    49Ap     0.741104    50Ap     0.741110  
      51Ap     0.742717    52Ap     0.745392    32App    0.781994  
      33App    0.782006    53Ap     0.808646    54Ap     0.808677  
      55Ap     0.809325    56Ap     0.812905    57Ap     0.832820  
      58Ap     0.832834    34App    0.857363    35App    0.857377  
      36App    0.866340    59Ap     0.883111    60Ap     0.883127  
      37App    0.909579    38App    0.920800    61Ap     0.944370  
      62Ap     0.944379    39App    0.980092    40App    0.980107  
      63Ap     0.994218    41App    0.996995    42App    0.997014  
      64Ap     1.007830    65Ap     1.038718    66Ap     1.038741  
      67Ap     1.056883    68Ap     1.112426    69Ap     1.112446  
      43App    1.122630    44App    1.122652    70Ap     1.139961  
      45App    1.175350    46App    1.175353    47App    1.222309  
      48App    1.236812    49App    1.236862    50App    1.239790  
      71Ap     1.256730    72Ap     1.256760    51App    1.259105  
      73Ap     1.289088    74Ap     1.377834    75Ap     1.377869  
      76Ap     1.385811    77Ap     1.385867    52App    1.403630  
      78Ap     1.406737    53App    1.423870    54App    1.423916  
      79Ap     1.475050    80Ap     1.475059    81Ap     1.492891  
      55App    1.504253    56App    1.536011    82Ap     1.561514  
      83Ap     1.576066    84Ap     1.576135    57App    1.652305  
      58App    1.652335    59App    1.673269    60App    1.673335  
      85Ap     1.689396    86Ap     1.707140    87Ap     1.723315  
      88Ap     1.723386    61App    1.747488    89Ap     1.765170  
      90Ap     1.765206    62App    1.823499    63App    1.823515  
      91Ap     1.839226    92Ap     1.839277    93Ap     1.839926  
      94Ap     1.884436    64App    1.919147    65App    1.949802  
      95Ap     1.997954    96Ap     1.998010    66App    2.044030  
      67App    2.044098    68App    2.133242    69App    2.133336  
      70App    2.163783    97Ap     2.167341    98Ap     2.167392  
      71App    2.266673    72App    2.266710    99Ap     2.292402  
     100Ap     2.351964   101Ap     2.364862   102Ap     2.364924  
      73App    2.662857   103Ap     2.777556   104Ap     2.869835  
     105Ap     2.869993    74App    3.001322    75App    3.001448  
     106Ap     3.006402   107Ap     3.082372   108Ap     3.082434  
     109Ap     3.091175    76App    3.161002   110Ap     3.235771  
      77App    3.296867   111Ap     3.310131   112Ap     3.310315  
      78App    3.319955    79App    3.320070   113Ap     3.323576  
     114Ap     3.323627   115Ap     3.349442    80App    3.400990  
      81App    3.401198    82App    3.412839   116Ap     3.500209  
     117Ap     3.501542   118Ap     3.501616    83App    3.556100  
      84App    3.556186    85App    3.578499   119Ap     3.610965  
      86App    3.661802   120Ap     3.674924   121Ap     3.675089  
      87App    3.711742    88App    3.711864   122Ap     3.762157  
     123Ap     3.762231    89App    3.789007    90App    3.789103  
      91App    3.842583   124Ap     3.846088   125Ap     3.931227  
     126Ap     3.955255   127Ap     3.955306    92App    3.999460  
      93App    3.999588   128Ap     3.999597   129Ap     3.999681  
      94App    4.037771    95App    4.119883    96App    4.120101  
     130Ap     4.159146   131Ap     4.285720   132Ap     4.364470  
     133Ap     4.364526    97App    4.429957    98App    4.430149  
     134Ap     4.475000   135Ap     4.475187   136Ap     4.478655  
      99App    4.500962   100App    4.501025   137Ap     4.522542  
     138Ap     4.522676   101App    4.598796   139Ap     4.607657  
     140Ap     4.607890   102App    4.776538   103App    4.781128  
     141Ap     4.781556   142Ap     4.781640   143Ap     4.832798  
     144Ap     4.889495   104App    4.968610   105App    4.968655  
     145Ap     5.023075   146Ap     5.023188   106App    5.109587  
     107App    5.109663   108App    5.155845   147Ap     5.204676  
     148Ap     5.257656   149Ap     5.258501   150Ap     5.258883  
     109App    5.268405   110App    5.314068   111App    5.456178  
     112App    5.457110   151Ap     5.520087   152Ap     5.644304  
     153Ap     5.815296   154Ap     5.816489   155Ap     5.933578  
     156Ap     5.934034   113App    6.018245   114App    6.048089  
     115App    6.048308   116App    6.302594   117App    6.303097  
     157Ap    15.772222   158Ap    16.300878   159Ap    16.301184  

    Final Occupation by Irrep:
             Ap   App 
    DOCC [     9,    3 ]

  @DF-RKS Final Energy:  -117.87794767034899

   => Energetics <=

    Nuclear Repulsion Energy =             75.2814648090140253
    One-Electron Energy =                -305.8695363342746987
    Two-Electron Energy =                 121.6190246245794242
    DFT Exchange-Correlation Energy =      -8.9089007696677598
    Empirical Dispersion Energy =           0.0000000000000000
    VV10 Nonlocal Energy =                  0.0000000000000000
    Total Energy =                       -117.8779476703489877

Computation Completed


Properties will be evaluated at   0.000000,   0.000000,   0.000000 [a0]

Properties computed using the SCF density matrix

  Nuclear Dipole Moment: [e a0]
     X:    -0.0002      Y:    -0.0002      Z:     0.0000

  Electronic Dipole Moment: [e a0]
     X:     0.0003      Y:     0.0000      Z:     0.0000

  Dipole Moment: [e a0]
     X:     0.0001      Y:    -0.0001      Z:     0.0000     Total:     0.0002

  Dipole Moment: [D]
     X:     0.0003      Y:    -0.0003      Z:     0.0000     Total:     0.0004


*** tstop() called on atlantis at Tue Apr 19 10:40:58 2022
Module time:
	user time   =      48.61 seconds =       0.81 minutes
	system time =       0.16 seconds =       0.00 minutes
	total time  =         48 seconds =       0.80 minutes
Total time:
	user time   =      48.61 seconds =       0.81 minutes
	system time =       0.16 seconds =       0.00 minutes
	total time  =         48 seconds =       0.80 minutes
gradient() will perform analytic gradient computation.

*** tstart() called on atlantis
*** at Tue Apr 19 10:40:58 2022

   => Loading Basis Set <=

    Name: AUG-CC-PVTZ
    Role: ORBITAL
    Keyword: BASIS
    atoms 1-3 entry C          line   235 file /home/akrom/software/anaconda3/envs/ffpenv/share/psi4/basis/aug-cc-pvtz.gbs 
    atoms 4-9 entry H          line    36 file /home/akrom/software/anaconda3/envs/ffpenv/share/psi4/basis/aug-cc-pvtz.gbs 


         ---------------------------------------------------------
                                   SCF
               by Justin Turney, Rob Parrish, Andy Simmonett
                          and Daniel G. A. Smith
                              RKS Reference
                        1 Threads,    500 MiB Core
         ---------------------------------------------------------

  ==> Geometry <==

    Molecular point group: cs
    Full point group: Cs

    Geometry (in Angstrom), charge = 0, multiplicity = 1:

       Center              X                  Y                   Z               Mass       
    ------------   -----------------  -----------------  -----------------  -----------------
         C            0.321531939855     0.813261460475     0.000000000000    12.000000000000
         C           -0.865048060145    -0.128168539525     0.000000000000    12.000000000000
         C            0.543531939855    -0.685078539525     0.000000000000    12.000000000000
         H            0.537951939855     1.360691460475    -0.920390000000     1.007825032230
         H            0.537951939855     1.360691460475     0.920390000000     1.007825032230
         H           -1.447418060145    -0.214488539525     0.920340000000     1.007825032230
         H           -1.447418060145    -0.214488539525    -0.920340000000     1.007825032230
         H            0.909371939855    -1.146288539525    -0.920370000000     1.007825032230
         H            0.909371939855    -1.146288539525     0.920370000000     1.007825032230

  Running in cs symmetry.

  Rotational constants: A =      0.66472  B =      0.66470  C =      0.41647 [cm^-1]
  Rotational constants: A =  19927.70596  B =  19927.20236  C =  12485.44714 [MHz]
  Nuclear repulsion =   75.281464809014025

  Charge       = 0
  Multiplicity = 1
  Electrons    = 24
  Nalpha       = 12
  Nbeta        = 12

  ==> Algorithm <==

  SCF Algorithm Type is DF.
  DIIS enabled.
  MOM disabled.
  Fractional occupation disabled.
  Guess Type is SAD.
  Energy threshold   = 1.00e-08
  Density threshold  = 1.00e-08
  Integral threshold = 0.00e+00

  ==> Primary Basis <==

  Basis Set: AUG-CC-PVTZ
    Blend: AUG-CC-PVTZ
    Number of shells: 96
    Number of basis function: 276
    Number of Cartesian functions: 315
    Spherical Harmonics?: true
    Max angular momentum: 3

  ==> DFT Potential <==

   => Composite Functional: M06-2X <= 

    Hybrid M06-2X Meta-GGA XC Functional

    Y. Zhao and D. G. Truhlar,  Theor. Chem. Acc., 120, 215, 2008


    Deriv               =              1
    GGA                 =           TRUE
    Meta                =           TRUE

    Exchange Hybrid     =           TRUE
    MP2 Hybrid          =          FALSE

   => Exchange Functionals <=

    1.0000   XC_HYB_MGGA_X_M06_2X

   => Exact (HF) Exchange <=

    0.5400               HF 

   => Correlation Functionals <=

    1.0000   XC_MGGA_C_M06_2X

   => Molecular Quadrature <=

    Radial Scheme          =       TREUTLER
    Pruning Scheme         =           FLAT
    Nuclear Scheme         =       TREUTLER

    BS radius alpha        =              1
    Pruning alpha          =              1
    Radial Points          =             75
    Spherical Points       =            302
    Total Points           =         203850
    Total Blocks           =           1576
    Max Points             =            256
    Max Functions          =            276

   => Loading Basis Set <=

    Name: (AUG-CC-PVTZ AUX)
    Role: JKFIT
    Keyword: DF_BASIS_SCF
    atoms 1-3 entry C          line   162 file /home/akrom/software/anaconda3/envs/ffpenv/share/psi4/basis/aug-cc-pvtz-jkfit.gbs 
    atoms 4-9 entry H          line    70 file /home/akrom/software/anaconda3/envs/ffpenv/share/psi4/basis/aug-cc-pvtz-jkfit.gbs 

  ==> Pre-Iterations <==

   -------------------------------------------------------
    Irrep   Nso     Nmo     Nalpha   Nbeta   Ndocc  Nsocc
   -------------------------------------------------------
     A'       159     159       0       0       0       0
     A"       117     117       0       0       0       0
   -------------------------------------------------------
    Total     276     276      12      12      12       0
   -------------------------------------------------------

  ==> Integral Setup <==

  DFHelper Memory: AOs need 0.352 GiB; user supplied 0.352 GiB. Using in-core AOs.

  ==> MemDFJK: Density-Fitted J/K Matrices <==

    J tasked:                   Yes
    K tasked:                   Yes
    wK tasked:                   No
    OpenMP threads:               1
    Memory [MiB]:               360
    Algorithm:                 Core
    Schwarz Cutoff:           1E-12
    Mask sparsity (%):       0.0000
    Fitting Condition:        1E-10

   => Auxiliary Basis Set <=

  Basis Set: (AUG-CC-PVTZ AUX)
    Blend: AUG-CC-PVTZ-JKFIT
    Number of shells: 174
    Number of basis function: 588
    Number of Cartesian functions: 723
    Spherical Harmonics?: true
    Max angular momentum: 4

  Cached 0.4% of DFT collocation blocks in 0.014 [GiB].

  Minimum eigenvalue in the overlap matrix is 1.6775936804E-05.
  Using Symmetric Orthogonalization.

  SCF Guess: Superposition of Atomic Densities via on-the-fly atomic UHF.

  ==> Iterations <==

                           Total Energy        Delta E     RMS |[F,P]|

   @DF-RKS iter SAD:  -117.44440505781176   -1.17444e+02   0.00000e+00 
   @DF-RKS iter   1:  -117.57014027460286   -1.25735e-01   4.00316e-03 DIIS
   @DF-RKS iter   2:  -117.55946247602613    1.06778e-02   3.97250e-03 DIIS
   @DF-RKS iter   3:  -117.87672305827454   -3.17261e-01   2.46864e-04 DIIS
   @DF-RKS iter   4:  -117.87792090878217   -1.19785e-03   3.08724e-05 DIIS
   @DF-RKS iter   5:  -117.87794656261450   -2.56538e-05   6.13356e-06 DIIS
   @DF-RKS iter   6:  -117.87794764123545   -1.07862e-06   6.42101e-07 DIIS
   @DF-RKS iter   7:  -117.87794767031244   -2.90770e-08   9.61609e-08 DIIS
   @DF-RKS iter   8:  -117.87794767079397   -4.81535e-10   5.15586e-08 DIIS
   @DF-RKS iter   9:  -117.87794767084263   -4.86580e-11   1.43584e-08 DIIS
   @DF-RKS iter  10:  -117.87794767084762   -4.98801e-12   6.69287e-10 DIIS
  Energy and wave function converged.


  ==> Post-Iterations <==

    Orbital Energies [Eh]
    ---------------------

    Doubly Occupied:                                                      

       1Ap   -10.539503     2Ap   -10.538894     3Ap   -10.538887  
       4Ap    -0.944117     5Ap    -0.678987     6Ap    -0.678973  
       1App   -0.565624     7Ap    -0.528134     2App   -0.424468  
       3App   -0.424442     8Ap    -0.351020     9Ap    -0.350993  

    Virtual:                                                              

      10Ap     0.000101     4App    0.011768    11Ap     0.014098  
      12Ap     0.014098     5App    0.041874     6App    0.041875  
      13Ap     0.055412    14Ap     0.061377    15Ap     0.061379  
      16Ap     0.091448    17Ap     0.091451    18Ap     0.096025  
       7App    0.096749    19Ap     0.103488     8App    0.124524  
       9App    0.124528    20Ap     0.135555    21Ap     0.135558  
      10App    0.179807    22Ap     0.180816    23Ap     0.183231  
      11App    0.186129    12App    0.186131    24Ap     0.223573  
      25Ap     0.227146    26Ap     0.227149    27Ap     0.266815  
      28Ap     0.266825    13App    0.268794    14App    0.278712  
      29Ap     0.283697    30Ap     0.283703    15App    0.309975  
      16App    0.309982    17App    0.320280    18App    0.320287  
      31Ap     0.325532    19App    0.338055    32Ap     0.347288  
      33Ap     0.347296    34Ap     0.354101    35Ap     0.354117  
      36Ap     0.357778    37Ap     0.360517    20App    0.394240  
      21App    0.404011    22App    0.404030    38Ap     0.413268  
      39Ap     0.413287    40Ap     0.432044    41Ap     0.435533  
      23App    0.436994    24App    0.436995    42Ap     0.455332  
      43Ap     0.455335    44Ap     0.507949    45Ap     0.507962  
      46Ap     0.527747    25App    0.531290    26App    0.531315  
      27App    0.570592    28App    0.600485    47Ap     0.624339  
      48Ap     0.624359    29App    0.662584    30App    0.662622  
      31App    0.700946    49Ap     0.741104    50Ap     0.741110  
      51Ap     0.742716    52Ap     0.745392    32App    0.781994  
      33App    0.782006    53Ap     0.808646    54Ap     0.808677  
      55Ap     0.809325    56Ap     0.812905    57Ap     0.832820  
      58Ap     0.832834    34App    0.857363    35App    0.857377  
      36App    0.866340    59Ap     0.883111    60Ap     0.883127  
      37App    0.909579    38App    0.920800    61Ap     0.944370  
      62Ap     0.944378    39App    0.980092    40App    0.980107  
      63Ap     0.994218    41App    0.996995    42App    0.997014  
      64Ap     1.007830    65Ap     1.038718    66Ap     1.038741  
      67Ap     1.056883    68Ap     1.112426    69Ap     1.112446  
      43App    1.122630    44App    1.122652    70Ap     1.139961  
      45App    1.175350    46App    1.175353    47App    1.222309  
      48App    1.236812    49App    1.236862    50App    1.239790  
      71Ap     1.256730    72Ap     1.256760    51App    1.259105  
      73Ap     1.289088    74Ap     1.377835    75Ap     1.377869  
      76Ap     1.385811    77Ap     1.385867    52App    1.403630  
      78Ap     1.406737    53App    1.423871    54App    1.423916  
      79Ap     1.475050    80Ap     1.475059    81Ap     1.492892  
      55App    1.504253    56App    1.536011    82Ap     1.561514  
      83Ap     1.576066    84Ap     1.576135    57App    1.652305  
      58App    1.652336    59App    1.673270    60App    1.673335  
      85Ap     1.689396    86Ap     1.707140    87Ap     1.723315  
      88Ap     1.723386    61App    1.747488    89Ap     1.765170  
      90Ap     1.765206    62App    1.823500    63App    1.823516  
      91Ap     1.839226    92Ap     1.839278    93Ap     1.839926  
      94Ap     1.884436    64App    1.919147    65App    1.949802  
      95Ap     1.997955    96Ap     1.998010    66App    2.044030  
      67App    2.044098    68App    2.133242    69App    2.133336  
      70App    2.163783    97Ap     2.167341    98Ap     2.167394  
      71App    2.266673    72App    2.266711    99Ap     2.292403  
     100Ap     2.351964   101Ap     2.364862   102Ap     2.364925  
      73App    2.662857   103Ap     2.777557   104Ap     2.869835  
     105Ap     2.869993    74App    3.001323    75App    3.001448  
     106Ap     3.006402   107Ap     3.082373   108Ap     3.082434  
     109Ap     3.091176    76App    3.161002   110Ap     3.235771  
      77App    3.296867   111Ap     3.310131   112Ap     3.310316  
      78App    3.319955    79App    3.320071   113Ap     3.323576  
     114Ap     3.323626   115Ap     3.349442    80App    3.400990  
      81App    3.401199    82App    3.412839   116Ap     3.500209  
     117Ap     3.501542   118Ap     3.501617    83App    3.556100  
      84App    3.556187    85App    3.578499   119Ap     3.610965  
      86App    3.661803   120Ap     3.674924   121Ap     3.675090  
      87App    3.711741    88App    3.711865   122Ap     3.762157  
     123Ap     3.762231    89App    3.789007    90App    3.789103  
      91App    3.842583   124Ap     3.846088   125Ap     3.931227  
     126Ap     3.955255   127Ap     3.955306    92App    3.999461  
      93App    3.999587   128Ap     3.999598   129Ap     3.999681  
      94App    4.037772    95App    4.119883    96App    4.120102  
     130Ap     4.159146   131Ap     4.285720   132Ap     4.364470  
     133Ap     4.364526    97App    4.429957    98App    4.430149  
     134Ap     4.475001   135Ap     4.475187   136Ap     4.478656  
      99App    4.500962   100App    4.501025   137Ap     4.522543  
     138Ap     4.522677   101App    4.598796   139Ap     4.607657  
     140Ap     4.607890   102App    4.776538   103App    4.781128  
     141Ap     4.781556   142Ap     4.781640   143Ap     4.832799  
     144Ap     4.889494   104App    4.968610   105App    4.968655  
     145Ap     5.023075   146Ap     5.023188   106App    5.109587  
     107App    5.109663   108App    5.155845   147Ap     5.204677  
     148Ap     5.257655   149Ap     5.258500   150Ap     5.258884  
     109App    5.268406   110App    5.314068   111App    5.456178  
     112App    5.457110   151Ap     5.520087   152Ap     5.644304  
     153Ap     5.815295   154Ap     5.816490   155Ap     5.933578  
     156Ap     5.934035   113App    6.018245   114App    6.048090  
     115App    6.048307   116App    6.302594   117App    6.303097  
     157Ap    15.772222   158Ap    16.300879   159Ap    16.301184  

    Final Occupation by Irrep:
             Ap   App 
    DOCC [     9,    3 ]

  @DF-RKS Final Energy:  -117.87794767084762

   => Energetics <=

    Nuclear Repulsion Energy =             75.2814648090140253
    One-Electron Energy =                -305.8695394864207628
    Two-Electron Energy =                 121.6190283101814771
    DFT Exchange-Correlation Energy =      -8.9089013036223736
    Empirical Dispersion Energy =           0.0000000000000000
    VV10 Nonlocal Energy =                  0.0000000000000000
    Total Energy =                       -117.8779476708476182

Computation Completed


Properties will be evaluated at   0.000000,   0.000000,   0.000000 [a0]

Properties computed using the SCF density matrix

  Nuclear Dipole Moment: [e a0]
     X:    -0.0002      Y:    -0.0002      Z:     0.0000

  Electronic Dipole Moment: [e a0]
     X:     0.0003      Y:     0.0000      Z:     0.0000

  Dipole Moment: [e a0]
     X:     0.0001      Y:    -0.0001      Z:     0.0000     Total:     0.0002

  Dipole Moment: [D]
     X:     0.0003      Y:    -0.0003      Z:     0.0000     Total:     0.0005


*** tstop() called on atlantis at Tue Apr 19 10:42:05 2022
Module time:
	user time   =      66.72 seconds =       1.11 minutes
	system time =       0.14 seconds =       0.00 minutes
	total time  =         67 seconds =       1.12 minutes
Total time:
	user time   =     115.34 seconds =       1.92 minutes
	system time =       0.30 seconds =       0.01 minutes
	total time  =        115 seconds =       1.92 minutes

*** tstart() called on atlantis
*** at Tue Apr 19 10:42:05 2022


         ------------------------------------------------------------
                                   SCF GRAD                          
                          Rob Parrish, Justin Turney,                
                       Andy Simmonett, and Alex Sokolov              
         ------------------------------------------------------------

  ==> Geometry <==

    Molecular point group: cs
    Full point group: Cs

    Geometry (in Angstrom), charge = 0, multiplicity = 1:

       Center              X                  Y                   Z               Mass       
    ------------   -----------------  -----------------  -----------------  -----------------
         C            0.321531939855     0.813261460475     0.000000000000    12.000000000000
         C           -0.865048060145    -0.128168539525     0.000000000000    12.000000000000
         C            0.543531939855    -0.685078539525     0.000000000000    12.000000000000
         H            0.537951939855     1.360691460475    -0.920390000000     1.007825032230
         H            0.537951939855     1.360691460475     0.920390000000     1.007825032230
         H           -1.447418060145    -0.214488539525     0.920340000000     1.007825032230
         H           -1.447418060145    -0.214488539525    -0.920340000000     1.007825032230
         H            0.909371939855    -1.146288539525    -0.920370000000     1.007825032230
         H            0.909371939855    -1.146288539525     0.920370000000     1.007825032230

  Nuclear repulsion =   75.281464809014025

  ==> Basis Set <==

  Basis Set: AUG-CC-PVTZ
    Blend: AUG-CC-PVTZ
    Number of shells: 96
    Number of basis function: 276
    Number of Cartesian functions: 315
    Spherical Harmonics?: true
    Max angular momentum: 3

  ==> DFJKGrad: Density-Fitted SCF Gradients <==

    Gradient:                    1
    J tasked:                  Yes
    K tasked:                  Yes
    wK tasked:                  No
    OpenMP threads:              1
    Integrals threads:           1
    Memory [MiB]:              375
    Schwarz Cutoff:          0E+00
    Fitting Condition:       1E-10

   => Auxiliary Basis Set <=

  Basis Set: (AUG-CC-PVTZ AUX)
    Blend: AUG-CC-PVTZ-JKFIT
    Number of shells: 174
    Number of basis function: 588
    Number of Cartesian functions: 723
    Spherical Harmonics?: true
    Max angular momentum: 4

  ==> DFT Potential <==

   => Composite Functional: M06-2X <= 

    Hybrid M06-2X Meta-GGA XC Functional

    Y. Zhao and D. G. Truhlar,  Theor. Chem. Acc., 120, 215, 2008


    Deriv               =              1
    GGA                 =           TRUE
    Meta                =           TRUE

    Exchange Hybrid     =           TRUE
    MP2 Hybrid          =          FALSE

   => Exchange Functionals <=

    1.0000   XC_HYB_MGGA_X_M06_2X

   => Exact (HF) Exchange <=

    0.5400               HF 

   => Correlation Functionals <=

    1.0000   XC_MGGA_C_M06_2X

   => Molecular Quadrature <=

    Radial Scheme          =       TREUTLER
    Pruning Scheme         =           FLAT
    Nuclear Scheme         =       TREUTLER

    BS radius alpha        =              1
    Pruning alpha          =              1
    Radial Points          =             75
    Spherical Points       =            302
    Total Points           =         203850
    Total Blocks           =           1576
    Max Points             =            256
    Max Functions          =            276


  -Total Gradient:
     Atom            X                  Y                   Z
    ------   -----------------  -----------------  -----------------
       1        0.001756812859     0.004414195007     0.000000000000
       2       -0.004651788339    -0.000651693226     0.000000000000
       3        0.002996743541    -0.003725324736     0.000000000000
       4        0.001811895584     0.004555500458    -0.007473406264
       5        0.001811895584     0.004555500458     0.007473406264
       6       -0.004844947161    -0.000711605669     0.007459239592
       7       -0.004844947161    -0.000711605669    -0.007459239592
       8        0.003066817209    -0.003847551015    -0.007444016634
       9        0.003066817209    -0.003847551015     0.007444016634


*** tstop() called on atlantis at Tue Apr 19 10:42:18 2022
Module time:
	user time   =      12.40 seconds =       0.21 minutes
	system time =       0.16 seconds =       0.00 minutes
	total time  =         13 seconds =       0.22 minutes
Total time:
	user time   =     127.74 seconds =       2.13 minutes
	system time =       0.46 seconds =       0.01 minutes
	total time  =        128 seconds =       2.13 minutes

  Based on options and gradient (rms=4.50E-03), recommend projecting translations and projecting rotations.
hessian() will perform frequency computation by finite difference of analytic gradients.

         ----------------------------------------------------------
                                   FINDIF
                     R. A. King and Jonathon Misiewicz
         ---------------------------------------------------------

  Using finite-differences of gradients to determine vibrational frequencies and 
  normal modes.  Resulting frequencies are only valid at stationary points.
    Generating geometries for use with 3-point formula.
    Displacement size will be 5.00e-03.
    Number of atoms is 9.
    Number of irreps is 2.
    Number of SALCs is 21.
    Translations projected? 1. Rotations projected? 1.
    Index of SALCs per irrep:
     1 :  0  1  2  3  4  5  6  7  8  9  10  11 
     2 :  12  13  14  15  16  17  18  19  20 
    Number of SALCs per irrep:
     Irrep 1: 12
     Irrep 2: 9
    Number of geometries (including reference) is 34.
    Number of displacements per irrep:
      Irrep 1: 24
      Irrep 2: 9

  //>>>>>>>>>>>>>>>>>>>>>>>>>>>>>>>>>>>//
  //    Loading displacement 1 of 34   //
  //<<<<<<<<<<<<<<<<<<<<<<<<<<<<<<<<<<<//
gradient() will perform analytic gradient computation.

*** tstart() called on atlantis
*** at Tue Apr 19 10:42:18 2022

   => Loading Basis Set <=

    Name: AUG-CC-PVTZ
    Role: ORBITAL
    Keyword: BASIS
    atoms 1-3 entry C          line   235 file /home/akrom/software/anaconda3/envs/ffpenv/share/psi4/basis/aug-cc-pvtz.gbs 
    atoms 4-9 entry H          line    36 file /home/akrom/software/anaconda3/envs/ffpenv/share/psi4/basis/aug-cc-pvtz.gbs 


         ---------------------------------------------------------
                                   SCF
               by Justin Turney, Rob Parrish, Andy Simmonett
                          and Daniel G. A. Smith
                              RKS Reference
                        1 Threads,    500 MiB Core
         ---------------------------------------------------------

  ==> Geometry <==

    Molecular point group: cs
    Full point group: Cs

    Geometry (in Angstrom), charge = 0, multiplicity = 1:

       Center              X                  Y                   Z               Mass       
    ------------   -----------------  -----------------  -----------------  -----------------
         C            0.321531939855     0.813261460475     0.000000000000    12.000000000000
         C           -0.865048060145    -0.128168539525     0.000000000000    12.000000000000
         C            0.543531939855    -0.685078539525     0.000000000000    12.000000000000
         H            0.537951939855     1.360691460475    -0.920390000000     1.007825032230
         H            0.537951939855     1.360691460475     0.920390000000     1.007825032230
         H           -1.447418060145    -0.214488539525     0.920340000000     1.007825032230
         H           -1.447418060145    -0.214488539525    -0.920340000000     1.007825032230
         H            0.909371939855    -1.146288539525    -0.920370000000     1.007825032230
         H            0.909371939855    -1.146288539525     0.920370000000     1.007825032230

  Running in cs symmetry.

  Rotational constants: A =      0.66472  B =      0.66470  C =      0.41647 [cm^-1]
  Rotational constants: A =  19927.70596  B =  19927.20236  C =  12485.44714 [MHz]
  Nuclear repulsion =   75.281464809014025

  Charge       = 0
  Multiplicity = 1
  Electrons    = 24
  Nalpha       = 12
  Nbeta        = 12

  ==> Algorithm <==

  SCF Algorithm Type is DF.
  DIIS enabled.
  MOM disabled.
  Fractional occupation disabled.
  Guess Type is SAD.
  Energy threshold   = 1.00e-08
  Density threshold  = 1.00e-08
  Integral threshold = 0.00e+00

  ==> Primary Basis <==

  Basis Set: AUG-CC-PVTZ
    Blend: AUG-CC-PVTZ
    Number of shells: 96
    Number of basis function: 276
    Number of Cartesian functions: 315
    Spherical Harmonics?: true
    Max angular momentum: 3

  ==> DFT Potential <==

   => Composite Functional: M06-2X <= 

    Hybrid M06-2X Meta-GGA XC Functional

    Y. Zhao and D. G. Truhlar,  Theor. Chem. Acc., 120, 215, 2008


    Deriv               =              1
    GGA                 =           TRUE
    Meta                =           TRUE

    Exchange Hybrid     =           TRUE
    MP2 Hybrid          =          FALSE

   => Exchange Functionals <=

    1.0000   XC_HYB_MGGA_X_M06_2X

   => Exact (HF) Exchange <=

    0.5400               HF 

   => Correlation Functionals <=

    1.0000   XC_MGGA_C_M06_2X

   => Molecular Quadrature <=

    Radial Scheme          =       TREUTLER
    Pruning Scheme         =           FLAT
    Nuclear Scheme         =       TREUTLER

    BS radius alpha        =              1
    Pruning alpha          =              1
    Radial Points          =             75
    Spherical Points       =            302
    Total Points           =         203850
    Total Blocks           =           1576
    Max Points             =            256
    Max Functions          =            276

   => Loading Basis Set <=

    Name: (AUG-CC-PVTZ AUX)
    Role: JKFIT
    Keyword: DF_BASIS_SCF
    atoms 1-3 entry C          line   162 file /home/akrom/software/anaconda3/envs/ffpenv/share/psi4/basis/aug-cc-pvtz-jkfit.gbs 
    atoms 4-9 entry H          line    70 file /home/akrom/software/anaconda3/envs/ffpenv/share/psi4/basis/aug-cc-pvtz-jkfit.gbs 

  ==> Pre-Iterations <==

   -------------------------------------------------------
    Irrep   Nso     Nmo     Nalpha   Nbeta   Ndocc  Nsocc
   -------------------------------------------------------
     A'       159     159       0       0       0       0
     A"       117     117       0       0       0       0
   -------------------------------------------------------
    Total     276     276      12      12      12       0
   -------------------------------------------------------

  ==> Integral Setup <==

  DFHelper Memory: AOs need 0.352 GiB; user supplied 0.352 GiB. Using in-core AOs.

  ==> MemDFJK: Density-Fitted J/K Matrices <==

    J tasked:                   Yes
    K tasked:                   Yes
    wK tasked:                   No
    OpenMP threads:               1
    Memory [MiB]:               360
    Algorithm:                 Core
    Schwarz Cutoff:           1E-12
    Mask sparsity (%):       0.0000
    Fitting Condition:        1E-10

   => Auxiliary Basis Set <=

  Basis Set: (AUG-CC-PVTZ AUX)
    Blend: AUG-CC-PVTZ-JKFIT
    Number of shells: 174
    Number of basis function: 588
    Number of Cartesian functions: 723
    Spherical Harmonics?: true
    Max angular momentum: 4

  Cached 0.4% of DFT collocation blocks in 0.014 [GiB].

  Minimum eigenvalue in the overlap matrix is 1.6775936804E-05.
  Using Symmetric Orthogonalization.

  SCF Guess: Superposition of Atomic Densities via on-the-fly atomic UHF.

  ==> Iterations <==

                           Total Energy        Delta E     RMS |[F,P]|

   @DF-RKS iter SAD:  -117.44440505781171   -1.17444e+02   0.00000e+00 
   @DF-RKS iter   1:  -117.57014027460288   -1.25735e-01   4.00316e-03 DIIS
   @DF-RKS iter   2:  -117.55946247602580    1.06778e-02   3.97250e-03 DIIS
   @DF-RKS iter   3:  -117.87672305827522   -3.17261e-01   2.46864e-04 DIIS
   @DF-RKS iter   4:  -117.87792090878241   -1.19785e-03   3.08724e-05 DIIS
   @DF-RKS iter   5:  -117.87794656261374   -2.56538e-05   6.13356e-06 DIIS
   @DF-RKS iter   6:  -117.87794764123643   -1.07862e-06   6.42101e-07 DIIS
   @DF-RKS iter   7:  -117.87794767031251   -2.90761e-08   9.61609e-08 DIIS
   @DF-RKS iter   8:  -117.87794767079360   -4.81094e-10   5.15586e-08 DIIS
   @DF-RKS iter   9:  -117.87794767084314   -4.95390e-11   1.43584e-08 DIIS
   @DF-RKS iter  10:  -117.87794767084769   -4.54747e-12   6.69288e-10 DIIS
  Energy and wave function converged.


  ==> Post-Iterations <==

    Orbital Energies [Eh]
    ---------------------

    Doubly Occupied:                                                      

       1Ap   -10.539503     2Ap   -10.538894     3Ap   -10.538887  
       4Ap    -0.944117     5Ap    -0.678987     6Ap    -0.678973  
       1App   -0.565624     7Ap    -0.528134     2App   -0.424468  
       3App   -0.424442     8Ap    -0.351020     9Ap    -0.350993  

    Virtual:                                                              

      10Ap     0.000101     4App    0.011768    11Ap     0.014098  
      12Ap     0.014098     5App    0.041874     6App    0.041875  
      13Ap     0.055412    14Ap     0.061377    15Ap     0.061379  
      16Ap     0.091448    17Ap     0.091451    18Ap     0.096025  
       7App    0.096749    19Ap     0.103488     8App    0.124524  
       9App    0.124528    20Ap     0.135555    21Ap     0.135558  
      10App    0.179807    22Ap     0.180816    23Ap     0.183231  
      11App    0.186129    12App    0.186131    24Ap     0.223573  
      25Ap     0.227146    26Ap     0.227149    27Ap     0.266815  
      28Ap     0.266825    13App    0.268794    14App    0.278712  
      29Ap     0.283697    30Ap     0.283703    15App    0.309975  
      16App    0.309982    17App    0.320280    18App    0.320287  
      31Ap     0.325532    19App    0.338055    32Ap     0.347288  
      33Ap     0.347296    34Ap     0.354101    35Ap     0.354117  
      36Ap     0.357778    37Ap     0.360517    20App    0.394240  
      21App    0.404011    22App    0.404030    38Ap     0.413268  
      39Ap     0.413287    40Ap     0.432044    41Ap     0.435533  
      23App    0.436994    24App    0.436995    42Ap     0.455332  
      43Ap     0.455335    44Ap     0.507949    45Ap     0.507962  
      46Ap     0.527747    25App    0.531290    26App    0.531315  
      27App    0.570592    28App    0.600485    47Ap     0.624339  
      48Ap     0.624359    29App    0.662584    30App    0.662622  
      31App    0.700946    49Ap     0.741104    50Ap     0.741110  
      51Ap     0.742716    52Ap     0.745392    32App    0.781994  
      33App    0.782006    53Ap     0.808646    54Ap     0.808677  
      55Ap     0.809325    56Ap     0.812905    57Ap     0.832820  
      58Ap     0.832834    34App    0.857363    35App    0.857377  
      36App    0.866340    59Ap     0.883111    60Ap     0.883127  
      37App    0.909579    38App    0.920800    61Ap     0.944370  
      62Ap     0.944378    39App    0.980092    40App    0.980107  
      63Ap     0.994218    41App    0.996995    42App    0.997014  
      64Ap     1.007830    65Ap     1.038718    66Ap     1.038741  
      67Ap     1.056883    68Ap     1.112426    69Ap     1.112446  
      43App    1.122630    44App    1.122652    70Ap     1.139961  
      45App    1.175350    46App    1.175353    47App    1.222309  
      48App    1.236812    49App    1.236862    50App    1.239790  
      71Ap     1.256730    72Ap     1.256760    51App    1.259105  
      73Ap     1.289088    74Ap     1.377835    75Ap     1.377869  
      76Ap     1.385811    77Ap     1.385867    52App    1.403630  
      78Ap     1.406737    53App    1.423871    54App    1.423916  
      79Ap     1.475050    80Ap     1.475059    81Ap     1.492892  
      55App    1.504253    56App    1.536011    82Ap     1.561514  
      83Ap     1.576066    84Ap     1.576135    57App    1.652305  
      58App    1.652336    59App    1.673270    60App    1.673335  
      85Ap     1.689396    86Ap     1.707140    87Ap     1.723315  
      88Ap     1.723386    61App    1.747488    89Ap     1.765170  
      90Ap     1.765206    62App    1.823500    63App    1.823516  
      91Ap     1.839226    92Ap     1.839278    93Ap     1.839926  
      94Ap     1.884436    64App    1.919147    65App    1.949802  
      95Ap     1.997955    96Ap     1.998010    66App    2.044030  
      67App    2.044098    68App    2.133242    69App    2.133336  
      70App    2.163783    97Ap     2.167341    98Ap     2.167394  
      71App    2.266673    72App    2.266711    99Ap     2.292403  
     100Ap     2.351964   101Ap     2.364862   102Ap     2.364925  
      73App    2.662857   103Ap     2.777557   104Ap     2.869835  
     105Ap     2.869993    74App    3.001323    75App    3.001448  
     106Ap     3.006402   107Ap     3.082373   108Ap     3.082434  
     109Ap     3.091176    76App    3.161002   110Ap     3.235771  
      77App    3.296867   111Ap     3.310131   112Ap     3.310316  
      78App    3.319955    79App    3.320071   113Ap     3.323576  
     114Ap     3.323626   115Ap     3.349442    80App    3.400990  
      81App    3.401199    82App    3.412839   116Ap     3.500209  
     117Ap     3.501542   118Ap     3.501617    83App    3.556100  
      84App    3.556187    85App    3.578499   119Ap     3.610965  
      86App    3.661803   120Ap     3.674924   121Ap     3.675090  
      87App    3.711741    88App    3.711865   122Ap     3.762157  
     123Ap     3.762231    89App    3.789007    90App    3.789103  
      91App    3.842583   124Ap     3.846088   125Ap     3.931227  
     126Ap     3.955255   127Ap     3.955306    92App    3.999461  
      93App    3.999587   128Ap     3.999598   129Ap     3.999681  
      94App    4.037772    95App    4.119883    96App    4.120102  
     130Ap     4.159146   131Ap     4.285720   132Ap     4.364470  
     133Ap     4.364526    97App    4.429957    98App    4.430149  
     134Ap     4.475001   135Ap     4.475187   136Ap     4.478656  
      99App    4.500962   100App    4.501025   137Ap     4.522543  
     138Ap     4.522677   101App    4.598796   139Ap     4.607657  
     140Ap     4.607890   102App    4.776538   103App    4.781128  
     141Ap     4.781556   142Ap     4.781640   143Ap     4.832799  
     144Ap     4.889494   104App    4.968610   105App    4.968655  
     145Ap     5.023075   146Ap     5.023188   106App    5.109587  
     107App    5.109663   108App    5.155845   147Ap     5.204677  
     148Ap     5.257655   149Ap     5.258500   150Ap     5.258884  
     109App    5.268406   110App    5.314068   111App    5.456178  
     112App    5.457110   151Ap     5.520087   152Ap     5.644304  
     153Ap     5.815295   154Ap     5.816490   155Ap     5.933578  
     156Ap     5.934035   113App    6.018245   114App    6.048090  
     115App    6.048307   116App    6.302594   117App    6.303097  
     157Ap    15.772222   158Ap    16.300879   159Ap    16.301184  

    Final Occupation by Irrep:
             Ap   App 
    DOCC [     9,    3 ]

  @DF-RKS Final Energy:  -117.87794767084769

   => Energetics <=

    Nuclear Repulsion Energy =             75.2814648090140253
    One-Electron Energy =                -305.8695394864250261
    Two-Electron Energy =                 121.6190283101859677
    DFT Exchange-Correlation Energy =      -8.9089013036226703
    Empirical Dispersion Energy =           0.0000000000000000
    VV10 Nonlocal Energy =                  0.0000000000000000
    Total Energy =                       -117.8779476708476892

Computation Completed


Properties will be evaluated at   0.000000,   0.000000,   0.000000 [a0]

Properties computed using the SCF density matrix

  Nuclear Dipole Moment: [e a0]
     X:    -0.0002      Y:    -0.0002      Z:     0.0000

  Electronic Dipole Moment: [e a0]
     X:     0.0003      Y:     0.0000      Z:     0.0000

  Dipole Moment: [e a0]
     X:     0.0001      Y:    -0.0001      Z:     0.0000     Total:     0.0002

  Dipole Moment: [D]
     X:     0.0003      Y:    -0.0003      Z:     0.0000     Total:     0.0005


*** tstop() called on atlantis at Tue Apr 19 10:43:27 2022
Module time:
	user time   =      68.41 seconds =       1.14 minutes
	system time =       0.13 seconds =       0.00 minutes
	total time  =         69 seconds =       1.15 minutes
Total time:
	user time   =     196.44 seconds =       3.27 minutes
	system time =       0.60 seconds =       0.01 minutes
	total time  =        197 seconds =       3.28 minutes

*** tstart() called on atlantis
*** at Tue Apr 19 10:43:27 2022


         ------------------------------------------------------------
                                   SCF GRAD                          
                          Rob Parrish, Justin Turney,                
                       Andy Simmonett, and Alex Sokolov              
         ------------------------------------------------------------

  ==> Geometry <==

    Molecular point group: cs
    Full point group: Cs

    Geometry (in Angstrom), charge = 0, multiplicity = 1:

       Center              X                  Y                   Z               Mass       
    ------------   -----------------  -----------------  -----------------  -----------------
         C            0.321531939855     0.813261460475     0.000000000000    12.000000000000
         C           -0.865048060145    -0.128168539525     0.000000000000    12.000000000000
         C            0.543531939855    -0.685078539525     0.000000000000    12.000000000000
         H            0.537951939855     1.360691460475    -0.920390000000     1.007825032230
         H            0.537951939855     1.360691460475     0.920390000000     1.007825032230
         H           -1.447418060145    -0.214488539525     0.920340000000     1.007825032230
         H           -1.447418060145    -0.214488539525    -0.920340000000     1.007825032230
         H            0.909371939855    -1.146288539525    -0.920370000000     1.007825032230
         H            0.909371939855    -1.146288539525     0.920370000000     1.007825032230

  Nuclear repulsion =   75.281464809014025

  ==> Basis Set <==

  Basis Set: AUG-CC-PVTZ
    Blend: AUG-CC-PVTZ
    Number of shells: 96
    Number of basis function: 276
    Number of Cartesian functions: 315
    Spherical Harmonics?: true
    Max angular momentum: 3

  ==> DFJKGrad: Density-Fitted SCF Gradients <==

    Gradient:                    1
    J tasked:                  Yes
    K tasked:                  Yes
    wK tasked:                  No
    OpenMP threads:              1
    Integrals threads:           1
    Memory [MiB]:              375
    Schwarz Cutoff:          0E+00
    Fitting Condition:       1E-10

   => Auxiliary Basis Set <=

  Basis Set: (AUG-CC-PVTZ AUX)
    Blend: AUG-CC-PVTZ-JKFIT
    Number of shells: 174
    Number of basis function: 588
    Number of Cartesian functions: 723
    Spherical Harmonics?: true
    Max angular momentum: 4

  ==> DFT Potential <==

   => Composite Functional: M06-2X <= 

    Hybrid M06-2X Meta-GGA XC Functional

    Y. Zhao and D. G. Truhlar,  Theor. Chem. Acc., 120, 215, 2008


    Deriv               =              1
    GGA                 =           TRUE
    Meta                =           TRUE

    Exchange Hybrid     =           TRUE
    MP2 Hybrid          =          FALSE

   => Exchange Functionals <=

    1.0000   XC_HYB_MGGA_X_M06_2X

   => Exact (HF) Exchange <=

    0.5400               HF 

   => Correlation Functionals <=

    1.0000   XC_MGGA_C_M06_2X

   => Molecular Quadrature <=

    Radial Scheme          =       TREUTLER
    Pruning Scheme         =           FLAT
    Nuclear Scheme         =       TREUTLER

    BS radius alpha        =              1
    Pruning alpha          =              1
    Radial Points          =             75
    Spherical Points       =            302
    Total Points           =         203850
    Total Blocks           =           1576
    Max Points             =            256
    Max Functions          =            276


  -Total Gradient:
     Atom            X                  Y                   Z
    ------   -----------------  -----------------  -----------------
       1        0.001756810880     0.004414191803     0.000000000000
       2       -0.004651780700    -0.000651686855     0.000000000000
       3        0.002996741212    -0.003725314914     0.000000000000
       4        0.001811895076     0.004555498818    -0.007473406717
       5        0.001811895076     0.004555498818     0.007473406717
       6       -0.004844950771    -0.000711606777     0.007459248900
       7       -0.004844950771    -0.000711606777    -0.007459248900
       8        0.003066819659    -0.003847554761    -0.007444027813
       9        0.003066819659    -0.003847554761     0.007444027813


*** tstop() called on atlantis at Tue Apr 19 10:43:39 2022
Module time:
	user time   =      12.20 seconds =       0.20 minutes
	system time =       0.17 seconds =       0.00 minutes
	total time  =         12 seconds =       0.20 minutes
Total time:
	user time   =     208.64 seconds =       3.48 minutes
	system time =       0.77 seconds =       0.01 minutes
	total time  =        209 seconds =       3.48 minutes

  //>>>>>>>>>>>>>>>>>>>>>>>>>>>>>>>>>>>//
  //    Loading displacement 2 of 34   //
  //<<<<<<<<<<<<<<<<<<<<<<<<<<<<<<<<<<<//
gradient() will perform analytic gradient computation.

*** tstart() called on atlantis
*** at Tue Apr 19 10:43:39 2022

   => Loading Basis Set <=

    Name: AUG-CC-PVTZ
    Role: ORBITAL
    Keyword: BASIS
    atoms 1-3 entry C          line   235 file /home/akrom/software/anaconda3/envs/ffpenv/share/psi4/basis/aug-cc-pvtz.gbs 
    atoms 4-9 entry H          line    36 file /home/akrom/software/anaconda3/envs/ffpenv/share/psi4/basis/aug-cc-pvtz.gbs 


         ---------------------------------------------------------
                                   SCF
               by Justin Turney, Rob Parrish, Andy Simmonett
                          and Daniel G. A. Smith
                              RKS Reference
                        1 Threads,    500 MiB Core
         ---------------------------------------------------------

  ==> Geometry <==

    Molecular point group: cs
    Full point group: Cs

    Geometry (in Angstrom), charge = 0, multiplicity = 1:

       Center              X                  Y                   Z               Mass       
    ------------   -----------------  -----------------  -----------------  -----------------
         C            0.320981935461     0.813179232929     0.000000000000    12.000000000000
         C           -0.864778117207    -0.127947314912     0.000000000000    12.000000000000
         C            0.543659460418    -0.685217540638     0.000000000000    12.000000000000
         H            0.538602639069     1.360553886373    -0.920390000000     1.007825032230
         H            0.538602639069     1.360553886373     0.920390000000     1.007825032230
         H           -1.447170192407    -0.214118381478     0.920340000000     1.007825032230
         H           -1.447170192407    -0.214118381478    -0.920340000000     1.007825032230
         H            0.909381512053    -1.146521099385    -0.920370000000     1.007825032230
         H            0.909381512053    -1.146521099385     0.920370000000     1.007825032230

  Running in cs symmetry.

  Rotational constants: A =      0.66511  B =      0.66452  C =      0.41655 [cm^-1]
  Rotational constants: A =  19939.46144  B =  19921.88173  C =  12487.97026 [MHz]
  Nuclear repulsion =   75.286659304380962

  Charge       = 0
  Multiplicity = 1
  Electrons    = 24
  Nalpha       = 12
  Nbeta        = 12

  ==> Algorithm <==

  SCF Algorithm Type is DF.
  DIIS enabled.
  MOM disabled.
  Fractional occupation disabled.
  Guess Type is SAD.
  Energy threshold   = 1.00e-08
  Density threshold  = 1.00e-08
  Integral threshold = 0.00e+00

  ==> Primary Basis <==

  Basis Set: AUG-CC-PVTZ
    Blend: AUG-CC-PVTZ
    Number of shells: 96
    Number of basis function: 276
    Number of Cartesian functions: 315
    Spherical Harmonics?: true
    Max angular momentum: 3

  ==> DFT Potential <==

   => Composite Functional: M06-2X <= 

    Hybrid M06-2X Meta-GGA XC Functional

    Y. Zhao and D. G. Truhlar,  Theor. Chem. Acc., 120, 215, 2008


    Deriv               =              1
    GGA                 =           TRUE
    Meta                =           TRUE

    Exchange Hybrid     =           TRUE
    MP2 Hybrid          =          FALSE

   => Exchange Functionals <=

    1.0000   XC_HYB_MGGA_X_M06_2X

   => Exact (HF) Exchange <=

    0.5400               HF 

   => Correlation Functionals <=

    1.0000   XC_MGGA_C_M06_2X

   => Molecular Quadrature <=

    Radial Scheme          =       TREUTLER
    Pruning Scheme         =           FLAT
    Nuclear Scheme         =       TREUTLER

    BS radius alpha        =              1
    Pruning alpha          =              1
    Radial Points          =             75
    Spherical Points       =            302
    Total Points           =         203850
    Total Blocks           =           1568
    Max Points             =            256
    Max Functions          =            276

   => Loading Basis Set <=

    Name: (AUG-CC-PVTZ AUX)
    Role: JKFIT
    Keyword: DF_BASIS_SCF
    atoms 1-3 entry C          line   162 file /home/akrom/software/anaconda3/envs/ffpenv/share/psi4/basis/aug-cc-pvtz-jkfit.gbs 
    atoms 4-9 entry H          line    70 file /home/akrom/software/anaconda3/envs/ffpenv/share/psi4/basis/aug-cc-pvtz-jkfit.gbs 

  ==> Pre-Iterations <==

   -------------------------------------------------------
    Irrep   Nso     Nmo     Nalpha   Nbeta   Ndocc  Nsocc
   -------------------------------------------------------
     A'       159     159       0       0       0       0
     A"       117     117       0       0       0       0
   -------------------------------------------------------
    Total     276     276      12      12      12       0
   -------------------------------------------------------

  ==> Integral Setup <==

  DFHelper Memory: AOs need 0.352 GiB; user supplied 0.352 GiB. Using in-core AOs.

  ==> MemDFJK: Density-Fitted J/K Matrices <==

    J tasked:                   Yes
    K tasked:                   Yes
    wK tasked:                   No
    OpenMP threads:               1
    Memory [MiB]:               360
    Algorithm:                 Core
    Schwarz Cutoff:           1E-12
    Mask sparsity (%):       0.0000
    Fitting Condition:        1E-10

   => Auxiliary Basis Set <=

  Basis Set: (AUG-CC-PVTZ AUX)
    Blend: AUG-CC-PVTZ-JKFIT
    Number of shells: 174
    Number of basis function: 588
    Number of Cartesian functions: 723
    Spherical Harmonics?: true
    Max angular momentum: 4

  Cached 0.4% of DFT collocation blocks in 0.011 [GiB].

  Minimum eigenvalue in the overlap matrix is 1.6736544044E-05.
  Using Symmetric Orthogonalization.

  SCF Guess: Superposition of Atomic Densities via on-the-fly atomic UHF.

  ==> Iterations <==

                           Total Energy        Delta E     RMS |[F,P]|

   @DF-RKS iter SAD:  -117.44492823415656   -1.17445e+02   0.00000e+00 
   @DF-RKS iter   1:  -117.56997725177723   -1.25049e-01   4.00442e-03 DIIS
   @DF-RKS iter   2:  -117.55916208595015    1.08152e-02   3.97452e-03 DIIS
   @DF-RKS iter   3:  -117.87673286862628   -3.17571e-01   2.46969e-04 DIIS
   @DF-RKS iter   4:  -117.87793175503066   -1.19889e-03   3.08844e-05 DIIS
   @DF-RKS iter   5:  -117.87795742921668   -2.56742e-05   6.13694e-06 DIIS
   @DF-RKS iter   6:  -117.87795850925689   -1.08004e-06   6.55924e-07 DIIS
   @DF-RKS iter   7:  -117.87795853822318   -2.89663e-08   1.86806e-07 DIIS
   @DF-RKS iter   8:  -117.87795853891494   -6.91756e-10   1.26259e-07 DIIS
   @DF-RKS iter   9:  -117.87795853923529   -3.20355e-10   9.01128e-09 DIIS
  Energy and wave function converged.


  ==> Post-Iterations <==

    Orbital Energies [Eh]
    ---------------------

    Doubly Occupied:                                                      

       1Ap   -10.539492     2Ap   -10.538884     3Ap   -10.538874  
       4Ap    -0.944220     5Ap    -0.679013     6Ap    -0.678920  
       1App   -0.565625     7Ap    -0.528201     2App   -0.424459  
       3App   -0.424335     8Ap    -0.351242     9Ap    -0.350846  

    Virtual:                                                              

      10Ap     0.000100     4App    0.011765    11Ap     0.014096  
      12Ap     0.014100     5App    0.041872     6App    0.041879  
      13Ap     0.055414    14Ap     0.061364    15Ap     0.061386  
      16Ap     0.091442    17Ap     0.091461    18Ap     0.096034  
       7App    0.096738    19Ap     0.103488     8App    0.124510  
       9App    0.124543    20Ap     0.135559    21Ap     0.135571  
      10App    0.179791    22Ap     0.180892    23Ap     0.183247  
      11App    0.186117    12App    0.186144    24Ap     0.223561  
      25Ap     0.227098    26Ap     0.227223    27Ap     0.266817  
      28Ap     0.266835    13App    0.268781    14App    0.278712  
      29Ap     0.283703    30Ap     0.283730    15App    0.309975  
      16App    0.309992    17App    0.320278    18App    0.320295  
      31Ap     0.325529    19App    0.338050    32Ap     0.347276  
      33Ap     0.347317    34Ap     0.354101    35Ap     0.354123  
      36Ap     0.357809    37Ap     0.360531    20App    0.394264  
      21App    0.403915    22App    0.404092    38Ap     0.413222  
      39Ap     0.413481    40Ap     0.432108    41Ap     0.435540  
      23App    0.436994    24App    0.437003    42Ap     0.455304  
      43Ap     0.455392    44Ap     0.507981    45Ap     0.508002  
      46Ap     0.527721    25App    0.531199    26App    0.531401  
      27App    0.570556    28App    0.600508    47Ap     0.624312  
      48Ap     0.624379    29App    0.662533    30App    0.662662  
      31App    0.700915    49Ap     0.741079    50Ap     0.741204  
      51Ap     0.742746    52Ap     0.745413    32App    0.781943  
      33App    0.782053    53Ap     0.808620    54Ap     0.808700  
      55Ap     0.809356    56Ap     0.812931    57Ap     0.832792  
      58Ap     0.832886    34App    0.857263    35App    0.857439  
      36App    0.866363    59Ap     0.883059    60Ap     0.883163  
      37App    0.909606    38App    0.920841    61Ap     0.944359  
      62Ap     0.944466    39App    0.980059    40App    0.980107  
      63Ap     0.994198    41App    0.996968    42App    0.997026  
      64Ap     1.007851    65Ap     1.038727    66Ap     1.038757  
      67Ap     1.056830    68Ap     1.112415    69Ap     1.112448  
      43App    1.122600    44App    1.122712    70Ap     1.139953  
      45App    1.175344    46App    1.175355    47App    1.222326  
      48App    1.236699    49App    1.236921    50App    1.239779  
      71Ap     1.256639    72Ap     1.256772    51App    1.259119  
      73Ap     1.289167    74Ap     1.377889    75Ap     1.377951  
      76Ap     1.385859    77Ap     1.385937    52App    1.403641  
      78Ap     1.406797    53App    1.423834    54App    1.423991  
      79Ap     1.475075    80Ap     1.475118    81Ap     1.492903  
      55App    1.504247    56App    1.536035    82Ap     1.561567  
      83Ap     1.576117    84Ap     1.576149    57App    1.652285  
      58App    1.652399    59App    1.673176    60App    1.673425  
      85Ap     1.689560    86Ap     1.707260    87Ap     1.723274  
      88Ap     1.723354    61App    1.747548    89Ap     1.764994  
      90Ap     1.765323    62App    1.823405    63App    1.823541  
      91Ap     1.839316    92Ap     1.839383    93Ap     1.840015  
      94Ap     1.884344    64App    1.919124    65App    1.949887  
      95Ap     1.997760    96Ap     1.998096    66App    2.043822  
      67App    2.044321    68App    2.133131    69App    2.133497  
      70App    2.163797    97Ap     2.167179    98Ap     2.167582  
      71App    2.266538    72App    2.266838    99Ap     2.292456  
     100Ap     2.352030   101Ap     2.364682   102Ap     2.365361  
      73App    2.662823   103Ap     2.777548   104Ap     2.869909  
     105Ap     2.869947    74App    3.001218    75App    3.001781  
     106Ap     3.006768   107Ap     3.082146   108Ap     3.082821  
     109Ap     3.091219    76App    3.160911   110Ap     3.235934  
      77App    3.296738   111Ap     3.310324   112Ap     3.310530  
      78App    3.320016    79App    3.320144   113Ap     3.323741  
     114Ap     3.323925   115Ap     3.349313    80App    3.401036  
      81App    3.401321    82App    3.412880   116Ap     3.500361  
     117Ap     3.501571   118Ap     3.501833    83App    3.555989  
      84App    3.556371    85App    3.578503   119Ap     3.611051  
      86App    3.661797   120Ap     3.674878   121Ap     3.675230  
      87App    3.711536    88App    3.711996   122Ap     3.761834  
     123Ap     3.762461    89App    3.788942    90App    3.789432  
      91App    3.842659   124Ap     3.846180   125Ap     3.931195  
     126Ap     3.955257   127Ap     3.955372   128Ap     3.999476  
      92App    3.999623    93App    3.999717   129Ap     3.999965  
      94App    4.037910    95App    4.119697    96App    4.120406  
     130Ap     4.159175   131Ap     4.285963   132Ap     4.364356  
     133Ap     4.364626    97App    4.429866    98App    4.430146  
     134Ap     4.474597   135Ap     4.475139   136Ap     4.478949  
      99App    4.500710   100App    4.501426   137Ap     4.522639  
     138Ap     4.522972   101App    4.599193   139Ap     4.607635  
     140Ap     4.607859   102App    4.776723   103App    4.781155  
     141Ap     4.781488   142Ap     4.781639   143Ap     4.832728  
     144Ap     4.889638   104App    4.968599   105App    4.968808  
     145Ap     5.022789   146Ap     5.023817   106App    5.109578  
     107App    5.109792   108App    5.156177   147Ap     5.205114  
     148Ap     5.257652   149Ap     5.258414   150Ap     5.258960  
     109App    5.268129   110App    5.314330   111App    5.456496  
     112App    5.457261   151Ap     5.519718   152Ap     5.644448  
     153Ap     5.815238   154Ap     5.816290   155Ap     5.933586  
     156Ap     5.934866   113App    6.018621   114App    6.046969  
     115App    6.048839   116App    6.303086   117App    6.303933  
     157Ap    15.770869   158Ap    16.300522   159Ap    16.303501  

    Final Occupation by Irrep:
             Ap   App 
    DOCC [     9,    3 ]

  @DF-RKS Final Energy:  -117.87795853923529

   => Energetics <=

    Nuclear Repulsion Energy =             75.2866593043809615
    One-Electron Energy =                -305.8797802054259023
    Two-Electron Energy =                 121.6241182691273224
    DFT Exchange-Correlation Energy =      -8.9089559073176883
    Empirical Dispersion Energy =           0.0000000000000000
    VV10 Nonlocal Energy =                  0.0000000000000000
    Total Energy =                       -117.8779585392352942

Computation Completed


Properties will be evaluated at   0.000000,   0.000000,   0.000000 [a0]

Properties computed using the SCF density matrix

  Nuclear Dipole Moment: [e a0]
     X:     0.0015      Y:    -0.0002      Z:     0.0000

  Electronic Dipole Moment: [e a0]
     X:    -0.0016      Y:     0.0003      Z:     0.0000

  Dipole Moment: [e a0]
     X:    -0.0001      Y:     0.0002      Z:     0.0000     Total:     0.0002

  Dipole Moment: [D]
     X:    -0.0002      Y:     0.0004      Z:     0.0000     Total:     0.0004


*** tstop() called on atlantis at Tue Apr 19 10:44:40 2022
Module time:
	user time   =      60.99 seconds =       1.02 minutes
	system time =       0.13 seconds =       0.00 minutes
	total time  =         61 seconds =       1.02 minutes
Total time:
	user time   =     269.64 seconds =       4.49 minutes
	system time =       0.90 seconds =       0.02 minutes
	total time  =        270 seconds =       4.50 minutes

*** tstart() called on atlantis
*** at Tue Apr 19 10:44:40 2022


         ------------------------------------------------------------
                                   SCF GRAD                          
                          Rob Parrish, Justin Turney,                
                       Andy Simmonett, and Alex Sokolov              
         ------------------------------------------------------------

  ==> Geometry <==

    Molecular point group: cs
    Full point group: Cs

    Geometry (in Angstrom), charge = 0, multiplicity = 1:

       Center              X                  Y                   Z               Mass       
    ------------   -----------------  -----------------  -----------------  -----------------
         C            0.320981935461     0.813179232929     0.000000000000    12.000000000000
         C           -0.864778117207    -0.127947314912     0.000000000000    12.000000000000
         C            0.543659460418    -0.685217540638     0.000000000000    12.000000000000
         H            0.538602639069     1.360553886373    -0.920390000000     1.007825032230
         H            0.538602639069     1.360553886373     0.920390000000     1.007825032230
         H           -1.447170192407    -0.214118381478     0.920340000000     1.007825032230
         H           -1.447170192407    -0.214118381478    -0.920340000000     1.007825032230
         H            0.909381512053    -1.146521099385    -0.920370000000     1.007825032230
         H            0.909381512053    -1.146521099385     0.920370000000     1.007825032230

  Nuclear repulsion =   75.286659304380962

  ==> Basis Set <==

  Basis Set: AUG-CC-PVTZ
    Blend: AUG-CC-PVTZ
    Number of shells: 96
    Number of basis function: 276
    Number of Cartesian functions: 315
    Spherical Harmonics?: true
    Max angular momentum: 3

  ==> DFJKGrad: Density-Fitted SCF Gradients <==

    Gradient:                    1
    J tasked:                  Yes
    K tasked:                  Yes
    wK tasked:                  No
    OpenMP threads:              1
    Integrals threads:           1
    Memory [MiB]:              375
    Schwarz Cutoff:          0E+00
    Fitting Condition:       1E-10

   => Auxiliary Basis Set <=

  Basis Set: (AUG-CC-PVTZ AUX)
    Blend: AUG-CC-PVTZ-JKFIT
    Number of shells: 174
    Number of basis function: 588
    Number of Cartesian functions: 723
    Spherical Harmonics?: true
    Max angular momentum: 4

  ==> DFT Potential <==

   => Composite Functional: M06-2X <= 

    Hybrid M06-2X Meta-GGA XC Functional

    Y. Zhao and D. G. Truhlar,  Theor. Chem. Acc., 120, 215, 2008


    Deriv               =              1
    GGA                 =           TRUE
    Meta                =           TRUE

    Exchange Hybrid     =           TRUE
    MP2 Hybrid          =          FALSE

   => Exchange Functionals <=

    1.0000   XC_HYB_MGGA_X_M06_2X

   => Exact (HF) Exchange <=

    0.5400               HF 

   => Correlation Functionals <=

    1.0000   XC_MGGA_C_M06_2X

   => Molecular Quadrature <=

    Radial Scheme          =       TREUTLER
    Pruning Scheme         =           FLAT
    Nuclear Scheme         =       TREUTLER

    BS radius alpha        =              1
    Pruning alpha          =              1
    Radial Points          =             75
    Spherical Points       =            302
    Total Points           =         203850
    Total Blocks           =           1568
    Max Points             =            256
    Max Functions          =            276


  -Total Gradient:
     Atom            X                  Y                   Z
    ------   -----------------  -----------------  -----------------
       1        0.001206204003     0.004144341916     0.000000000000
       2       -0.004361236525    -0.000528713522     0.000000000000
       3        0.003014920968    -0.003657751735     0.000000000000
       4        0.001908627145     0.004612318843    -0.007557722624
       5        0.001908627145     0.004612318843     0.007557722624
       6       -0.004804183718    -0.000693746847     0.007469193364
       7       -0.004804183718    -0.000693746847    -0.007469193364
       8        0.003050512658    -0.003830686428    -0.007462773078
       9        0.003050512658    -0.003830686428     0.007462773078


*** tstop() called on atlantis at Tue Apr 19 10:44:53 2022
Module time:
	user time   =      12.38 seconds =       0.21 minutes
	system time =       0.15 seconds =       0.00 minutes
	total time  =         13 seconds =       0.22 minutes
Total time:
	user time   =     282.02 seconds =       4.70 minutes
	system time =       1.05 seconds =       0.02 minutes
	total time  =        283 seconds =       4.72 minutes

  //>>>>>>>>>>>>>>>>>>>>>>>>>>>>>>>>>>>//
  //    Loading displacement 3 of 34   //
  //<<<<<<<<<<<<<<<<<<<<<<<<<<<<<<<<<<<//
gradient() will perform analytic gradient computation.

*** tstart() called on atlantis
*** at Tue Apr 19 10:44:53 2022

   => Loading Basis Set <=

    Name: AUG-CC-PVTZ
    Role: ORBITAL
    Keyword: BASIS
    atoms 1-3 entry C          line   235 file /home/akrom/software/anaconda3/envs/ffpenv/share/psi4/basis/aug-cc-pvtz.gbs 
    atoms 4-9 entry H          line    36 file /home/akrom/software/anaconda3/envs/ffpenv/share/psi4/basis/aug-cc-pvtz.gbs 


         ---------------------------------------------------------
                                   SCF
               by Justin Turney, Rob Parrish, Andy Simmonett
                          and Daniel G. A. Smith
                              RKS Reference
                        1 Threads,    500 MiB Core
         ---------------------------------------------------------

  ==> Geometry <==

    Molecular point group: cs
    Full point group: Cs

    Geometry (in Angstrom), charge = 0, multiplicity = 1:

       Center              X                  Y                   Z               Mass       
    ------------   -----------------  -----------------  -----------------  -----------------
         C            0.322081944250     0.813343688021     0.000000000000    12.000000000000
         C           -0.865318003082    -0.128389764139     0.000000000000    12.000000000000
         C            0.543404419293    -0.684939538412     0.000000000000    12.000000000000
         H            0.537301240642     1.360829034576    -0.920390000000     1.007825032230
         H            0.537301240642     1.360829034576     0.920390000000     1.007825032230
         H           -1.447665927882    -0.214858697572     0.920340000000     1.007825032230
         H           -1.447665927882    -0.214858697572    -0.920340000000     1.007825032230
         H            0.909362367658    -1.146055979665    -0.920370000000     1.007825032230
         H            0.909362367658    -1.146055979665     0.920370000000     1.007825032230

  Running in cs symmetry.

  Rotational constants: A =      0.66489  B =      0.66431  C =      0.41639 [cm^-1]
  Rotational constants: A =  19932.94970  B =  19915.53021  C =  12482.92073 [MHz]
  Nuclear repulsion =   75.276267816162189

  Charge       = 0
  Multiplicity = 1
  Electrons    = 24
  Nalpha       = 12
  Nbeta        = 12

  ==> Algorithm <==

  SCF Algorithm Type is DF.
  DIIS enabled.
  MOM disabled.
  Fractional occupation disabled.
  Guess Type is SAD.
  Energy threshold   = 1.00e-08
  Density threshold  = 1.00e-08
  Integral threshold = 0.00e+00

  ==> Primary Basis <==

  Basis Set: AUG-CC-PVTZ
    Blend: AUG-CC-PVTZ
    Number of shells: 96
    Number of basis function: 276
    Number of Cartesian functions: 315
    Spherical Harmonics?: true
    Max angular momentum: 3

  ==> DFT Potential <==

   => Composite Functional: M06-2X <= 

    Hybrid M06-2X Meta-GGA XC Functional

    Y. Zhao and D. G. Truhlar,  Theor. Chem. Acc., 120, 215, 2008


    Deriv               =              1
    GGA                 =           TRUE
    Meta                =           TRUE

    Exchange Hybrid     =           TRUE
    MP2 Hybrid          =          FALSE

   => Exchange Functionals <=

    1.0000   XC_HYB_MGGA_X_M06_2X

   => Exact (HF) Exchange <=

    0.5400               HF 

   => Correlation Functionals <=

    1.0000   XC_MGGA_C_M06_2X

   => Molecular Quadrature <=

    Radial Scheme          =       TREUTLER
    Pruning Scheme         =           FLAT
    Nuclear Scheme         =       TREUTLER

    BS radius alpha        =              1
    Pruning alpha          =              1
    Radial Points          =             75
    Spherical Points       =            302
    Total Points           =         203850
[...]

    Exchange Hybrid     =           TRUE
    MP2 Hybrid          =          FALSE

   => Exchange Functionals <=

    1.0000   XC_HYB_MGGA_X_M06_2X

   => Exact (HF) Exchange <=

    0.5400               HF 

   => Correlation Functionals <=

    1.0000   XC_MGGA_C_M06_2X

   => Molecular Quadrature <=

    Radial Scheme          =       TREUTLER
    Pruning Scheme         =           FLAT
    Nuclear Scheme         =       TREUTLER

    BS radius alpha        =              1
    Pruning alpha          =              1
    Radial Points          =             75
    Spherical Points       =            302
    Total Points           =         203850
    Total Blocks           =           1569
    Max Points             =            256
    Max Functions          =            276


  -Total Gradient:
     Atom            X                  Y                   Z
    ------   -----------------  -----------------  -----------------
       1        0.001753987638     0.004415703646     0.000005812859
       2       -0.004652827554    -0.000652468813     0.000433351220
       3        0.002997116476    -0.003730242728    -0.001205647708
       4        0.001809324516     0.004549788181    -0.007474712612
       5        0.001812852845     0.004562698818     0.007472077080
       6       -0.004676721613    -0.000708772693     0.007185971164
       7       -0.005014956071    -0.000715502362    -0.007732115767
       8        0.002711114958    -0.003498894824    -0.006783826299
       9        0.003420719419    -0.004195554871     0.008098073155


*** tstop() called on atlantis at Tue Apr 19 11:25:05 2022
Module time:
	user time   =      12.27 seconds =       0.20 minutes
	system time =       0.15 seconds =       0.00 minutes
	total time  =         13 seconds =       0.22 minutes
Total time:
	user time   =    2683.01 seconds =      44.72 minutes
	system time =      10.15 seconds =       0.17 minutes
	total time  =       2695 seconds =      44.92 minutes

         ----------------------------------------------------------
                                   FINDIF
                     R. A. King and Jonathon Misiewicz
         ---------------------------------------------------------

  Computing second-derivative from gradients using projected, 
  symmetry-adapted, cartesian coordinates.

  34 gradients passed in, including the reference geometry.
  Generating complete list of displacements from unique ones.

    Operation 2 takes plus displacements of irrep A" to minus ones.

-------------------------------------------------------------


  ==> Harmonic Vibrational Analysis <==

  non-mass-weighted Hessian:       Symmetric? True   Hermitian? True   Lin Dep Dim?  6 (0)
  projection of translations (True) and rotations (True) removed 6 degrees of freedom (6)
  total projector:                 Symmetric? True   Hermitian? True   Lin Dep Dim?  6 (6)
  mass-weighted Hessian:           Symmetric? True   Hermitian? True   Lin Dep Dim?  6 (0)
  pre-proj  low-frequency mode:    0.0000i [cm^-1]
  pre-proj  low-frequency mode:    0.0000i [cm^-1]
  pre-proj  low-frequency mode:    0.0000i [cm^-1]
  pre-proj  low-frequency mode:    0.0000  [cm^-1]
  pre-proj  low-frequency mode:    0.0000  [cm^-1]
  pre-proj  low-frequency mode:    0.0000  [cm^-1]
  pre-proj  all modes:['0.0000i' '0.0000i' '0.0000i' '0.0000' '0.0000' '0.0000' '797.3039'
 '801.6298' '885.0145' '891.3343' '904.8785' '1077.4977' '1085.1335'
 '1120.6113' '1181.1377' '1195.7688' '1225.1781' '1226.6361' '1482.1349'
 '1490.8043' '1533.9780' '3053.5554' '3057.7331' '3061.2927' '3129.7117'
 '3129.8265' '3148.5268']
  projected mass-weighted Hessian: Symmetric? True   Hermitian? True   Lin Dep Dim?  6 (6)
  post-proj low-frequency mode:    0.0000i [cm^-1] (TR)
  post-proj low-frequency mode:    0.0000i [cm^-1] (TR)
  post-proj low-frequency mode:    0.0000i [cm^-1] (TR)
  post-proj low-frequency mode:    0.0000  [cm^-1] (TR)
  post-proj low-frequency mode:    0.0000  [cm^-1] (TR)
  post-proj low-frequency mode:    0.0000  [cm^-1] (TR)
  post-proj  all modes:['0.0000i' '0.0000i' '0.0000i' '0.0000' '0.0000' '0.0000' '797.3039'
 '801.6298' '885.0145' '891.3343' '904.8785' '1077.4977' '1085.1335'
 '1120.6113' '1181.1377' '1195.7688' '1225.1781' '1226.6361' '1482.1349'
 '1490.8043' '1533.9780' '3053.5554' '3057.7331' '3061.2927' '3129.7117'
 '3129.8265' '3148.5268']

  Vibration                       7                   8                   9           
  Freq [cm^-1]                 797.3039            801.6298            885.0145       
  Irrep                          App                 App                  Ap          
  Reduced mass [u]              1.0216              1.0222              3.6711        
  Force const [mDyne/A]         0.3826              0.3870              1.6941        
  Turning point v=0 [a0]        0.3845              0.3833              0.1925        
  RMS dev v=0 [a0 u^1/2]        0.2748              0.2740              0.2608        
  Char temp [K]               1147.1428           1153.3668           1273.3389       
  ----------------------------------------------------------------------------------
      1   C                0.00  0.00 -0.01    0.00 -0.00  0.03   -0.11  0.26  0.00   
      2   C                0.00 -0.00 -0.02   -0.00 -0.00 -0.02    0.30 -0.02  0.00   
      3   C               -0.00 -0.00  0.03   -0.00  0.00 -0.01   -0.14 -0.23  0.00   
      4   H                0.43 -0.09  0.04   -0.03 -0.33 -0.18   -0.22  0.27 -0.02   
      5   H               -0.43  0.09  0.04    0.03  0.33 -0.18   -0.22  0.27  0.02   
      6   H                0.20  0.33  0.14    0.26 -0.29  0.12    0.25 -0.05 -0.03   
      7   H               -0.20 -0.33  0.14   -0.26  0.29  0.12    0.25 -0.05  0.03   
      8   H               -0.08  0.32 -0.17    0.39  0.18  0.06   -0.29 -0.32 -0.01   
      9   H                0.08 -0.32 -0.17   -0.39 -0.18  0.06   -0.29 -0.32  0.01   

  Vibration                       10                  11                  12          
  Freq [cm^-1]                 891.3343            904.8785           1077.4977       
  Irrep                           Ap                 App                  Ap          
  Reduced mass [u]              4.1593              1.0439              1.2721        
  Force const [mDyne/A]         1.9469              0.5036              0.8701        
  Turning point v=0 [a0]        0.1802              0.3570              0.2964        
  RMS dev v=0 [a0 u^1/2]        0.2599              0.2579              0.2364        
  Char temp [K]               1282.4316           1301.9186           1550.2793       
  ----------------------------------------------------------------------------------
      1   C               -0.28 -0.15 -0.00   -0.00  0.00 -0.03   -0.05  0.05  0.00   
      2   C                0.03  0.29 -0.00    0.00 -0.00 -0.03    0.02 -0.03  0.00   
      3   C                0.27 -0.16 -0.00   -0.00 -0.00 -0.03   -0.08 -0.10  0.00   
      4   H               -0.33 -0.12  0.01    0.12  0.33  0.20    0.28 -0.08 -0.00   
      5   H               -0.33 -0.12 -0.01   -0.12 -0.33  0.20    0.28 -0.08  0.00   
      6   H                0.01  0.41 -0.00    0.35  0.05  0.19   -0.06  0.21 -0.02   
      7   H                0.01  0.41  0.00   -0.35 -0.05  0.19   -0.06  0.21  0.02   
      8   H                0.19 -0.18 -0.03    0.23 -0.28  0.20    0.49  0.33  0.01   
      9   H                0.19 -0.18  0.03   -0.23  0.28  0.20    0.49  0.33 -0.01   

  Vibration                       13                  14                  15          
  Freq [cm^-1]                1085.1335           1120.6113           1181.1377       
  Irrep                           Ap                  Ap                 App          
  Reduced mass [u]              1.2725              1.3887              1.0084        
  Force const [mDyne/A]         0.8828              1.0275              0.8289        
  Turning point v=0 [a0]        0.2953              0.2782              0.3179        
  RMS dev v=0 [a0 u^1/2]        0.2355              0.2318              0.2258        
  Char temp [K]               1561.2655           1612.3102           1699.3942       
  ----------------------------------------------------------------------------------
      1   C                0.04 -0.03 -0.00   -0.14  0.02 -0.00    0.00  0.00  0.00   
      2   C                0.03 -0.14  0.00    0.04 -0.06 -0.00   -0.00 -0.00 -0.01   
      3   C               -0.01  0.05  0.00    0.05  0.08  0.00    0.00 -0.00  0.00   
      4   H               -0.27  0.06 -0.02    0.53 -0.27 -0.01   -0.39  0.14 -0.00   
      5   H               -0.27  0.06  0.02    0.53 -0.27  0.01    0.39 -0.14 -0.00   
      6   H               -0.04  0.64  0.02    0.04  0.15  0.01   -0.05  0.41  0.00   
      7   H               -0.04  0.64 -0.02    0.04  0.15 -0.01    0.05 -0.41  0.00   
      8   H               -0.06 -0.02  0.01   -0.30 -0.13 -0.02    0.31  0.25 -0.00   
      9   H               -0.06 -0.02 -0.01   -0.30 -0.13  0.02   -0.31 -0.25 -0.00   

  Vibration                       16                  17                  18          
  Freq [cm^-1]                1195.7688           1225.1781           1226.6361       
  Irrep                           Ap                 App                 App          
  Reduced mass [u]              2.6539              1.4458              1.4487        
  Force const [mDyne/A]         2.2358              1.2786              1.2843        
  Turning point v=0 [a0]        0.1948              0.2607              0.2603        
  RMS dev v=0 [a0 u^1/2]        0.2244              0.2217              0.2215        
  Char temp [K]               1720.4450           1762.7585           1764.8562       
  ----------------------------------------------------------------------------------
      1   C               -0.06 -0.21  0.00   -0.00 -0.00 -0.12    0.00 -0.00 -0.11   
      2   C                0.22  0.07 -0.00    0.00  0.00  0.15    0.00  0.00 -0.05   
      3   C               -0.18  0.14 -0.00   -0.00  0.00 -0.03   -0.00  0.00  0.16   
      4   H               -0.19 -0.30 -0.06    0.34  0.19  0.06   -0.17  0.35  0.05   
      5   H               -0.19 -0.30  0.06   -0.34 -0.19  0.06    0.17 -0.35  0.05   
      6   H                0.35 -0.10  0.04   -0.36 -0.15 -0.08    0.18 -0.35  0.03   
      7   H                0.35 -0.10 -0.04    0.36  0.15 -0.08   -0.18  0.35  0.03   
      8   H               -0.05  0.40 -0.05    0.37  0.19  0.02   -0.18  0.36 -0.08   
      9   H               -0.05  0.40  0.05   -0.37 -0.19  0.02    0.18 -0.36 -0.08   

  Vibration                       19                  20                  21          
  Freq [cm^-1]                1482.1349           1490.8043           1533.9780       
  Irrep                           Ap                  Ap                  Ap          
  Reduced mass [u]              1.0956              1.0902              1.2971        
  Force const [mDyne/A]         1.4180              1.4276              1.7983        
  Turning point v=0 [a0]        0.2723              0.2722              0.2460        
  RMS dev v=0 [a0 u^1/2]        0.2015              0.2009              0.1981        
  Char temp [K]               2132.4622           2144.9355           2207.0528       
  ----------------------------------------------------------------------------------
      1   C               -0.03 -0.07 -0.00   -0.01  0.01  0.00   -0.03 -0.08 -0.00   
      2   C               -0.03 -0.01 -0.00   -0.06  0.00  0.00    0.10  0.01 -0.00   
      3   C                0.01 -0.03  0.00   -0.04  0.05  0.00   -0.05  0.08  0.00   
      4   H                0.17  0.45  0.34    0.01 -0.04 -0.02    0.11  0.26  0.23   
      5   H                0.17  0.45 -0.34    0.01 -0.04  0.02    0.11  0.26 -0.23   
      6   H                0.24  0.05  0.17    0.39  0.03  0.27   -0.33 -0.04 -0.27   
      7   H                0.24  0.05 -0.17    0.39  0.03 -0.27   -0.33 -0.04  0.27   
      8   H               -0.11  0.16 -0.13    0.26 -0.33  0.30    0.18 -0.27  0.26   
      9   H               -0.11  0.16  0.13    0.26 -0.33 -0.30    0.18 -0.27 -0.26   

  Vibration                       22                  23                  24          
  Freq [cm^-1]                3053.5554           3057.7331           3061.2927       
  Irrep                           Ap                  Ap                  Ap          
  Reduced mass [u]              1.0497              1.0509              1.0625        
  Force const [mDyne/A]         5.7670              5.7889              5.8668        
  Turning point v=0 [a0]        0.1938              0.1936              0.1924        
  RMS dev v=0 [a0 u^1/2]        0.1404              0.1403              0.1402        
  Char temp [K]               4393.3864           4399.3971           4404.5186       
  ----------------------------------------------------------------------------------
      1   C                0.01  0.03  0.00    0.02  0.04  0.00    0.01  0.03  0.00   
      2   C                0.05  0.01  0.00   -0.01 -0.00  0.00   -0.04 -0.01 -0.00   
      3   C                0.02 -0.02 -0.00   -0.03  0.03 -0.00    0.03 -0.04 -0.00   
      4   H               -0.07 -0.17  0.30   -0.10 -0.25  0.45   -0.06 -0.15  0.27   
      5   H               -0.07 -0.17 -0.30   -0.10 -0.25 -0.45   -0.06 -0.15 -0.27   
      6   H               -0.28 -0.04  0.46    0.05  0.01 -0.09    0.22  0.03 -0.38   
      7   H               -0.28 -0.04 -0.46    0.05  0.01  0.09    0.22  0.03  0.38   
      8   H               -0.09  0.11  0.24    0.15 -0.19 -0.39   -0.14  0.18  0.39   
      9   H               -0.09  0.11 -0.24    0.15 -0.19  0.39   -0.14  0.18 -0.39   

  Vibration                       25                  26                  27          
  Freq [cm^-1]                3129.7117           3129.8265           3148.5268       
  Irrep                          App                 App                 App          
  Reduced mass [u]              1.1212              1.1212              1.1163        
  Force const [mDyne/A]         6.4706              6.4711              6.5198        
  Turning point v=0 [a0]        0.1852              0.1852              0.1851        
  RMS dev v=0 [a0 u^1/2]        0.1387              0.1387              0.1383        
  Char temp [K]               4502.9583           4503.1235           4530.0290       
  ----------------------------------------------------------------------------------
      1   C                0.00  0.00 -0.08   -0.00  0.00  0.03   -0.00 -0.00 -0.06   
      2   C               -0.00 -0.00  0.01    0.00  0.00 -0.08    0.00 -0.00 -0.06   
      3   C                0.00 -0.00  0.06   -0.00  0.00  0.05   -0.00  0.00 -0.06   
      4   H               -0.11 -0.26  0.45    0.04  0.10 -0.17   -0.08 -0.21  0.34   
      5   H                0.11  0.26  0.45   -0.04 -0.10 -0.17    0.08  0.21  0.34   
      6   H                0.05  0.00 -0.08   -0.30 -0.05  0.48   -0.22 -0.03  0.34   
      7   H               -0.05 -0.00 -0.08    0.30  0.05  0.48    0.22  0.03  0.34   
      8   H                0.15 -0.19 -0.38    0.12 -0.15 -0.30   -0.14  0.17  0.34   
      9   H               -0.15  0.19 -0.38   -0.12  0.15 -0.30    0.14 -0.17  0.34   

  ==> Thermochemistry Components <==

  Entropy, S
    Electronic S            0.000 [cal/(mol K)]        0.000 [J/(mol K)]       0.00000000 [mEh/K] (multiplicity = 1)
    Translational S        37.135 [cal/(mol K)]      155.375 [J/(mol K)]       0.05917914 [mEh/K] (mol. weight = 42.0470 [u], P = 101325.00 [Pa])
    Rotational S           21.699 [cal/(mol K)]       90.789 [J/(mol K)]       0.03457982 [mEh/K] (symmetry no. = 1)
    Vibrational S           1.233 [cal/(mol K)]        5.160 [J/(mol K)]       0.00196541 [mEh/K]
  Total S                  60.068 [cal/(mol K)]      251.324 [J/(mol K)]       0.09572437 [mEh/K]
  Correction S              0.000 [cal/(mol K)]        0.000 [J/(mol K)]       0.00000000 [mEh/K]

  Constant volume heat capacity, Cv
    Electronic Cv           0.000 [cal/(mol K)]        0.000 [J/(mol K)]       0.00000000 [mEh/K]
    Translational Cv        2.981 [cal/(mol K)]       12.472 [J/(mol K)]       0.00475022 [mEh/K]
    Rotational Cv           2.981 [cal/(mol K)]       12.472 [J/(mol K)]       0.00475022 [mEh/K]
    Vibrational Cv          4.712 [cal/(mol K)]       19.714 [J/(mol K)]       0.00750857 [mEh/K]
  Total Cv                 10.673 [cal/(mol K)]       44.657 [J/(mol K)]       0.01700900 [mEh/K]
  Correction Cv             0.000 [cal/(mol K)]        0.000 [J/(mol K)]       0.00000000 [mEh/K]

  Constant pressure heat capacity, Cp
    Electronic Cp           0.000 [cal/(mol K)]        0.000 [J/(mol K)]       0.00000000 [mEh/K]
    Translational Cp        4.968 [cal/(mol K)]       20.786 [J/(mol K)]       0.00791703 [mEh/K]
    Rotational Cp           2.981 [cal/(mol K)]       12.472 [J/(mol K)]       0.00475022 [mEh/K]
    Vibrational Cp          4.712 [cal/(mol K)]       19.714 [J/(mol K)]       0.00750857 [mEh/K]
  Total Cp                 12.661 [cal/(mol K)]       52.972 [J/(mol K)]       0.02017581 [mEh/K]
  Correction Cp             0.000 [cal/(mol K)]        0.000 [J/(mol K)]       0.00000000 [mEh/K]

  ==> Thermochemistry Energy Analysis <==

  Raw electronic energy, E0
  Total E0, Electronic energy at well bottom at 0 [K]                 -117.87794767 [Eh]

  Zero-point energy, ZPE_vib = Sum_i nu_i / 2
    Electronic ZPE          0.000 [kcal/mol]        0.000 [kJ/mol]       0.00000000 [Eh]
    Translational ZPE       0.000 [kcal/mol]        0.000 [kJ/mol]       0.00000000 [Eh]
    Rotational ZPE          0.000 [kcal/mol]        0.000 [kJ/mol]       0.00000000 [Eh]
    Vibrational ZPE        50.721 [kcal/mol]      212.216 [kJ/mol]       0.08082868 [Eh]       17739.844 [cm^-1]
  Correction ZPE           50.721 [kcal/mol]      212.216 [kJ/mol]       0.08082868 [Eh]       17739.844 [cm^-1]
  Total ZPE, Electronic energy at 0 [K]                               -117.79711900 [Eh]

  Thermal Energy, E (includes ZPE)
    Electronic E            0.000 [kcal/mol]        0.000 [kJ/mol]       0.00000000 [Eh]
    Translational E         0.889 [kcal/mol]        3.718 [kJ/mol]       0.00141628 [Eh]
    Rotational E            0.889 [kcal/mol]        3.718 [kJ/mol]       0.00141628 [Eh]
    Vibrational E          51.022 [kcal/mol]      213.475 [kJ/mol]       0.08130840 [Eh]
  Correction E             52.799 [kcal/mol]      220.912 [kJ/mol]       0.08414095 [Eh]
  Total E, Electronic energy at  298.15 [K]                           -117.79380672 [Eh]

  Enthalpy, H_trans = E_trans + k_B * T
    Electronic H            0.000 [kcal/mol]        0.000 [kJ/mol]       0.00000000 [Eh]
    Translational H         1.481 [kcal/mol]        6.197 [kJ/mol]       0.00236046 [Eh]
    Rotational H            0.889 [kcal/mol]        3.718 [kJ/mol]       0.00141628 [Eh]
    Vibrational H          51.022 [kcal/mol]      213.475 [kJ/mol]       0.08130840 [Eh]
  Correction H             53.392 [kcal/mol]      223.391 [kJ/mol]       0.08508514 [Eh]
  Total H, Enthalpy at  298.15 [K]                                    -117.79286253 [Eh]

  Gibbs free energy, G = H - T * S
    Electronic G            0.000 [kcal/mol]        0.000 [kJ/mol]       0.00000000 [Eh]
    Translational G        -9.591 [kcal/mol]      -40.128 [kJ/mol]      -0.01528380 [Eh]
    Rotational G           -5.581 [kcal/mol]      -23.350 [kJ/mol]      -0.00889370 [Eh]
    Vibrational G          50.654 [kcal/mol]      211.937 [kJ/mol]       0.08072241 [Eh]
  Correction G             35.482 [kcal/mol]      148.459 [kJ/mol]       0.05654492 [Eh]
  Total G, Free enthalpy at  298.15 [K]                               -117.82140275 [Eh]

    Psi4 stopped on: Tuesday, 19 April 2022 11:25AM
    Psi4 wall time for execution: 0:44:55.05

*** Psi4 exiting successfully. Buy a developer a beer!
