
    -----------------------------------------------------------------------
          Psi4: An Open-Source Ab Initio Electronic Structure Package
                               Psi4 1.3.2 release

                         Git: Rev {HEAD} ecbda83 


    R. M. Parrish, L. A. Burns, D. G. A. Smith, A. C. Simmonett,
    A. E. DePrince III, E. G. Hohenstein, U. Bozkaya, A. Yu. Sokolov,
    R. Di Remigio, R. M. Richard, J. F. Gonthier, A. M. James,
    H. R. McAlexander, A. Kumar, M. Saitow, X. Wang, B. P. Pritchard,
    P. Verma, H. F. Schaefer III, K. Patkowski, R. A. King, E. F. Valeev,
    F. A. Evangelista, J. M. Turney, T. D. Crawford, and C. D. Sherrill,
    J. Chem. Theory Comput. 13(7) pp 3185--3197 (2017).
    (doi: 10.1021/acs.jctc.7b00174)


                         Additional Contributions by
    P. Kraus, H. Kruse, M. H. Lechner, M. C. Schieber, R. A. Shaw,
    A. Alenaizan, R. Galvelis, Z. L. Glick, S. Lehtola, and J. P. Misiewicz

    -----------------------------------------------------------------------


    Psi4 started on: Tuesday, 19 April 2022 01:47AM

    Process ID: 25831
    Host:       atlantis
    PSIDATADIR: /home/akrom/software/anaconda3/envs/ffpenv/share/psi4
    Memory:     500.0 MiB
    Threads:    1
    
  ==> Input File <==

--------------------------------------------------------------------------
set basis  6-31g
molecule {
0 1
   C       -0.61446        0.00000        0.00000
   C        0.61446        0.00000        0.00000
   H       -1.68923        0.00000        0.00000
   H        1.68923        0.00000        0.00000
}
energy('CCSD')
frequencies('CCSD')
--------------------------------------------------------------------------

*** tstart() called on atlantis
*** at Tue Apr 19 01:47:25 2022

   => Loading Basis Set <=

    Name: 6-31G
    Role: ORBITAL
    Keyword: BASIS
    atoms 1-2 entry C          line    87 file /home/akrom/software/anaconda3/envs/ffpenv/share/psi4/basis/6-31g.gbs 
    atoms 3-4 entry H          line    26 file /home/akrom/software/anaconda3/envs/ffpenv/share/psi4/basis/6-31g.gbs 


         ---------------------------------------------------------
                                   SCF
               by Justin Turney, Rob Parrish, Andy Simmonett
                          and Daniel G. A. Smith
                              RHF Reference
                        1 Threads,    500 MiB Core
         ---------------------------------------------------------

  ==> Geometry <==

    Molecular point group: d2h
    Full point group: D_inf_h

    Geometry (in Angstrom), charge = 0, multiplicity = 1:

       Center              X                  Y                   Z               Mass       
    ------------   -----------------  -----------------  -----------------  -----------------
         C           -0.614460000000    -0.000000000000     0.000000000000    12.000000000000
         C            0.614460000000     0.000000000000     0.000000000000    12.000000000000
         H           -1.689230000000    -0.000000000000     0.000000000000     1.007825032230
         H            1.689230000000     0.000000000000     0.000000000000     1.007825032230

  Running in d2h symmetry.

  Rotational constants: A = ************  B =      1.13802  C =      1.13802 [cm^-1]
  Rotational constants: A = ************  B =  34116.98697  C =  34116.98697 [MHz]
  Nuclear repulsion =   24.323218171379235

  Charge       = 0
  Multiplicity = 1
  Electrons    = 14
  Nalpha       = 7
  Nbeta        = 7

  ==> Algorithm <==

  SCF Algorithm Type is PK.
  DIIS enabled.
  MOM disabled.
  Fractional occupation disabled.
  Guess Type is SAD.
  Energy threshold   = 1.00e-08
  Density threshold  = 1.00e-08
  Integral threshold = 0.00e+00

  ==> Primary Basis <==

  Basis Set: 6-31G
    Blend: 6-31G
    Number of shells: 14
    Number of basis function: 22
    Number of Cartesian functions: 22
    Spherical Harmonics?: false
    Max angular momentum: 1

  ==> Pre-Iterations <==

   -------------------------------------------------------
    Irrep   Nso     Nmo     Nalpha   Nbeta   Ndocc  Nsocc
   -------------------------------------------------------
     Ag         7       7       0       0       0       0
     B1g        2       2       0       0       0       0
     B2g        2       2       0       0       0       0
     B3g        0       0       0       0       0       0
     Au         0       0       0       0       0       0
     B1u        2       2       0       0       0       0
     B2u        2       2       0       0       0       0
     B3u        7       7       0       0       0       0
   -------------------------------------------------------
    Total      22      22       7       7       7       0
   -------------------------------------------------------

  ==> Integral Setup <==

  Using in-core PK algorithm.
   Calculation information:
      Number of atoms:                   4
      Number of AO shells:              14
      Number of primitives:             36
      Number of atomic orbitals:        22
      Number of basis functions:        22

      Integral cutoff                 1.00e-12
      Number of threads:                 1

  Performing in-core PK
  Using 64262 doubles for integral storage.
  We computed 5565 shell quartets total.
  Whereas there are 5565 unique shell quartets.

  ==> DiskJK: Disk-Based J/K Matrices <==

    J tasked:                  Yes
    K tasked:                  Yes
    wK tasked:                  No
    Memory [MiB]:              375
    Schwarz Cutoff:          1E-12

    OpenMP threads:              1

  Minimum eigenvalue in the overlap matrix is 1.3292833189E-03.
  Using Symmetric Orthogonalization.

  SCF Guess: Superposition of Atomic Densities via on-the-fly atomic UHF.

  ==> Iterations <==

                        Total Energy        Delta E     RMS |[F,P]|

   @RHF iter SAD:   -75.92646968854562   -7.59265e+01   0.00000e+00 
   @RHF iter   1:   -76.77053118990163   -8.44062e-01   1.56243e-02 DIIS
   @RHF iter   2:   -76.78836113512332   -1.78299e-02   3.82673e-03 DIIS
   @RHF iter   3:   -76.78940574484130   -1.04461e-03   6.91014e-04 DIIS
   @RHF iter   4:   -76.78946374054776   -5.79957e-05   1.18262e-04 DIIS
   @RHF iter   5:   -76.78946576475568   -2.02421e-06   7.74714e-06 DIIS
   @RHF iter   6:   -76.78946577188751   -7.13183e-09   4.12754e-07 DIIS
   @RHF iter   7:   -76.78946577190075   -1.32445e-11   2.15022e-08 DIIS
   @RHF iter   8:   -76.78946577190072    2.84217e-14   2.92517e-09 DIIS
  Energy and wave function converged.


  ==> Post-Iterations <==

    Orbital Energies [Eh]
    ---------------------

    Doubly Occupied:                                                      

       1Ag   -11.254807     1B3u  -11.251672     2Ag    -1.023516  
       2B3u   -0.756080     3Ag    -0.669533     1B2u   -0.398651  
       1B1u   -0.398651  

    Virtual:                                                              

       1B1g    0.204776     1B2g    0.204776     3B3u    0.242723  
       4Ag     0.291134     4B3u    0.602921     5Ag     0.664745  
       2B2u    0.759966     2B1u    0.759966     2B1g    0.899708  
       2B2g    0.899708     5B3u    0.966080     6Ag     1.052227  
       7Ag     1.283229     6B3u    1.532822     7B3u    1.790863  

    Final Occupation by Irrep:
             Ag   B1g   B2g   B3g    Au   B1u   B2u   B3u 
    DOCC [     3,    0,    0,    0,    0,    1,    1,    2 ]

  @RHF Final Energy:   -76.78946577190072

   => Energetics <=

    Nuclear Repulsion Energy =             24.3232181713792350
    One-Electron Energy =                -150.7195493764171772
    Two-Electron Energy =                  49.6068654331372159
    Total Energy =                        -76.7894657719007228

Computation Completed


Properties will be evaluated at   0.000000,   0.000000,   0.000000 [a0]

Properties computed using the SCF density matrix

  Nuclear Dipole Moment: [e a0]
     X:     0.0000      Y:     0.0000      Z:     0.0000

  Electronic Dipole Moment: [e a0]
     X:     0.0000      Y:     0.0000      Z:     0.0000

  Dipole Moment: [e a0]
     X:     0.0000      Y:     0.0000      Z:     0.0000     Total:     0.0000

  Dipole Moment: [D]
     X:     0.0000      Y:     0.0000      Z:     0.0000     Total:     0.0000


*** tstop() called on atlantis at Tue Apr 19 01:47:25 2022
Module time:
	user time   =       0.28 seconds =       0.00 minutes
	system time =       0.00 seconds =       0.00 minutes
	total time  =          0 seconds =       0.00 minutes
Total time:
	user time   =       0.28 seconds =       0.00 minutes
	system time =       0.00 seconds =       0.00 minutes
	total time  =          0 seconds =       0.00 minutes
 MINTS: Wrapper to libmints.
   by Justin Turney

   Calculation information:
      Number of threads:                 1
      Number of atoms:                   4
      Number of AO shells:              14
      Number of SO shells:               7
      Number of primitives:             36
      Number of atomic orbitals:        22
      Number of basis functions:        22

      Number of irreps:                  8
      Integral cutoff                 0.00e+00
      Number of functions per irrep: [   7    2    2    0    0    2    2    7 ]

 OEINTS: Overlap, kinetic, potential, dipole, and quadrupole integrals
         stored in file 35.

      Computing two-electron integrals...done
      Computed 5695 non-zero two-electron integrals.
        Stored in file 33.


*** tstart() called on atlantis
*** at Tue Apr 19 01:47:25 2022


	Wfn Parameters:
	--------------------
	Wavefunction         = CCSD
	Number of irreps     = 8
	Number of MOs        = 22
	Number of active MOs = 22
	AO-Basis             = NONE
	Semicanonical        = false
	Reference            = RHF
	Print Level          = 1

	IRREP	# MOs	# FZDC	# DOCC	# SOCC	# VIRT	# FZVR
	-----	-----	------	------	------	------	------
	 Ag	   7	    0	    3	    0	    4	    0
	 B1g	   2	    0	    0	    0	    2	    0
	 B2g	   2	    0	    0	    0	    2	    0
	 B3g	   0	    0	    0	    0	    0	    0
	 Au	   0	    0	    0	    0	    0	    0
	 B1u	   2	    0	    1	    0	    1	    0
	 B2u	   2	    0	    1	    0	    1	    0
	 B3u	   7	    0	    2	    0	    5	    0
	Transforming integrals...
	IWL integrals will be deleted.
	(OO|OO)...
	Presorting SO-basis two-electron integrals.
	Sorting File: SO Ints (nn|nn) nbuckets = 1
	Transforming the one-electron integrals and constructing Fock matrices
	Starting first half-transformation.
	Sorting half-transformed integrals.
	First half integral transformation complete.
	Starting second half-transformation.
	Two-electron integral transformation complete.
	(OO|OV)...
	Starting second half-transformation.
	Two-electron integral transformation complete.
	(OO|VV)...
	Starting second half-transformation.
	Two-electron integral transformation complete.
	(OV|OO)...
	Starting first half-transformation.
	Sorting half-transformed integrals.
	First half integral transformation complete.
	Starting second half-transformation.
	Two-electron integral transformation complete.
	(OV|OV)...
	Starting second half-transformation.
	Two-electron integral transformation complete.
	(OV|VV)...
	Starting second half-transformation.
	Two-electron integral transformation complete.
	(VV|OO)...
	Starting first half-transformation.
	Sorting half-transformed integrals.
	First half integral transformation complete.
	Starting second half-transformation.
	Two-electron integral transformation complete.
	(VV|OV)...
	Starting second half-transformation.
	Two-electron integral transformation complete.
	(VV|VV)...
	Starting second half-transformation.
	Two-electron integral transformation complete.
	Frozen core energy     =      0.00000000000000

	Size of irrep 0 of <ab|cd> integrals:      0.003 (MW) /      0.021 (MB)
	Size of irrep 1 of <ab|cd> integrals:      0.001 (MW) /      0.005 (MB)
	Size of irrep 2 of <ab|cd> integrals:      0.001 (MW) /      0.005 (MB)
	Size of irrep 3 of <ab|cd> integrals:      0.000 (MW) /      0.001 (MB)
	Size of irrep 4 of <ab|cd> integrals:      0.000 (MW) /      0.001 (MB)
	Size of irrep 5 of <ab|cd> integrals:      0.001 (MW) /      0.006 (MB)
	Size of irrep 6 of <ab|cd> integrals:      0.001 (MW) /      0.006 (MB)
	Size of irrep 7 of <ab|cd> integrals:      0.002 (MW) /      0.018 (MB)
	Total:                                     0.008 (MW) /      0.064 (MB)

	Size of irrep 0 of <ia|bc> integrals:      0.001 (MW) /      0.010 (MB)
	Size of irrep 1 of <ia|bc> integrals:      0.000 (MW) /      0.003 (MB)
	Size of irrep 2 of <ia|bc> integrals:      0.000 (MW) /      0.003 (MB)
	Size of irrep 3 of <ia|bc> integrals:      0.000 (MW) /      0.000 (MB)
	Size of irrep 4 of <ia|bc> integrals:      0.000 (MW) /      0.000 (MB)
	Size of irrep 5 of <ia|bc> integrals:      0.000 (MW) /      0.002 (MB)
	Size of irrep 6 of <ia|bc> integrals:      0.000 (MW) /      0.002 (MB)
	Size of irrep 7 of <ia|bc> integrals:      0.001 (MW) /      0.010 (MB)
	Total:                                     0.004 (MW) /      0.031 (MB)

	Size of irrep 0 of tijab amplitudes:       0.001 (MW) /      0.006 (MB)
	Size of irrep 1 of tijab amplitudes:       0.000 (MW) /      0.001 (MB)
	Size of irrep 2 of tijab amplitudes:       0.000 (MW) /      0.001 (MB)
	Size of irrep 3 of tijab amplitudes:       0.000 (MW) /      0.000 (MB)
	Size of irrep 4 of tijab amplitudes:       0.000 (MW) /      0.000 (MB)
	Size of irrep 5 of tijab amplitudes:       0.000 (MW) /      0.001 (MB)
	Size of irrep 6 of tijab amplitudes:       0.000 (MW) /      0.001 (MB)
	Size of irrep 7 of tijab amplitudes:       0.001 (MW) /      0.005 (MB)
	Total:                                     0.002 (MW) /      0.015 (MB)

	Nuclear Rep. energy          =     24.32321817137924
	SCF energy                   =    -76.78946577190072
	One-electron energy          =   -150.71954942689672
	Two-electron energy          =     49.60686548361677
	Reference energy             =    -76.78946577190072

*** tstop() called on atlantis at Tue Apr 19 01:47:26 2022
Module time:
	user time   =       0.01 seconds =       0.00 minutes
	system time =       0.00 seconds =       0.00 minutes
	total time  =          1 seconds =       0.02 minutes
Total time:
	user time   =       0.30 seconds =       0.01 minutes
	system time =       0.01 seconds =       0.00 minutes
	total time  =          1 seconds =       0.02 minutes
            **************************
            *                        *
            *        CCENERGY        *
            *                        *
            **************************

    Nuclear Rep. energy (wfn)     =   24.323218171379235
    SCF energy          (wfn)     =  -76.789465771900723
    Reference energy    (file100) =  -76.789465771900723

    Input parameters:
    -----------------
    Wave function   =     CCSD
    Reference wfn   =     RHF
    Brueckner       =     No
    Memory (Mbytes) =     524.3
    Maxiter         =     50
    R_Convergence   =     1.0e-07
    E_Convergence   =     1.0e-06
    Restart         =     Yes
    DIIS            =     Yes
    AO Basis        =     NONE
    ABCD            =     NEW
    Cache Level     =     2
    Cache Type      =     LOW
    Print Level     =     1
    Num. of threads =     1
    # Amps to Print =     10
    Print MP2 Amps? =     No
    Analyze T2 Amps =     No
    Print Pair Ener =     No
    Local CC        =     No
    SCS-MP2         =     False
    SCSN-MP2        =     False
    SCS-CCSD        =     False

MP2 correlation energy -0.1897393764235057
                Solving CC Amplitude Equations
                ------------------------------
  Iter             Energy              RMS        T1Diag      D1Diag    New D1Diag    D2Diag
  ----     ---------------------    ---------   ----------  ----------  ----------   --------
     0        -0.189739376423506    0.000e+00    0.000000    0.000000    0.000000    0.153393
     1        -0.191218772515795    5.393e-02    0.008600    0.021635    0.021635    0.160147
     2        -0.199907724392964    2.614e-02    0.009526    0.023160    0.023160    0.174498
     3        -0.203184343640718    1.226e-02    0.011003    0.026451    0.026451    0.185165
     4        -0.203810809708957    3.823e-03    0.011007    0.026435    0.026435    0.189155
     5        -0.203784783309329    6.709e-04    0.010954    0.026364    0.026364    0.189501
     6        -0.203791135442661    1.468e-04    0.010944    0.026350    0.026350    0.189552
     7        -0.203795911483698    4.216e-05    0.010942    0.026346    0.026346    0.189571
     8        -0.203795077906189    1.105e-05    0.010942    0.026346    0.026346    0.189570
     9        -0.203795070574348    2.629e-06    0.010942    0.026346    0.026346    0.189570
    10        -0.203795106062029    6.757e-07    0.010942    0.026346    0.026346    0.189570
    11        -0.203795085464769    1.796e-07    0.010942    0.026346    0.026346    0.189570
    12        -0.203795086723567    3.715e-08    0.010942    0.026346    0.026346    0.189570

    Iterations converged.


    Largest TIA Amplitudes:
              3   8         0.0263458994
              4   9         0.0263458994
              2   0        -0.0125991762
              6  10        -0.0081537073
              2   3        -0.0049148008
              2   2         0.0035545719
              6  12         0.0031544676
              1   1        -0.0019666761
              6  11         0.0019254260
              6  13         0.0017057077

    Largest TIjAb Amplitudes:
      3   3   6   6        -0.1217509113
      4   4   4   4        -0.1217509113
      3   4   6   4        -0.0719997873
      4   3   4   6        -0.0719997873
      3   3   6   7        -0.0411824304
      3   3   7   6        -0.0411824304
      4   4   4   5        -0.0411824304
      4   4   5   4        -0.0411824304
      3   4   4   6        -0.0368857681
      4   3   6   4        -0.0368857681

    SCF energy       (wfn)                    =  -76.789465771900723
    Reference energy (file100)                =  -76.789465771900723

    Opposite-spin MP2 correlation energy      =   -0.144853618569701
    Same-spin MP2 correlation energy          =   -0.044885757853804
    MP2 correlation energy                    =   -0.189739376423506
      * MP2 total energy                      =  -76.979205148324226

    Opposite-spin CCSD correlation energy     =   -0.171094895493472
    Same-spin CCSD correlation energy         =   -0.032700191230095
    CCSD correlation energy                   =   -0.203795086723567
      * CCSD total energy                     =  -76.993260858624296

gradient() will perform analytic gradient computation.

*** tstart() called on atlantis
*** at Tue Apr 19 01:47:26 2022

   => Loading Basis Set <=

    Name: 6-31G
    Role: ORBITAL
    Keyword: BASIS
    atoms 1-2 entry C          line    87 file /home/akrom/software/anaconda3/envs/ffpenv/share/psi4/basis/6-31g.gbs 
    atoms 3-4 entry H          line    26 file /home/akrom/software/anaconda3/envs/ffpenv/share/psi4/basis/6-31g.gbs 


         ---------------------------------------------------------
                                   SCF
               by Justin Turney, Rob Parrish, Andy Simmonett
                          and Daniel G. A. Smith
                              RHF Reference
                        1 Threads,    500 MiB Core
         ---------------------------------------------------------

  ==> Geometry <==

    Molecular point group: d2h
    Full point group: D_inf_h

    Geometry (in Angstrom), charge = 0, multiplicity = 1:

       Center              X                  Y                   Z               Mass       
    ------------   -----------------  -----------------  -----------------  -----------------
         C           -0.614460000000    -0.000000000000     0.000000000000    12.000000000000
         C            0.614460000000     0.000000000000     0.000000000000    12.000000000000
         H           -1.689230000000    -0.000000000000     0.000000000000     1.007825032230
         H            1.689230000000     0.000000000000     0.000000000000     1.007825032230

  Running in d2h symmetry.

  Rotational constants: A = ************  B =      1.13802  C =      1.13802 [cm^-1]
  Rotational constants: A = ************  B =  34116.98697  C =  34116.98697 [MHz]
  Nuclear repulsion =   24.323218171379235

  Charge       = 0
  Multiplicity = 1
  Electrons    = 14
  Nalpha       = 7
  Nbeta        = 7

  ==> Algorithm <==

  SCF Algorithm Type is PK.
  DIIS enabled.
  MOM disabled.
  Fractional occupation disabled.
  Guess Type is SAD.
  Energy threshold   = 1.00e-10
  Density threshold  = 1.00e-10
  Integral threshold = 0.00e+00

  ==> Primary Basis <==

  Basis Set: 6-31G
    Blend: 6-31G
    Number of shells: 14
    Number of basis function: 22
    Number of Cartesian functions: 22
    Spherical Harmonics?: false
    Max angular momentum: 1

  ==> Pre-Iterations <==

   -------------------------------------------------------
    Irrep   Nso     Nmo     Nalpha   Nbeta   Ndocc  Nsocc
   -------------------------------------------------------
     Ag         7       7       0       0       0       0
     B1g        2       2       0       0       0       0
     B2g        2       2       0       0       0       0
     B3g        0       0       0       0       0       0
     Au         0       0       0       0       0       0
     B1u        2       2       0       0       0       0
     B2u        2       2       0       0       0       0
     B3u        7       7       0       0       0       0
   -------------------------------------------------------
    Total      22      22       7       7       7       0
   -------------------------------------------------------

  ==> Integral Setup <==

  Using in-core PK algorithm.
   Calculation information:
      Number of atoms:                   4
      Number of AO shells:              14
      Number of primitives:             36
      Number of atomic orbitals:        22
      Number of basis functions:        22

      Integral cutoff                 1.00e-12
      Number of threads:                 1

  Performing in-core PK
  Using 64262 doubles for integral storage.
  We computed 5565 shell quartets total.
  Whereas there are 5565 unique shell quartets.

  ==> DiskJK: Disk-Based J/K Matrices <==

    J tasked:                  Yes
    K tasked:                  Yes
    wK tasked:                  No
    Memory [MiB]:              375
    Schwarz Cutoff:          1E-12

    OpenMP threads:              1

  Minimum eigenvalue in the overlap matrix is 1.3292833189E-03.
  Using Symmetric Orthogonalization.

  SCF Guess: Superposition of Atomic Densities via on-the-fly atomic UHF.

  ==> Iterations <==

                        Total Energy        Delta E     RMS |[F,P]|

   @RHF iter SAD:   -75.92646968854562   -7.59265e+01   0.00000e+00 
   @RHF iter   1:   -76.77053118990163   -8.44062e-01   1.56243e-02 DIIS
   @RHF iter   2:   -76.78836113512332   -1.78299e-02   3.82673e-03 DIIS
   @RHF iter   3:   -76.78940574484130   -1.04461e-03   6.91014e-04 DIIS
   @RHF iter   4:   -76.78946374054776   -5.79957e-05   1.18262e-04 DIIS
   @RHF iter   5:   -76.78946576475568   -2.02421e-06   7.74714e-06 DIIS
   @RHF iter   6:   -76.78946577188751   -7.13183e-09   4.12754e-07 DIIS
   @RHF iter   7:   -76.78946577190075   -1.32445e-11   2.15022e-08 DIIS
   @RHF iter   8:   -76.78946577190072    2.84217e-14   2.92517e-09 DIIS
   @RHF iter   9:   -76.78946577190069    2.84217e-14   2.05327e-10 DIIS
   @RHF iter  10:   -76.78946577190067    2.84217e-14   1.72912e-11 DIIS
  Energy and wave function converged.


  ==> Post-Iterations <==

    Orbital Energies [Eh]
    ---------------------

    Doubly Occupied:                                                      

       1Ag   -11.254807     1B3u  -11.251672     2Ag    -1.023516  
       2B3u   -0.756080     3Ag    -0.669533     1B2u   -0.398651  
       1B1u   -0.398651  

    Virtual:                                                              

       1B1g    0.204776     1B2g    0.204776     3B3u    0.242723  
       4Ag     0.291134     4B3u    0.602921     5Ag     0.664745  
       2B2u    0.759966     2B1u    0.759966     2B2g    0.899708  
       2B1g    0.899708     5B3u    0.966080     6Ag     1.052227  
       7Ag     1.283229     6B3u    1.532822     7B3u    1.790863  

    Final Occupation by Irrep:
             Ag   B1g   B2g   B3g    Au   B1u   B2u   B3u 
    DOCC [     3,    0,    0,    0,    0,    1,    1,    2 ]

  @RHF Final Energy:   -76.78946577190067

   => Energetics <=

    Nuclear Repulsion Energy =             24.3232181713792350
    One-Electron Energy =                -150.7195494261399062
    Two-Electron Energy =                  49.6068654828599946
    Total Energy =                        -76.7894657719006659

Computation Completed


Properties will be evaluated at   0.000000,   0.000000,   0.000000 [a0]

Properties computed using the SCF density matrix

  Nuclear Dipole Moment: [e a0]
     X:     0.0000      Y:     0.0000      Z:     0.0000

  Electronic Dipole Moment: [e a0]
     X:     0.0000      Y:     0.0000      Z:     0.0000

  Dipole Moment: [e a0]
     X:     0.0000      Y:     0.0000      Z:     0.0000     Total:     0.0000

  Dipole Moment: [D]
     X:     0.0000      Y:     0.0000      Z:     0.0000     Total:     0.0000


*** tstop() called on atlantis at Tue Apr 19 01:47:26 2022
Module time:
	user time   =       0.26 seconds =       0.00 minutes
	system time =       0.00 seconds =       0.00 minutes
	total time  =          0 seconds =       0.00 minutes
Total time:
	user time   =       0.62 seconds =       0.01 minutes
	system time =       0.05 seconds =       0.00 minutes
	total time  =          1 seconds =       0.02 minutes
 MINTS: Wrapper to libmints.
   by Justin Turney

   Calculation information:
      Number of threads:                 1
      Number of atoms:                   4
      Number of AO shells:              14
      Number of SO shells:               7
      Number of primitives:             36
      Number of atomic orbitals:        22
      Number of basis functions:        22

      Number of irreps:                  8
      Integral cutoff                 0.00e+00
      Number of functions per irrep: [   7    2    2    0    0    2    2    7 ]

 OEINTS: Overlap, kinetic, potential, dipole, and quadrupole integrals
         stored in file 35.

      Computing two-electron integrals...done
      Computed 5695 non-zero two-electron integrals.
        Stored in file 33.


*** tstart() called on atlantis
*** at Tue Apr 19 01:47:26 2022


	Wfn Parameters:
	--------------------
	Wavefunction         = CCSD
	Number of irreps     = 8
	Number of MOs        = 22
	Number of active MOs = 22
	AO-Basis             = NONE
	Semicanonical        = false
	Reference            = RHF
	Print Level          = 1

	IRREP	# MOs	# FZDC	# DOCC	# SOCC	# VIRT	# FZVR
	-----	-----	------	------	------	------	------
	 Ag	   7	    0	    3	    0	    4	    0
	 B1g	   2	    0	    0	    0	    2	    0
	 B2g	   2	    0	    0	    0	    2	    0
	 B3g	   0	    0	    0	    0	    0	    0
	 Au	   0	    0	    0	    0	    0	    0
	 B1u	   2	    0	    1	    0	    1	    0
	 B2u	   2	    0	    1	    0	    1	    0
	 B3u	   7	    0	    2	    0	    5	    0
	Transforming integrals...
	IWL integrals will be deleted.
	(OO|OO)...
	Presorting SO-basis two-electron integrals.
	Sorting File: SO Ints (nn|nn) nbuckets = 1
	Transforming the one-electron integrals and constructing Fock matrices
	Starting first half-transformation.
	Sorting half-transformed integrals.
	First half integral transformation complete.
	Starting second half-transformation.
	Two-electron integral transformation complete.
	(OO|OV)...
	Starting second half-transformation.
	Two-electron integral transformation complete.
	(OO|VV)...
	Starting second half-transformation.
	Two-electron integral transformation complete.
	(OV|OO)...
	Starting first half-transformation.
	Sorting half-transformed integrals.
	First half integral transformation complete.
	Starting second half-transformation.
	Two-electron integral transformation complete.
	(OV|OV)...
	Starting second half-transformation.
	Two-electron integral transformation complete.
	(OV|VV)...
	Starting second half-transformation.
	Two-electron integral transformation complete.
	(VV|OO)...
	Starting first half-transformation.
	Sorting half-transformed integrals.
	First half integral transformation complete.
	Starting second half-transformation.
	Two-electron integral transformation complete.
	(VV|OV)...
	Starting second half-transformation.
	Two-electron integral transformation complete.
	(VV|VV)...
	Starting second half-transformation.
	Two-electron integral transformation complete.
	Frozen core energy     =      0.00000000000000

	Size of irrep 0 of <ab|cd> integrals:      0.003 (MW) /      0.021 (MB)
	Size of irrep 1 of <ab|cd> integrals:      0.001 (MW) /      0.005 (MB)
	Size of irrep 2 of <ab|cd> integrals:      0.001 (MW) /      0.005 (MB)
	Size of irrep 3 of <ab|cd> integrals:      0.000 (MW) /      0.001 (MB)
	Size of irrep 4 of <ab|cd> integrals:      0.000 (MW) /      0.001 (MB)
	Size of irrep 5 of <ab|cd> integrals:      0.001 (MW) /      0.006 (MB)
	Size of irrep 6 of <ab|cd> integrals:      0.001 (MW) /      0.006 (MB)
	Size of irrep 7 of <ab|cd> integrals:      0.002 (MW) /      0.018 (MB)
	Total:                                     0.008 (MW) /      0.064 (MB)

	Size of irrep 0 of <ia|bc> integrals:      0.001 (MW) /      0.010 (MB)
	Size of irrep 1 of <ia|bc> integrals:      0.000 (MW) /      0.003 (MB)
	Size of irrep 2 of <ia|bc> integrals:      0.000 (MW) /      0.003 (MB)
	Size of irrep 3 of <ia|bc> integrals:      0.000 (MW) /      0.000 (MB)
	Size of irrep 4 of <ia|bc> integrals:      0.000 (MW) /      0.000 (MB)
	Size of irrep 5 of <ia|bc> integrals:      0.000 (MW) /      0.002 (MB)
	Size of irrep 6 of <ia|bc> integrals:      0.000 (MW) /      0.002 (MB)
	Size of irrep 7 of <ia|bc> integrals:      0.001 (MW) /      0.010 (MB)
	Total:                                     0.004 (MW) /      0.031 (MB)

	Size of irrep 0 of tijab amplitudes:       0.001 (MW) /      0.006 (MB)
	Size of irrep 1 of tijab amplitudes:       0.000 (MW) /      0.001 (MB)
	Size of irrep 2 of tijab amplitudes:       0.000 (MW) /      0.001 (MB)
	Size of irrep 3 of tijab amplitudes:       0.000 (MW) /      0.000 (MB)
	Size of irrep 4 of tijab amplitudes:       0.000 (MW) /      0.000 (MB)
	Size of irrep 5 of tijab amplitudes:       0.000 (MW) /      0.001 (MB)
	Size of irrep 6 of tijab amplitudes:       0.000 (MW) /      0.001 (MB)
	Size of irrep 7 of tijab amplitudes:       0.001 (MW) /      0.005 (MB)
	Total:                                     0.002 (MW) /      0.015 (MB)

	Nuclear Rep. energy          =     24.32321817137924
	SCF energy                   =    -76.78946577190067
	One-electron energy          =   -150.71954942634150
	Two-electron energy          =     49.60686548306155
	Reference energy             =    -76.78946577190071

*** tstop() called on atlantis at Tue Apr 19 01:47:26 2022
Module time:
	user time   =       0.01 seconds =       0.00 minutes
	system time =       0.00 seconds =       0.00 minutes
	total time  =          0 seconds =       0.00 minutes
Total time:
	user time   =       0.65 seconds =       0.01 minutes
	system time =       0.05 seconds =       0.00 minutes
	total time  =          1 seconds =       0.02 minutes
            **************************
            *                        *
            *        CCENERGY        *
            *                        *
            **************************

    Nuclear Rep. energy (wfn)     =   24.323218171379235
    SCF energy          (wfn)     =  -76.789465771900666
    Reference energy    (file100) =  -76.789465771900709

    Input parameters:
    -----------------
    Wave function   =     CCSD
    Reference wfn   =     RHF
    Brueckner       =     No
    Memory (Mbytes) =     524.3
    Maxiter         =     50
    R_Convergence   =     1.0e-07
    E_Convergence   =     1.0e-08
    Restart         =     Yes
    DIIS            =     Yes
    AO Basis        =     NONE
    ABCD            =     NEW
    Cache Level     =     2
    Cache Type      =     LOW
    Print Level     =     1
    Num. of threads =     1
    # Amps to Print =     10
    Print MP2 Amps? =     No
    Analyze T2 Amps =     No
    Print Pair Ener =     No
    Local CC        =     No
    SCS-MP2         =     False
    SCSN-MP2        =     False
    SCS-CCSD        =     False

    Using old T1 amplitudes.
    Using old T2 amplitudes.

MP2 correlation energy -0.1897393762574771
                Solving CC Amplitude Equations
                ------------------------------
  Iter             Energy              RMS        T1Diag      D1Diag    New D1Diag    D2Diag
  ----     ---------------------    ---------   ----------  ----------  ----------   --------
     0        -0.203795086673936    0.000e+00    0.010942    0.026346    0.026346    0.189570
     1        -0.203795085936488    1.517e-08    0.010942    0.026346    0.026346    0.189570
     2        -0.203795086034921    6.992e-09    0.010942    0.026346    0.026346    0.189570

    Iterations converged.


    Largest TIA Amplitudes:
              3   8         0.0263459020
              4   9         0.0263459020
              2   0        -0.0125991785
              6  10        -0.0081537126
              2   3        -0.0049148005
              2   2         0.0035545718
              6  12         0.0031544661
              1   1        -0.0019666774
              6  11         0.0019254272
              6  13         0.0017057080

    Largest TIjAb Amplitudes:
      3   3   6   6        -0.1217509151
      4   4   4   4        -0.1217509151
      3   4   6   4        -0.0719997865
      4   3   4   6        -0.0719997865
      3   3   6   7        -0.0411824324
      3   3   7   6        -0.0411824324
      4   4   4   5        -0.0411824324
      4   4   5   4        -0.0411824324
      3   4   4   6        -0.0368857681
      4   3   6   4        -0.0368857681

    SCF energy       (wfn)                    =  -76.789465771900666
    Reference energy (file100)                =  -76.789465771900709

    Opposite-spin MP2 correlation energy      =   -0.144853618439012
    Same-spin MP2 correlation energy          =   -0.044885757818465
    MP2 correlation energy                    =   -0.189739376257477
      * MP2 total energy                      =  -76.979205148158186

    Opposite-spin CCSD correlation energy     =   -0.171094895483272
    Same-spin CCSD correlation energy         =   -0.032700190551649
    CCSD correlation energy                   =   -0.203795086034921
      * CCSD total energy                     =  -76.993260857935624


			**************************
			*                        *
			*         CCHBAR         *
			*                        *
			**************************


			**************************
			*        CCLAMBDA        *
			**************************


	Nuclear Rep. energy (wfn)     =   24.323218171379235
	Reference           (wfn)     =                    0
	SCF energy          (wfn)     =  -76.789465771900666
	Reference energy    (CC_INFO) =  -76.789465771900709
	CCSD energy         (CC_INFO) =   -0.203795086034921
	Total CCSD energy   (CC_INFO) =  -76.993260857935624

	Input parameters:
	-----------------
	Maxiter           =     50
	Convergence       = 1.0e-07
	Restart           =     No
	Cache Level       =     2
	Model III         =     No
	DIIS              =     Yes
	AO Basis          =     No
	ABCD              =     NEW
	Local CC          =     No
	Parameters for left-handed eigenvectors:
	    Irr   Root  Ground-State?    EOM energy        R0
	  1   0     0        Yes       0.0000000000   1.0000000000
	Labels for eigenvector 1:
	LIA 0 -1, Lia 0 -1, LIJAB 0 -1, Lijab 0 -1, LIjAb 0 -1, 2LIjAb - LIjbA 0 -1
	Symmetry of left-hand state: Ag
	Symmetry of left-hand eigenvector: Ag

	          Solving Lambda Equations
	          ------------------------
	Iter     PseudoEnergy or Norm         RMS  
	----     ---------------------     --------
	   0        -0.203926137010425    0.000e+00
	   1        -0.199517358643591    1.738e-02
	   2        -0.198416581592337    3.341e-03
	   3        -0.198319055880116    8.082e-04
	   4        -0.198282400498485    2.189e-04
	   5        -0.198284786190742    6.569e-05
	   6        -0.198287053867661    2.304e-05
	   7        -0.198288278661570    7.330e-06
	   8        -0.198288680114587    2.420e-06
	   9        -0.198288735434644    6.696e-07
	  10        -0.198288754984541    2.047e-07
	  11        -0.198288756345150    4.508e-08

	Largest LIA Amplitudes:
	          3   8         0.0179330363
	          4   9         0.0179330363
	          2   0        -0.0143392215
	          6  10        -0.0103684198
	          2   3        -0.0044074110
	          1   1        -0.0028973888
	          6  13         0.0023733251
	          6  11         0.0017849481
	          6  14         0.0013512805
	          1   2         0.0008717605

	Largest LIjAb Amplitudes:
	  3   3   6   6        -0.1189040021
	  4   4   4   4        -0.1189040021
	  3   4   6   4        -0.0678694061
	  4   3   4   6        -0.0678694061
	  3   3   6   7        -0.0400373316
	  3   3   7   6        -0.0400373316
	  4   4   4   5        -0.0400373316
	  4   4   5   4        -0.0400373316
	  3   4   4   6        -0.0387219220
	  4   3   6   4        -0.0387219220

	Iterations converged.

	Overlap <L|e^T> =        0.88200081614

			**************************
			*                        *
			*        CCDENSITY       *
			*                        *
			**************************


	Input parameters:
	-----------------
	Wave function    =   CCSD
	Reference wfn    =   RHF
	Dertype          = 1
	Tolerance        = 1.0e-14
	Cache Level      = 2
	AO Basis         = No
	OPDM Only        = No
	Relax OPDM       = Yes
	Compute Xi       = No
	Use Zeta         = No
	Xi connected     = Yes
	Compute NO       = No

	Nuclear Rep. energy (wfn)     =   24.323218171379235
	SCF energy          (wfn)     =  -76.789465771900666
	Reference energy    (file100) =  -76.789465771900709
	CCSD energy         (CC_INFO) =   -0.203795086034921
	Total CCSD energy   (CC_INFO) =  -76.993260857935624
	Number of States = 1

	Ground?  State     EOM Energy       R0
	  Yes     0 Ag    0.0000000000   1.00000000

	Virial Theorem Data:
	--------------------
	Kinetic energy (ref)   =   76.573391668045872
	Kinetic energy (corr)  =    0.354778284832469
	Kinetic energy (total) =   76.928169952878335
	-V/T (ref)             =    2.002821790953071
	-V/T (corr)            =    1.574429424650823
	-V/T (total)           =    2.000846125744277
  Cartesian Displacement SALCs
  By SALC:
  Number of SALCs: 2, nirreps: Ag
  Project out translations: False
  Project out rotations: False
	irrep = 0, ncomponent = 2
		0: atom 0, direction x, coef 0.707107
		1: atom 1, direction x, coef -0.707107
	irrep = 0, ncomponent = 2
		0: atom 2, direction x, coef 0.707107
		1: atom 3, direction x, coef -0.707107

  By Atomic Center:
  Number of atomic centers: 4
   Atomic Center 0:
	x component, size = 1
		0: salc 0, irrep 0, coef 0.707107
	y component, size = 0
	z component, size = 0
   Atomic Center 1:
	x component, size = 1
		0: salc 0, irrep 0, coef -0.707107
	y component, size = 0
	z component, size = 0
   Atomic Center 2:
	x component, size = 1
		0: salc 1, irrep 0, coef 0.707107
	y component, size = 0
	z component, size = 0
   Atomic Center 3:
	x component, size = 1
		0: salc 1, irrep 0, coef -0.707107
	y component, size = 0
	z component, size = 0

    Molecular point group: d2h
    Full point group: D_inf_h

    Geometry (in Bohr), charge = 0, multiplicity = 1:

       Center              X                  Y                   Z       
    ------------   -----------------  -----------------  -----------------
         C           -1.161161115049    -0.000000000000     0.000000000000
         C            1.161161115049     0.000000000000     0.000000000000
         H           -3.192182062907    -0.000000000000     0.000000000000
         H            3.192182062907     0.000000000000     0.000000000000

	Presorting MO-basis TPDM.
	Sorting File: MO TPDM (AA|AA) nbuckets = 1
	Starting first half-transformation.
	Sorting half-transformed TPDM.
	First half integral transformation complete.


  -Nuclear Repulsion Energy 1st Derivatives:
     Atom            X                  Y                   Z
    ------   -----------------  -----------------  -----------------
       1        5.537163209075     0.000000000000     0.000000000000
       2       -5.537163209075    -0.000000000000     0.000000000000
       3        1.795659009002     0.000000000000     0.000000000000
       4       -1.795659009002    -0.000000000000     0.000000000000


  -Core Hamiltonian Gradient:
     Atom            X                  Y                   Z
    ------   -----------------  -----------------  -----------------
       1      -17.114475752533    -0.000000000000     0.000000000000
       2       17.114475752533     0.000000000000     0.000000000000
       3       -4.373038443711    -0.000000000000     0.000000000000
       4        4.373038443711     0.000000000000     0.000000000000


  -Lagrangian contribution to gradient:
     Atom            X                  Y                   Z
    ------   -----------------  -----------------  -----------------
       1        0.678997879021     0.000000000000     0.000000000000
       2       -0.678997879021    -0.000000000000     0.000000000000
       3        0.212758970633     0.000000000000     0.000000000000
       4       -0.212758970633    -0.000000000000     0.000000000000


  -Two-electron contribution to gradient:
     Atom            X                  Y                   Z
    ------   -----------------  -----------------  -----------------
       1       10.895529860362     0.000000000000     0.000000000000
       2      -10.895529860362    -0.000000000000     0.000000000000
       3        2.363338672801     0.000000000000     0.000000000000
       4       -2.363338672801    -0.000000000000     0.000000000000


  -Total gradient:
     Atom            X                  Y                   Z
    ------   -----------------  -----------------  -----------------
       1       -0.002784804075    -0.000000000000     0.000000000000
       2        0.002784804075     0.000000000000     0.000000000000
       3       -0.001281791276    -0.000000000000     0.000000000000
       4        0.001281791276     0.000000000000     0.000000000000


  Based on options and gradient (rms=1.25E-03), recommend projecting translations and projecting rotations.
hessian() will perform frequency computation by finite difference of analytic gradients.

         ----------------------------------------------------------
                                   FINDIF
                     R. A. King and Jonathon Misiewicz
         ---------------------------------------------------------

  Using finite-differences of gradients to determine vibrational frequencies and 
  normal modes.  Resulting frequencies are only valid at stationary points.
    Generating geometries for use with 3-point formula.
    Displacement size will be 5.00e-03.
    Number of atoms is 4.
    Number of irreps is 8.
    Number of SALCs is 7.
    Translations projected? 1. Rotations projected? 1.
    Index of SALCs per irrep:
     1 :  0  1 
     2 :  2 
     3 :  3 
     4 : 
     5 : 
     6 :  4 
     7 :  5 
     8 :  6 
    Number of SALCs per irrep:
     Irrep 1: 2
     Irrep 2: 1
     Irrep 3: 1
     Irrep 4: 0
     Irrep 5: 0
     Irrep 6: 1
     Irrep 7: 1
     Irrep 8: 1
    Number of geometries (including reference) is 10.
    Number of displacements per irrep:
      Irrep 1: 4
      Irrep 2: 1
      Irrep 3: 1
      Irrep 4: 0
      Irrep 5: 0
      Irrep 6: 1
      Irrep 7: 1
      Irrep 8: 1

  //>>>>>>>>>>>>>>>>>>>>>>>>>>>>>>>>>>>//
  //    Loading displacement 1 of 10   //
  //<<<<<<<<<<<<<<<<<<<<<<<<<<<<<<<<<<<//
gradient() will perform analytic gradient computation.

*** tstart() called on atlantis
*** at Tue Apr 19 01:47:26 2022

   => Loading Basis Set <=

    Name: 6-31G
    Role: ORBITAL
    Keyword: BASIS
    atoms 1-2 entry C          line    87 file /home/akrom/software/anaconda3/envs/ffpenv/share/psi4/basis/6-31g.gbs 
    atoms 3-4 entry H          line    26 file /home/akrom/software/anaconda3/envs/ffpenv/share/psi4/basis/6-31g.gbs 


         ---------------------------------------------------------
                                   SCF
               by Justin Turney, Rob Parrish, Andy Simmonett
                          and Daniel G. A. Smith
                              RHF Reference
                        1 Threads,    500 MiB Core
         ---------------------------------------------------------

  ==> Geometry <==

    Molecular point group: d2h
    Full point group: D_inf_h

    Geometry (in Angstrom), charge = 0, multiplicity = 1:

       Center              X                  Y                   Z               Mass       
    ------------   -----------------  -----------------  -----------------  -----------------
         C           -0.614460000000    -0.000000000000     0.000000000000    12.000000000000
         C            0.614460000000     0.000000000000     0.000000000000    12.000000000000
         H           -1.689230000000    -0.000000000000     0.000000000000     1.007825032230
         H            1.689230000000     0.000000000000     0.000000000000     1.007825032230

  Running in d2h symmetry.

  Rotational constants: A = ************  B =      1.13802  C =      1.13802 [cm^-1]
  Rotational constants: A = ************  B =  34116.98697  C =  34116.98697 [MHz]
  Nuclear repulsion =   24.323218171379235

  Charge       = 0
  Multiplicity = 1
  Electrons    = 14
  Nalpha       = 7
  Nbeta        = 7

  ==> Algorithm <==

  SCF Algorithm Type is PK.
  DIIS enabled.
  MOM disabled.
  Fractional occupation disabled.
  Guess Type is SAD.
  Energy threshold   = 1.00e-10
  Density threshold  = 1.00e-10
  Integral threshold = 0.00e+00

  ==> Primary Basis <==

  Basis Set: 6-31G
    Blend: 6-31G
    Number of shells: 14
    Number of basis function: 22
    Number of Cartesian functions: 22
    Spherical Harmonics?: false
    Max angular momentum: 1

  ==> Pre-Iterations <==

   -------------------------------------------------------
    Irrep   Nso     Nmo     Nalpha   Nbeta   Ndocc  Nsocc
   -------------------------------------------------------
     Ag         7       7       0       0       0       0
     B1g        2       2       0       0       0       0
     B2g        2       2       0       0       0       0
     B3g        0       0       0       0       0       0
     Au         0       0       0       0       0       0
     B1u        2       2       0       0       0       0
     B2u        2       2       0       0       0       0
     B3u        7       7       0       0       0       0
   -------------------------------------------------------
    Total      22      22       7       7       7       0
   -------------------------------------------------------

  ==> Integral Setup <==

  Using in-core PK algorithm.
   Calculation information:
      Number of atoms:                   4
      Number of AO shells:              14
      Number of primitives:             36
      Number of atomic orbitals:        22
      Number of basis functions:        22

      Integral cutoff                 1.00e-12
      Number of threads:                 1

  Performing in-core PK
  Using 64262 doubles for integral storage.
  We computed 5565 shell quartets total.
  Whereas there are 5565 unique shell quartets.

  ==> DiskJK: Disk-Based J/K Matrices <==

    J tasked:                  Yes
    K tasked:                  Yes
    wK tasked:                  No
    Memory [MiB]:              375
    Schwarz Cutoff:          1E-12

    OpenMP threads:              1

  Minimum eigenvalue in the overlap matrix is 1.3292833189E-03.
  Using Symmetric Orthogonalization.

  SCF Guess: Superposition of Atomic Densities via on-the-fly atomic UHF.

  ==> Iterations <==

                        Total Energy        Delta E     RMS |[F,P]|

   @RHF iter SAD:   -75.92646968854562   -7.59265e+01   0.00000e+00 
   @RHF iter   1:   -76.77053118990163   -8.44062e-01   1.56243e-02 DIIS
   @RHF iter   2:   -76.78836113512332   -1.78299e-02   3.82673e-03 DIIS
   @RHF iter   3:   -76.78940574484130   -1.04461e-03   6.91014e-04 DIIS
   @RHF iter   4:   -76.78946374054776   -5.79957e-05   1.18262e-04 DIIS
   @RHF iter   5:   -76.78946576475568   -2.02421e-06   7.74714e-06 DIIS
   @RHF iter   6:   -76.78946577188751   -7.13183e-09   4.12754e-07 DIIS
   @RHF iter   7:   -76.78946577190075   -1.32445e-11   2.15022e-08 DIIS
   @RHF iter   8:   -76.78946577190072    2.84217e-14   2.92517e-09 DIIS
   @RHF iter   9:   -76.78946577190069    2.84217e-14   2.05327e-10 DIIS
   @RHF iter  10:   -76.78946577190067    2.84217e-14   1.72912e-11 DIIS
  Energy and wave function converged.


  ==> Post-Iterations <==

    Orbital Energies [Eh]
    ---------------------

    Doubly Occupied:                                                      

       1Ag   -11.254807     1B3u  -11.251672     2Ag    -1.023516  
       2B3u   -0.756080     3Ag    -0.669533     1B2u   -0.398651  
       1B1u   -0.398651  

    Virtual:                                                              

       1B1g    0.204776     1B2g    0.204776     3B3u    0.242723  
       4Ag     0.291134     4B3u    0.602921     5Ag     0.664745  
       2B2u    0.759966     2B1u    0.759966     2B2g    0.899708  
       2B1g    0.899708     5B3u    0.966080     6Ag     1.052227  
       7Ag     1.283229     6B3u    1.532822     7B3u    1.790863  

    Final Occupation by Irrep:
             Ag   B1g   B2g   B3g    Au   B1u   B2u   B3u 
    DOCC [     3,    0,    0,    0,    0,    1,    1,    2 ]

  @RHF Final Energy:   -76.78946577190067

   => Energetics <=

    Nuclear Repulsion Energy =             24.3232181713792350
    One-Electron Energy =                -150.7195494261399062
    Two-Electron Energy =                  49.6068654828599946
    Total Energy =                        -76.7894657719006659

Computation Completed


Properties will be evaluated at   0.000000,   0.000000,   0.000000 [a0]

Properties computed using the SCF density matrix

  Nuclear Dipole Moment: [e a0]
     X:     0.0000      Y:     0.0000      Z:     0.0000

  Electronic Dipole Moment: [e a0]
     X:     0.0000      Y:     0.0000      Z:     0.0000

  Dipole Moment: [e a0]
     X:     0.0000      Y:     0.0000      Z:     0.0000     Total:     0.0000

  Dipole Moment: [D]
     X:     0.0000      Y:     0.0000      Z:     0.0000     Total:     0.0000


*** tstop() called on atlantis at Tue Apr 19 01:47:27 2022
Module time:
	user time   =       0.25 seconds =       0.00 minutes
	system time =       0.00 seconds =       0.00 minutes
	total time  =          1 seconds =       0.02 minutes
Total time:
	user time   =       1.27 seconds =       0.02 minutes
	system time =       0.10 seconds =       0.00 minutes
	total time  =          2 seconds =       0.03 minutes
 MINTS: Wrapper to libmints.
   by Justin Turney

   Calculation information:
      Number of threads:                 1
      Number of atoms:                   4
      Number of AO shells:              14
      Number of SO shells:               7
      Number of primitives:             36
      Number of atomic orbitals:        22
      Number of basis functions:        22

      Number of irreps:                  8
      Integral cutoff                 0.00e+00
      Number of functions per irrep: [   7    2    2    0    0    2    2    7 ]

 OEINTS: Overlap, kinetic, potential, dipole, and quadrupole integrals
         stored in file 35.

      Computing two-electron integrals...done
      Computed 5695 non-zero two-electron integrals.
        Stored in file 33.


*** tstart() called on atlantis
*** at Tue Apr 19 01:47:27 2022


	Wfn Parameters:
	--------------------
	Wavefunction         = CCSD
	Number of irreps     = 8
	Number of MOs        = 22
	Number of active MOs = 22
	AO-Basis             = NONE
	Semicanonical        = false
	Reference            = RHF
	Print Level          = 1

	IRREP	# MOs	# FZDC	# DOCC	# SOCC	# VIRT	# FZVR
	-----	-----	------	------	------	------	------
	 Ag	   7	    0	    3	    0	    4	    0
	 B1g	   2	    0	    0	    0	    2	    0
	 B2g	   2	    0	    0	    0	    2	    0
	 B3g	   0	    0	    0	    0	    0	    0
	 Au	   0	    0	    0	    0	    0	    0
	 B1u	   2	    0	    1	    0	    1	    0
	 B2u	   2	    0	    1	    0	    1	    0
	 B3u	   7	    0	    2	    0	    5	    0
	Transforming integrals...
	IWL integrals will be deleted.
	(OO|OO)...
	Presorting SO-basis two-electron integrals.
	Sorting File: SO Ints (nn|nn) nbuckets = 1
	Transforming the one-electron integrals and constructing Fock matrices
	Starting first half-transformation.
	Sorting half-transformed integrals.
	First half integral transformation complete.
	Starting second half-transformation.
	Two-electron integral transformation complete.
	(OO|OV)...
	Starting second half-transformation.
	Two-electron integral transformation complete.
	(OO|VV)...
	Starting second half-transformation.
	Two-electron integral transformation complete.
	(OV|OO)...
	Starting first half-transformation.
	Sorting half-transformed integrals.
	First half integral transformation complete.
	Starting second half-transformation.
	Two-electron integral transformation complete.
	(OV|OV)...
	Starting second half-transformation.
	Two-electron integral transformation complete.
	(OV|VV)...
	Starting second half-transformation.
	Two-electron integral transformation complete.
	(VV|OO)...
	Starting first half-transformation.
	Sorting half-transformed integrals.
	First half integral transformation complete.
	Starting second half-transformation.
	Two-electron integral transformation complete.
	(VV|OV)...
	Starting second half-transformation.
	Two-electron integral transformation complete.
	(VV|VV)...
	Starting second half-transformation.
	Two-electron integral transformation complete.
	Frozen core energy     =      0.00000000000000

	Size of irrep 0 of <ab|cd> integrals:      0.003 (MW) /      0.021 (MB)
	Size of irrep 1 of <ab|cd> integrals:      0.001 (MW) /      0.005 (MB)
	Size of irrep 2 of <ab|cd> integrals:      0.001 (MW) /      0.005 (MB)
	Size of irrep 3 of <ab|cd> integrals:      0.000 (MW) /      0.001 (MB)
	Size of irrep 4 of <ab|cd> integrals:      0.000 (MW) /      0.001 (MB)
	Size of irrep 5 of <ab|cd> integrals:      0.001 (MW) /      0.006 (MB)
	Size of irrep 6 of <ab|cd> integrals:      0.001 (MW) /      0.006 (MB)
	Size of irrep 7 of <ab|cd> integrals:      0.002 (MW) /      0.018 (MB)
	Total:                                     0.008 (MW) /      0.064 (MB)

	Size of irrep 0 of <ia|bc> integrals:      0.001 (MW) /      0.010 (MB)
	Size of irrep 1 of <ia|bc> integrals:      0.000 (MW) /      0.003 (MB)
	Size of irrep 2 of <ia|bc> integrals:      0.000 (MW) /      0.003 (MB)
	Size of irrep 3 of <ia|bc> integrals:      0.000 (MW) /      0.000 (MB)
	Size of irrep 4 of <ia|bc> integrals:      0.000 (MW) /      0.000 (MB)
	Size of irrep 5 of <ia|bc> integrals:      0.000 (MW) /      0.002 (MB)
	Size of irrep 6 of <ia|bc> integrals:      0.000 (MW) /      0.002 (MB)
	Size of irrep 7 of <ia|bc> integrals:      0.001 (MW) /      0.010 (MB)
	Total:                                     0.004 (MW) /      0.031 (MB)

	Size of irrep 0 of tijab amplitudes:       0.001 (MW) /      0.006 (MB)
	Size of irrep 1 of tijab amplitudes:       0.000 (MW) /      0.001 (MB)
	Size of irrep 2 of tijab amplitudes:       0.000 (MW) /      0.001 (MB)
	Size of irrep 3 of tijab amplitudes:       0.000 (MW) /      0.000 (MB)
	Size of irrep 4 of tijab amplitudes:       0.000 (MW) /      0.000 (MB)
	Size of irrep 5 of tijab amplitudes:       0.000 (MW) /      0.001 (MB)
	Size of irrep 6 of tijab amplitudes:       0.000 (MW) /      0.001 (MB)
	Size of irrep 7 of tijab amplitudes:       0.001 (MW) /      0.005 (MB)
	Total:                                     0.002 (MW) /      0.015 (MB)

	Nuclear Rep. energy          =     24.32321817137924
	SCF energy                   =    -76.78946577190067
	One-electron energy          =   -150.71954942634150
	Two-electron energy          =     49.60686548306155
	Reference energy             =    -76.78946577190071

*** tstop() called on atlantis at Tue Apr 19 01:47:27 2022
Module time:
	user time   =       0.01 seconds =       0.00 minutes
	system time =       0.01 seconds =       0.00 minutes
	total time  =          0 seconds =       0.00 minutes
Total time:
	user time   =       1.30 seconds =       0.02 minutes
	system time =       0.11 seconds =       0.00 minutes
	total time  =          2 seconds =       0.03 minutes
            **************************
            *                        *
            *        CCENERGY        *
            *                        *
            **************************

    Nuclear Rep. energy (wfn)     =   24.323218171379235
    SCF energy          (wfn)     =  -76.789465771900666
    Reference energy    (file100) =  -76.789465771900709

    Input parameters:
    -----------------
    Wave function   =     CCSD
    Reference wfn   =     RHF
    Brueckner       =     No
    Memory (Mbytes) =     524.3
    Maxiter         =     50
    R_Convergence   =     1.0e-07
    E_Convergence   =     1.0e-08
    Restart         =     Yes
    DIIS            =     Yes
    AO Basis        =     NONE
    ABCD            =     NEW
    Cache Level     =     2
    Cache Type      =     LOW
    Print Level     =     1
    Num. of threads =     1
    # Amps to Print =     10
    Print MP2 Amps? =     No
    Analyze T2 Amps =     No
    Print Pair Ener =     No
    Local CC        =     No
    SCS-MP2         =     False
    SCSN-MP2        =     False
    SCS-CCSD        =     False

MP2 correlation energy -0.1897393762574771
                Solving CC Amplitude Equations
                ------------------------------
  Iter             Energy              RMS        T1Diag      D1Diag    New D1Diag    D2Diag
  ----     ---------------------    ---------   ----------  ----------  ----------   --------
     0        -0.189739376257477    0.000e+00    0.000000    0.000000    0.000000    0.153393
     1        -0.191218772360257    5.393e-02    0.008600    0.021635    0.021635    0.160147
     2        -0.199907724216416    2.614e-02    0.009526    0.023160    0.023160    0.174498
     3        -0.203184343444507    1.226e-02    0.011003    0.026451    0.026451    0.185165
     4        -0.203810809506645    3.823e-03    0.011007    0.026435    0.026435    0.189155
     5        -0.203784783107709    6.709e-04    0.010954    0.026364    0.026364    0.189501
     6        -0.203791135240715    1.468e-04    0.010944    0.026350    0.026350    0.189552
     7        -0.203795911281768    4.216e-05    0.010942    0.026346    0.026346    0.189571
     8        -0.203795077704277    1.105e-05    0.010942    0.026346    0.026346    0.189570
     9        -0.203795070372432    2.629e-06    0.010942    0.026346    0.026346    0.189570
    10        -0.203795105860113    6.757e-07    0.010942    0.026346    0.026346    0.189570
    11        -0.203795085262854    1.796e-07    0.010942    0.026346    0.026346    0.189570
    12        -0.203795087223513    3.715e-08    0.010942    0.026346    0.026346    0.189570
    13        -0.203795086209273    9.310e-09    0.010942    0.026346    0.026346    0.189570

    Iterations converged.


    Largest TIA Amplitudes:
              3   8         0.0263459022
              4   9         0.0263459022
              2   0        -0.0125991795
              6  10        -0.0081537124
              2   3        -0.0049148005
              2   2         0.0035545719
              6  12         0.0031544664
              1   1        -0.0019666773
              6  11         0.0019254273
              6  13         0.0017057079

    Largest TIjAb Amplitudes:
      3   3   6   6        -0.1217509145
      4   4   4   4        -0.1217509145
      3   4   6   4        -0.0719997866
      4   3   4   6        -0.0719997866
      3   3   6   7        -0.0411824323
      3   3   7   6        -0.0411824323
      4   4   4   5        -0.0411824323
      4   4   5   4        -0.0411824323
      3   4   4   6        -0.0368857682
      4   3   6   4        -0.0368857682

    SCF energy       (wfn)                    =  -76.789465771900666
    Reference energy (file100)                =  -76.789465771900709

    Opposite-spin MP2 correlation energy      =   -0.144853618439012
    Same-spin MP2 correlation energy          =   -0.044885757818465
    MP2 correlation energy                    =   -0.189739376257477
      * MP2 total energy                      =  -76.979205148158186

    Opposite-spin CCSD correlation energy     =   -0.171094895594962
    Same-spin CCSD correlation energy         =   -0.032700190614311
    CCSD correlation energy                   =   -0.203795086209273
      * CCSD total energy                     =  -76.993260858109977


			**************************
			*                        *
			*         CCHBAR         *
			*                        *
			**************************


			**************************
			*        CCLAMBDA        *
			**************************


	Nuclear Rep. energy (wfn)     =   24.323218171379235
	Reference           (wfn)     =                    0
	SCF energy          (wfn)     =  -76.789465771900666
	Reference energy    (CC_INFO) =  -76.789465771900709
	CCSD energy         (CC_INFO) =   -0.203795086209273
	Total CCSD energy   (CC_INFO) =  -76.993260858109977

	Input parameters:
	-----------------
	Maxiter           =     50
	Convergence       = 1.0e-07
	Restart           =     No
	Cache Level       =     2
	Model III         =     No
	DIIS              =     Yes
	AO Basis          =     No
	ABCD              =     NEW
	Local CC          =     No
	Parameters for left-handed eigenvectors:
	    Irr   Root  Ground-State?    EOM energy        R0
	  1   0     0        Yes       0.0000000000   1.0000000000
	Labels for eigenvector 1:
	LIA 0 -1, Lia 0 -1, LIJAB 0 -1, Lijab 0 -1, LIjAb 0 -1, 2LIjAb - LIjbA 0 -1
	Symmetry of left-hand state: Ag
	Symmetry of left-hand eigenvector: Ag

	          Solving Lambda Equations
	          ------------------------
	Iter     PseudoEnergy or Norm         RMS  
	----     ---------------------     --------
	   0        -0.203926137184453    4.508e-08
	   1        -0.199517358703399    1.738e-02
	   2        -0.198416581578012    3.341e-03
	   3        -0.198319055863026    8.082e-04
	   4        -0.198282400486321    2.189e-04
	   5        -0.198284786181447    6.569e-05
	   6        -0.198287053860273    2.304e-05
	   7        -0.198288278654471    7.330e-06
	   8        -0.198288680107563    2.420e-06
	   9        -0.198288735427630    6.696e-07
	  10        -0.198288754977525    2.047e-07
	  11        -0.198288756338138    4.508e-08

	Largest LIA Amplitudes:
	          3   8         0.0179330363
	          4   9         0.0179330363
	          2   0        -0.0143392215
	          6  10        -0.0103684198
	          2   3        -0.0044074110
	          1   1        -0.0028973888
	          6  13         0.0023733251
	          6  11         0.0017849481
	          6  14         0.0013512805
	          1   2         0.0008717605

	Largest LIjAb Amplitudes:
	  3   3   6   6        -0.1189040020
	  4   4   4   4        -0.1189040020
	  3   4   6   4        -0.0678694061
	  4   3   4   6        -0.0678694061
	  3   3   6   7        -0.0400373316
	  3   3   7   6        -0.0400373316
	  4   4   4   5        -0.0400373316
	  4   4   5   4        -0.0400373316
	  3   4   4   6        -0.0387219220
	  4   3   6   4        -0.0387219220

	Iterations converged.

	Overlap <L|e^T> =        0.88200081613

			**************************
			*                        *
			*        CCDENSITY       *
			*                        *
			**************************


	Input parameters:
	-----------------
	Wave function    =   CCSD
	Reference wfn    =   RHF
	Dertype          = 1
	Tolerance        = 1.0e-14
	Cache Level      = 2
	AO Basis         = No
	OPDM Only        = No
	Relax OPDM       = Yes
	Compute Xi       = No
	Use Zeta         = No
	Xi connected     = Yes
	Compute NO       = No

	Nuclear Rep. energy (wfn)     =   24.323218171379235
	SCF energy          (wfn)     =  -76.789465771900666
	Reference energy    (file100) =  -76.789465771900709
	CCSD energy         (CC_INFO) =   -0.203795086209273
	Total CCSD energy   (CC_INFO) =  -76.993260858109977
	Number of States = 1

	Ground?  State     EOM Energy       R0
	  Yes     0 Ag    0.0000000000   1.00000000

	Virial Theorem Data:
	--------------------
	Kinetic energy (ref)   =   76.573391668045872
	Kinetic energy (corr)  =    0.354778286241136
	Kinetic energy (total) =   76.928169954287014
	-V/T (ref)             =    2.002821790953071
	-V/T (corr)            =    1.574429422861458
	-V/T (total)           =    2.000846125728217
  Cartesian Displacement SALCs
  By SALC:
  Number of SALCs: 2, nirreps: Ag
  Project out translations: False
  Project out rotations: False
	irrep = 0, ncomponent = 2
		0: atom 0, direction x, coef 0.707107
		1: atom 1, direction x, coef -0.707107
	irrep = 0, ncomponent = 2
		0: atom 2, direction x, coef 0.707107
		1: atom 3, direction x, coef -0.707107

  By Atomic Center:
  Number of atomic centers: 4
   Atomic Center 0:
	x component, size = 1
		0: salc 0, irrep 0, coef 0.707107
	y component, size = 0
	z component, size = 0
   Atomic Center 1:
	x component, size = 1
		0: salc 0, irrep 0, coef -0.707107
	y component, size = 0
	z component, size = 0
   Atomic Center 2:
	x component, size = 1
		0: salc 1, irrep 0, coef 0.707107
	y component, size = 0
	z component, size = 0
   Atomic Center 3:
	x component, size = 1
		0: salc 1, irrep 0, coef -0.707107
	y component, size = 0
	z component, size = 0

    Molecular point group: d2h
    Full point group: D_inf_h

    Geometry (in Bohr), charge = 0, multiplicity = 1:

       Center              X                  Y                   Z       
    ------------   -----------------  -----------------  -----------------
         C           -1.161161115049    -0.000000000000     0.000000000000
         C            1.161161115049     0.000000000000     0.000000000000
         H           -3.192182062907    -0.000000000000     0.000000000000
         H            3.192182062907     0.000000000000     0.000000000000

	Presorting MO-basis TPDM.
	Sorting File: MO TPDM (AA|AA) nbuckets = 1
	Starting first half-transformation.
	Sorting half-transformed TPDM.
	First half integral transformation complete.


  -Nuclear Repulsion Energy 1st Derivatives:
     Atom            X                  Y                   Z
    ------   -----------------  -----------------  -----------------
       1        5.537163209075     0.000000000000     0.000000000000
       2       -5.537163209075    -0.000000000000     0.000000000000
       3        1.795659009002     0.000000000000     0.000000000000
       4       -1.795659009002    -0.000000000000     0.000000000000


  -Core Hamiltonian Gradient:
     Atom            X                  Y                   Z
    ------   -----------------  -----------------  -----------------
       1      -17.114475754980    -0.000000000000     0.000000000000
       2       17.114475754980     0.000000000000     0.000000000000
       3       -4.373038442313    -0.000000000000     0.000000000000
       4        4.373038442313     0.000000000000     0.000000000000


  -Lagrangian contribution to gradient:
     Atom            X                  Y                   Z
    ------   -----------------  -----------------  -----------------
       1        0.678997879134     0.000000000000     0.000000000000
       2       -0.678997879134    -0.000000000000     0.000000000000
       3        0.212758970580     0.000000000000     0.000000000000
       4       -0.212758970580    -0.000000000000     0.000000000000


  -Two-electron contribution to gradient:
     Atom            X                  Y                   Z
    ------   -----------------  -----------------  -----------------
       1       10.895529862637     0.000000000000     0.000000000000
       2      -10.895529862637    -0.000000000000     0.000000000000
       3        2.363338671512     0.000000000000     0.000000000000
       4       -2.363338671512    -0.000000000000     0.000000000000


  -Total gradient:
     Atom            X                  Y                   Z
    ------   -----------------  -----------------  -----------------
       1       -0.002784804134    -0.000000000000     0.000000000000
       2        0.002784804134     0.000000000000     0.000000000000
       3       -0.001281791219    -0.000000000000     0.000000000000
       4        0.001281791219     0.000000000000     0.000000000000


  //>>>>>>>>>>>>>>>>>>>>>>>>>>>>>>>>>>>//
  //    Loading displacement 2 of 10   //
  //<<<<<<<<<<<<<<<<<<<<<<<<<<<<<<<<<<<//
gradient() will perform analytic gradient computation.

*** tstart() called on atlantis
*** at Tue Apr 19 01:47:27 2022

   => Loading Basis Set <=

    Name: 6-31G
    Role: ORBITAL
    Keyword: BASIS
    atoms 1-2 entry C          line    87 file /home/akrom/software/anaconda3/envs/ffpenv/share/psi4/basis/6-31g.gbs 
    atoms 3-4 entry H          line    26 file /home/akrom/software/anaconda3/envs/ffpenv/share/psi4/basis/6-31g.gbs 


         ---------------------------------------------------------
                                   SCF
               by Justin Turney, Rob Parrish, Andy Simmonett
                          and Daniel G. A. Smith
                              RHF Reference
                        1 Threads,    500 MiB Core
         ---------------------------------------------------------

  ==> Geometry <==

    Molecular point group: d2h
    Full point group: D_inf_h

    Geometry (in Angstrom), charge = 0, multiplicity = 1:

       Center              X                  Y                   Z               Mass       
    ------------   -----------------  -----------------  -----------------  -----------------
         C           -0.615000089229    -0.000000000000     0.000000000000    12.000000000000
         C            0.615000089229     0.000000000000     0.000000000000    12.000000000000
         H           -1.689230000000    -0.000000000000     0.000000000000     1.007825032230
         H            1.689230000000     0.000000000000     0.000000000000     1.007825032230

  Running in d2h symmetry.

  Rotational constants: A = ************  B =      1.13680  C =      1.13680 [cm^-1]
  Rotational constants: A = ************  B =  34080.32226  C =  34080.32226 [MHz]
  Nuclear repulsion =   24.311929094340595

  Charge       = 0
  Multiplicity = 1
  Electrons    = 14
  Nalpha       = 7
  Nbeta        = 7

  ==> Algorithm <==

  SCF Algorithm Type is PK.
  DIIS enabled.
  MOM disabled.
  Fractional occupation disabled.
  Guess Type is SAD.
  Energy threshold   = 1.00e-10
  Density threshold  = 1.00e-10
  Integral threshold = 0.00e+00

  ==> Primary Basis <==

  Basis Set: 6-31G
    Blend: 6-31G
    Number of shells: 14
    Number of basis function: 22
    Number of Cartesian functions: 22
    Spherical Harmonics?: false
    Max angular momentum: 1

  ==> Pre-Iterations <==

   -------------------------------------------------------
    Irrep   Nso     Nmo     Nalpha   Nbeta   Ndocc  Nsocc
   -------------------------------------------------------
     Ag         7       7       0       0       0       0
     B1g        2       2       0       0       0       0
     B2g        2       2       0       0       0       0
     B3g        0       0       0       0       0       0
     Au         0       0       0       0       0       0
     B1u        2       2       0       0       0       0
     B2u        2       2       0       0       0       0
     B3u        7       7       0       0       0       0
   -------------------------------------------------------
    Total      22      22       7       7       7       0
   -------------------------------------------------------

  ==> Integral Setup <==

  Using in-core PK algorithm.
   Calculation information:
      Number of atoms:                   4
      Number of AO shells:              14
      Number of primitives:             36
      Number of atomic orbitals:        22
      Number of basis functions:        22

      Integral cutoff                 1.00e-12
      Number of threads:                 1

  Performing in-core PK
  Using 64262 doubles for integral storage.
  We computed 5565 shell quartets total.
  Whereas there are 5565 unique shell quartets.

  ==> DiskJK: Disk-Based J/K Matrices <==

    J tasked:                  Yes
    K tasked:                  Yes
    wK tasked:                  No
    Memory [MiB]:              375
    Schwarz Cutoff:          1E-12

    OpenMP threads:              1

  Minimum eigenvalue in the overlap matrix is 1.3361415591E-03.
  Using Symmetric Orthogonalization.

  SCF Guess: Superposition of Atomic Densities via on-the-fly atomic UHF.

  ==> Iterations <==

                        Total Energy        Delta E     RMS |[F,P]|

   @RHF iter SAD:   -75.92529653510120   -7.59253e+01   0.00000e+00 
   @RHF iter   1:   -76.77046618934384   -8.45170e-01   1.55941e-02 DIIS
   @RHF iter   2:   -76.78824300404877   -1.77768e-02   3.81679e-03 DIIS
   @RHF iter   3:   -76.78928298086400   -1.03998e-03   6.91829e-04 DIIS
   @RHF iter   4:   -76.78934115290666   -5.81720e-05   1.18384e-04 DIIS
   @RHF iter   5:   -76.78934318016590   -2.02726e-06   7.72684e-06 DIIS
   @RHF iter   6:   -76.78934318724936   -7.08346e-09   4.11406e-07 DIIS
   @RHF iter   7:   -76.78934318726240   -1.30456e-11   2.11906e-08 DIIS
   @RHF iter   8:   -76.78934318726243   -2.84217e-14   2.83292e-09 DIIS
   @RHF iter   9:   -76.78934318726242    1.42109e-14   2.02262e-10 DIIS
   @RHF iter  10:   -76.78934318726242    0.00000e+00   1.71902e-11 DIIS
  Energy and wave function converged.


  ==> Post-Iterations <==

    Orbital Energies [Eh]
    ---------------------

    Doubly Occupied:                                                      

       1Ag   -11.255053     1B3u  -11.251939     2Ag    -1.023191  
       2B3u   -0.756463     3Ag    -0.669696     1B2u   -0.398414  
       1B1u   -0.398414  

    Virtual:                                                              

       1B2g    0.204434     1B1g    0.204434     3B3u    0.242732  
       4Ag     0.291244     4B3u    0.602429     5Ag     0.664919  
       2B2u    0.760164     2B1u    0.760164     2B1g    0.899397  
       2B2g    0.899397     5B3u    0.965958     6Ag     1.052477  
       7Ag     1.283281     6B3u    1.531228     7B3u    1.790491  

    Final Occupation by Irrep:
             Ag   B1g   B2g   B3g    Au   B1u   B2u   B3u 
    DOCC [     3,    0,    0,    0,    0,    1,    1,    2 ]

  @RHF Final Energy:   -76.78934318726242

   => Energetics <=

    Nuclear Repulsion Energy =             24.3119290943405950
    One-Electron Energy =                -150.6962060961016903
    Two-Electron Energy =                  49.5949338144986740
    Total Energy =                        -76.7893431872624177

Computation Completed


Properties will be evaluated at   0.000000,   0.000000,   0.000000 [a0]

Properties computed using the SCF density matrix

  Nuclear Dipole Moment: [e a0]
     X:     0.0000      Y:     0.0000      Z:     0.0000

  Electronic Dipole Moment: [e a0]
     X:     0.0000      Y:     0.0000      Z:     0.0000

  Dipole Moment: [e a0]
     X:     0.0000      Y:     0.0000      Z:     0.0000     Total:     0.0000

  Dipole Moment: [D]
     X:     0.0000      Y:     0.0000      Z:     0.0000     Total:     0.0000


*** tstop() called on atlantis at Tue Apr 19 01:47:27 2022
Module time:
	user time   =       0.25 seconds =       0.00 minutes
	system time =       0.00 seconds =       0.00 minutes
	total time  =          0 seconds =       0.00 minutes
Total time:
	user time   =       1.69 seconds =       0.03 minutes
	system time =       0.18 seconds =       0.00 minutes
	total time  =          2 seconds =       0.03 minutes
 MINTS: Wrapper to libmints.
   by Justin Turney

   Calculation information:
      Number of threads:                 1
      Number of atoms:                   4
      Number of AO shells:              14
      Number of SO shells:               7
      Number of primitives:             36
      Number of atomic orbitals:        22
      Number of basis functions:        22

      Number of irreps:                  8
      Integral cutoff                 0.00e+00
      Number of functions per irrep: [   7    2    2    0    0    2    2    7 ]

 OEINTS: Overlap, kinetic, potential, dipole, and quadrupole integrals
         stored in file 35.

      Computing two-electron integrals...done
      Computed 5695 non-zero two-electron integrals.
        Stored in file 33.


*** tstart() called on atlantis
*** at Tue Apr 19 01:47:27 2022


	Wfn Parameters:
	--------------------
	Wavefunction         = CCSD
	Number of irreps     = 8
	Number of MOs        = 22
	Number of active MOs = 22
	AO-Basis             = NONE
	Semicanonical        = false
	Reference            = RHF
	Print Level          = 1

	IRREP	# MOs	# FZDC	# DOCC	# SOCC	# VIRT	# FZVR
	-----	-----	------	------	------	------	------
	 Ag	   7	    0	    3	    0	    4	    0
	 B1g	   2	    0	    0	    0	    2	    0
	 B2g	   2	    0	    0	    0	    2	    0
	 B3g	   0	    0	    0	    0	    0	    0
	 Au	   0	    0	    0	    0	    0	    0
	 B1u	   2	    0	    1	    0	    1	    0
	 B2u	   2	    0	    1	    0	    1	    0
	 B3u	   7	    0	    2	    0	    5	    0
	Transforming integrals...
	IWL integrals will be deleted.
	(OO|OO)...
	Presorting SO-basis two-electron integrals.
	Sorting File: SO Ints (nn|nn) nbuckets = 1
	Transforming the one-electron integrals and constructing Fock matrices
	Starting first half-transformation.
	Sorting half-transformed integrals.
	First half integral transformation complete.
	Starting second half-transformation.
	Two-electron integral transformation complete.
	(OO|OV)...
	Starting second half-transformation.
	Two-electron integral transformation complete.
	(OO|VV)...
	Starting second half-transformation.
	Two-electron integral transformation complete.
	(OV|OO)...
	Starting first half-transformation.
	Sorting half-transformed integrals.
	First half integral transformation complete.
	Starting second half-transformation.
	Two-electron integral transformation complete.
	(OV|OV)...
	Starting second half-transformation.
	Two-electron integral transformation complete.
	(OV|VV)...
	Starting second half-transformation.
	Two-electron integral transformation complete.
	(VV|OO)...
	Starting first half-transformation.
	Sorting half-transformed integrals.
	First half integral transformation complete.
	Starting second half-transformation.
	Two-electron integral transformation complete.
	(VV|OV)...
	Starting second half-transformation.
	Two-electron integral transformation complete.
	(VV|VV)...
	Starting second half-transformation.
	Two-electron integral transformation complete.
	Frozen core energy     =      0.00000000000000

	Size of irrep 0 of <ab|cd> integrals:      0.003 (MW) /      0.021 (MB)
	Size of irrep 1 of <ab|cd> integrals:      0.001 (MW) /      0.005 (MB)
[...]
     7        -0.203796026977645    4.216e-05    0.010942    0.026346    0.026346    0.189571
     8        -0.203795193450462    1.105e-05    0.010942    0.026346    0.026346    0.189570
     9        -0.203795186099627    2.630e-06    0.010942    0.026346    0.026346    0.189570
    10        -0.203795221590786    6.758e-07    0.010942    0.026346    0.026346    0.189570
    11        -0.203795200990558    1.796e-07    0.010942    0.026346    0.026346    0.189570
    12        -0.203795202952153    3.717e-08    0.010942    0.026346    0.026346    0.189570
    13        -0.203795201937753    9.320e-09    0.010942    0.026346    0.026346    0.189570

    Iterations converged.


    Largest TIA Amplitudes:
              5  10         0.0263459107
              6  13         0.0263459107
              4   1        -0.0125968403
              3   0        -0.0081515403
              4   6        -0.0049149691
              4   5         0.0035546442
              3   4         0.0031541854
              2   3        -0.0019666895
              3   2         0.0019254608
              3   7         0.0017056629

    Largest TIjAb Amplitudes:
      5   5   9   9        -0.1217509536
      6   6  12  12        -0.1217509536
      5   6   9  12        -0.0719998043
      6   5  12   9        -0.0719998043
      5   5   9  11        -0.0411824355
      5   5  11   9        -0.0411824355
      6   6  12  14        -0.0411824355
      6   6  14  12        -0.0411824355
      5   6  12   9        -0.0368857888
      6   5   9  12        -0.0368857888

    SCF energy       (wfn)                    =  -76.789460298156911
    Reference energy (file100)                =  -76.789460298156911

    Opposite-spin MP2 correlation energy      =   -0.144853671204717
    Same-spin MP2 correlation energy          =   -0.044885766655091
    MP2 correlation energy                    =   -0.189739437859808
      * MP2 total energy                      =  -76.979199736016724

    Opposite-spin CCSD correlation energy     =   -0.171095023731629
    Same-spin CCSD correlation energy         =   -0.032700178206124
    CCSD correlation energy                   =   -0.203795201937753
      * CCSD total energy                     =  -76.993255500094662


			**************************
			*                        *
			*         CCHBAR         *
			*                        *
			**************************


			**************************
			*        CCLAMBDA        *
			**************************


	Nuclear Rep. energy (wfn)     =   24.323239383855910
	Reference           (wfn)     =                    0
	SCF energy          (wfn)     =  -76.789460298156911
	Reference energy    (CC_INFO) =  -76.789460298156911
	CCSD energy         (CC_INFO) =   -0.203795201937753
	Total CCSD energy   (CC_INFO) =  -76.993255500094662

	Input parameters:
	-----------------
	Maxiter           =     50
	Convergence       = 1.0e-07
	Restart           =     No
	Cache Level       =     2
	Model III         =     No
	DIIS              =     Yes
	AO Basis          =     No
	ABCD              =     NEW
	Local CC          =     No
	Parameters for left-handed eigenvectors:
	    Irr   Root  Ground-State?    EOM energy        R0
	  1   0     0        Yes       0.0000000000   1.0000000000
	Labels for eigenvector 1:
	LIA 0 -1, Lia 0 -1, LIJAB 0 -1, Lijab 0 -1, LIjAb 0 -1, 2LIjAb - LIjbA 0 -1
	Symmetry of left-hand state: A1
	Symmetry of left-hand eigenvector: A1

	          Solving Lambda Equations
	          ------------------------
	Iter     PseudoEnergy or Norm         RMS  
	----     ---------------------     --------
	   0        -0.203926253705061    4.508e-08
	   1        -0.199517453476500    1.738e-02
	   2        -0.198416673462936    3.341e-03
	   3        -0.198319145714101    8.083e-04
	   4        -0.198282490123820    2.189e-04
	   5        -0.198284875435014    6.569e-05
	   6        -0.198287143242553    2.304e-05
	   7        -0.198288367960885    7.330e-06
	   8        -0.198288769482107    2.420e-06
	   9        -0.198288824804376    6.696e-07
	  10        -0.198288844352860    2.047e-07
	  11        -0.198288845714831    4.509e-08

	Largest LIA Amplitudes:
	          5  10         0.0179330432
	          6  13         0.0179330432
	          4   1        -0.0143365058
	          3   0        -0.0103659492
	          4   6        -0.0044076099
	          2   3        -0.0028973931
	          3   7         0.0023731850
	          3   2         0.0017849389
	          3   8         0.0013513132
	          2   5         0.0008717290

	Largest LIjAb Amplitudes:
	  5   5   9   9        -0.1189040425
	  6   6  12  12        -0.1189040425
	  5   6   9  12        -0.0678694197
	  6   5  12   9        -0.0678694197
	  5   5   9  11        -0.0400373352
	  5   5  11   9        -0.0400373352
	  6   6  12  14        -0.0400373352
	  6   6  14  12        -0.0400373352
	  5   6  12   9        -0.0387219489
	  6   5   9  12        -0.0387219489

	Iterations converged.

	Overlap <L|e^T> =        0.88200048091

			**************************
			*                        *
			*        CCDENSITY       *
			*                        *
			**************************


	Input parameters:
	-----------------
	Wave function    =   CCSD
	Reference wfn    =   RHF
	Dertype          = 1
	Tolerance        = 1.0e-14
	Cache Level      = 2
	AO Basis         = No
	OPDM Only        = No
	Relax OPDM       = Yes
	Compute Xi       = No
	Use Zeta         = No
	Xi connected     = Yes
	Compute NO       = No

	Nuclear Rep. energy (wfn)     =   24.323239383855910
	SCF energy          (wfn)     =  -76.789460298156911
	Reference energy    (file100) =  -76.789460298156911
	CCSD energy         (CC_INFO) =   -0.203795201937753
	Total CCSD energy   (CC_INFO) =  -76.993255500094662
	Number of States = 1

	Ground?  State     EOM Energy       R0
	  Yes     0 A1    0.0000000000   1.00000000

	Virial Theorem Data:
	--------------------
	Kinetic energy (ref)   =   76.573405552492602
	Kinetic energy (corr)  =    0.354778745242953
	Kinetic energy (total) =   76.928184297735555
	-V/T (ref)             =    2.002821537635755
	-V/T (corr)            =    1.574429005881380
	-V/T (total)           =    2.000845869468429
  Cartesian Displacement SALCs
  By SALC:
  Number of SALCs: 4, nirreps: A1
  Project out translations: False
  Project out rotations: False
	irrep = 0, ncomponent = 1
		0: atom 0, direction x, coef 1.000000
	irrep = 0, ncomponent = 1
		0: atom 1, direction x, coef 1.000000
	irrep = 0, ncomponent = 1
		0: atom 2, direction x, coef 1.000000
	irrep = 0, ncomponent = 1
		0: atom 3, direction x, coef 1.000000

  By Atomic Center:
  Number of atomic centers: 4
   Atomic Center 0:
	x component, size = 1
		0: salc 0, irrep 0, coef 1.000000
	y component, size = 0
	z component, size = 0
   Atomic Center 1:
	x component, size = 1
		0: salc 1, irrep 0, coef 1.000000
	y component, size = 0
	z component, size = 0
   Atomic Center 2:
	x component, size = 1
		0: salc 2, irrep 0, coef 1.000000
	y component, size = 0
	z component, size = 0
   Atomic Center 3:
	x component, size = 1
		0: salc 3, irrep 0, coef 1.000000
	y component, size = 0
	z component, size = 0

    Molecular point group: c2v
    Full point group: C_inf_v

    Geometry (in Bohr), charge = 0, multiplicity = 1:

       Center              X                  Y                   Z       
    ------------   -----------------  -----------------  -----------------
         C           -1.161445204175     0.000000000000     0.000000000000
         C            1.160877025923     0.000000000000     0.000000000000
         H           -3.188799462353     0.000000000000     0.000000000000
         H            3.195564663461     0.000000000000     0.000000000000

	Presorting MO-basis TPDM.
	Sorting File: MO TPDM (AA|AA) nbuckets = 1
	Starting first half-transformation.
	Sorting half-transformed TPDM.
	First half integral transformation complete.


  -Nuclear Repulsion Energy 1st Derivatives:
     Atom            X                  Y                   Z
    ------   -----------------  -----------------  -----------------
       1        5.531364458616     0.000000000000     0.000000000000
       2       -5.542934862809     0.000000000000     0.000000000000
       3        1.801459107056     0.000000000000     0.000000000000
       4       -1.789888702864     0.000000000000     0.000000000000


  -Core Hamiltonian Gradient:
     Atom            X                  Y                   Z
    ------   -----------------  -----------------  -----------------
       1      -17.106609395965     0.000000000000     0.000000000000
       2       17.122256811639     0.000000000000     0.000000000000
       3       -4.380867880950     0.000000000000     0.000000000000
       4        4.365220465275     0.000000000000     0.000000000000


  -Lagrangian contribution to gradient:
     Atom            X                  Y                   Z
    ------   -----------------  -----------------  -----------------
       1        0.678646890038     0.000000000000     0.000000000000
       2       -0.679333821092     0.000000000000     0.000000000000
       3        0.213102443223     0.000000000000     0.000000000000
       4       -0.212415512169     0.000000000000     0.000000000000


  -Two-electron contribution to gradient:
     Atom            X                  Y                   Z
    ------   -----------------  -----------------  -----------------
       1       10.892343451917     0.000000000000     0.000000000000
       2      -10.898656095441     0.000000000000     0.000000000000
       3        2.366494130317     0.000000000000     0.000000000000
       4       -2.360181486792     0.000000000000     0.000000000000


  -Total gradient:
     Atom            X                  Y                   Z
    ------   -----------------  -----------------  -----------------
       1       -0.004254595394     0.000000000000     0.000000000000
       2        0.001332032297     0.000000000000     0.000000000000
       3        0.000187799646     0.000000000000     0.000000000000
       4        0.002734763451     0.000000000000     0.000000000000


         ----------------------------------------------------------
                                   FINDIF
                     R. A. King and Jonathon Misiewicz
         ---------------------------------------------------------

  Computing second-derivative from gradients using projected, 
  symmetry-adapted, cartesian coordinates.

  10 gradients passed in, including the reference geometry.
  Generating complete list of displacements from unique ones.

    Operation 3 takes plus displacements of irrep B1g to minus ones.
    Operation 2 takes plus displacements of irrep B2g to minus ones.
    Operation 3 takes plus displacements of irrep B1u to minus ones.
    Operation 2 takes plus displacements of irrep B2u to minus ones.
    Operation 2 takes plus displacements of irrep B3u to minus ones.

-------------------------------------------------------------


  ==> Harmonic Vibrational Analysis <==

  non-mass-weighted Hessian:       Symmetric? True   Hermitian? True   Lin Dep Dim?  5 (0)
  projection of translations (True) and rotations (True) removed 5 degrees of freedom (5)
  total projector:                 Symmetric? True   Hermitian? True   Lin Dep Dim?  5 (5)
  mass-weighted Hessian:           Symmetric? True   Hermitian? True   Lin Dep Dim?  5 (0)
  pre-proj  low-frequency mode:    0.0000i [cm^-1]
  pre-proj  low-frequency mode:    0.0000i [cm^-1]
  pre-proj  low-frequency mode:    0.0000  [cm^-1]
  pre-proj  low-frequency mode:    0.0000  [cm^-1]
  pre-proj  low-frequency mode:    0.0000  [cm^-1]
  pre-proj  all modes:['0.0000i' '0.0000i' '0.0000' '0.0000' '0.0000' '458.6015' '458.6015'
 '729.1749' '729.1749' '1981.7291' '3365.5287' '3465.2813']
  projected mass-weighted Hessian: Symmetric? True   Hermitian? True   Lin Dep Dim?  5 (5)
  post-proj low-frequency mode:    0.0000i [cm^-1] (TR)
  post-proj low-frequency mode:    0.0000i [cm^-1] (TR)
  post-proj low-frequency mode:    0.0000i [cm^-1] (TR)
  post-proj low-frequency mode:    0.0000i [cm^-1] (TR)
  post-proj low-frequency mode:    0.0000  [cm^-1] (TR)
  post-proj  all modes:['0.0000i' '0.0000i' '0.0000i' '0.0000i' '0.0000' '458.6015' '458.6015'
 '729.1749' '729.1749' '1981.7291' '3365.5287' '3465.2813']

  Vibration                       6                   7                   8           
  Freq [cm^-1]                 458.6015            458.6015            729.1749       
  Irrep                                                                  B2u          
  Reduced mass [u]              1.5641              1.5641              1.0848        
  Force const [mDyne/A]         0.1938              0.1938              0.3398        
  Turning point v=0 [a0]        0.4097              0.4097              0.3901        
  RMS dev v=0 [a0 u^1/2]        0.3623              0.3623              0.2873        
  Char temp [K]                659.8255            659.8255           1049.1203       
  ----------------------------------------------------------------------------------
      1   C               -0.00 -0.16  0.00   -0.00 -0.00 -0.16   -0.00 -0.06  0.00   
      2   C               -0.00  0.16 -0.00   -0.00  0.00  0.16   -0.00 -0.06  0.00   
      3   H               -0.00  0.69 -0.00   -0.00  0.00  0.69   -0.00  0.70 -0.00   
      4   H                0.00 -0.69  0.00   -0.00 -0.00 -0.69    0.00  0.70 -0.00   

  Vibration                       9                   10                  11          
  Freq [cm^-1]                 729.1749           1981.7291           3365.5287       
  Irrep                          B1u                  Ag                 B3u          
  Reduced mass [u]              1.0848              3.9143              1.0848        
  Force const [mDyne/A]         0.3398              9.0573              7.2396        
  Turning point v=0 [a0]        0.3901              0.1246              0.1816        
  RMS dev v=0 [a0 u^1/2]        0.2873              0.1743              0.1337        
  Char temp [K]               1049.1203           2851.2669           4842.2465       
  ----------------------------------------------------------------------------------
      1   C               -0.00 -0.00 -0.06    0.36 -0.00 -0.00   -0.06  0.00  0.00   
      2   C               -0.00 -0.00 -0.06   -0.36  0.00 -0.00   -0.06  0.00 -0.00   
      3   H               -0.00  0.00  0.70    0.61 -0.00  0.00    0.70 -0.00  0.00   
      4   H               -0.00  0.00  0.70   -0.61  0.00 -0.00    0.70  0.00 -0.00   

  Vibration                       12          
  Freq [cm^-1]                3465.2813       
  Irrep                           Ag          
  Reduced mass [u]              1.2194        
  Force const [mDyne/A]         8.6270        
  Turning point v=0 [a0]        0.1688        
  RMS dev v=0 [a0 u^1/2]        0.1318        
  Char temp [K]               4985.7683       
  ----------------------------------------------------------------------------------
      1   C               -0.10  0.00 -0.00   
      2   C                0.10 -0.00  0.00   
      3   H                0.70  0.00 -0.00   
      4   H               -0.70 -0.00  0.00   

  ==> Thermochemistry Components <==

  Entropy, S
    Electronic S            0.000 [cal/(mol K)]        0.000 [J/(mol K)]       0.00000000 [mEh/K] (multiplicity = 1)
    Translational S        35.704 [cal/(mol K)]      149.387 [J/(mol K)]       0.05689862 [mEh/K] (mol. weight = 26.0157 [u], P = 101325.00 [Pa])
    Rotational S           10.952 [cal/(mol K)]       45.824 [J/(mol K)]       0.01745345 [mEh/K] (symmetry no. = 2)
    Vibrational S           2.089 [cal/(mol K)]        8.738 [J/(mol K)]       0.00332829 [mEh/K]
  Total S                  48.745 [cal/(mol K)]      203.950 [J/(mol K)]       0.07768036 [mEh/K]
  Correction S              0.000 [cal/(mol K)]        0.000 [J/(mol K)]       0.00000000 [mEh/K]

  Constant volume heat capacity, Cv
    Electronic Cv           0.000 [cal/(mol K)]        0.000 [J/(mol K)]       0.00000000 [mEh/K]
    Translational Cv        2.981 [cal/(mol K)]       12.472 [J/(mol K)]       0.00475022 [mEh/K]
    Rotational Cv           1.987 [cal/(mol K)]        8.314 [J/(mol K)]       0.00316681 [mEh/K]
    Vibrational Cv          4.245 [cal/(mol K)]       17.763 [J/(mol K)]       0.00676549 [mEh/K]
  Total Cv                  9.213 [cal/(mol K)]       38.549 [J/(mol K)]       0.01468251 [mEh/K]
  Correction Cv             0.000 [cal/(mol K)]        0.000 [J/(mol K)]       0.00000000 [mEh/K]

  Constant pressure heat capacity, Cp
    Electronic Cp           0.000 [cal/(mol K)]        0.000 [J/(mol K)]       0.00000000 [mEh/K]
    Translational Cp        4.968 [cal/(mol K)]       20.786 [J/(mol K)]       0.00791703 [mEh/K]
    Rotational Cp           1.987 [cal/(mol K)]        8.314 [J/(mol K)]       0.00316681 [mEh/K]
    Vibrational Cp          4.245 [cal/(mol K)]       17.763 [J/(mol K)]       0.00676549 [mEh/K]
  Total Cp                 11.201 [cal/(mol K)]       46.863 [J/(mol K)]       0.01784932 [mEh/K]
  Correction Cp             0.000 [cal/(mol K)]        0.000 [J/(mol K)]       0.00000000 [mEh/K]

  ==> Thermochemistry Energy Analysis <==

  Raw electronic energy, E0
  Total E0, Electronic energy at well bottom at 0 [K]                  -76.99326086 [Eh]

  Zero-point energy, ZPE_vib = Sum_i nu_i / 2
    Electronic ZPE          0.000 [kcal/mol]        0.000 [kJ/mol]       0.00000000 [Eh]
    Translational ZPE       0.000 [kcal/mol]        0.000 [kJ/mol]       0.00000000 [Eh]
    Rotational ZPE          0.000 [kcal/mol]        0.000 [kJ/mol]       0.00000000 [Eh]
    Vibrational ZPE        15.994 [kcal/mol]       66.920 [kJ/mol]       0.02548835 [Eh]        5594.046 [cm^-1]
  Correction ZPE           15.994 [kcal/mol]       66.920 [kJ/mol]       0.02548835 [Eh]        5594.046 [cm^-1]
  Total ZPE, Electronic energy at 0 [K]                                -76.96777251 [Eh]

  Thermal Energy, E (includes ZPE)
    Electronic E            0.000 [kcal/mol]        0.000 [kJ/mol]       0.00000000 [Eh]
    Translational E         0.889 [kcal/mol]        3.718 [kJ/mol]       0.00141628 [Eh]
    Rotational E            0.592 [kcal/mol]        2.479 [kJ/mol]       0.00094418 [Eh]
    Vibrational E          16.444 [kcal/mol]       68.801 [kJ/mol]       0.02620509 [Eh]
  Correction E             17.925 [kcal/mol]       74.999 [kJ/mol]       0.02856555 [Eh]
  Total E, Electronic energy at  298.15 [K]                            -76.96469531 [Eh]

  Enthalpy, H_trans = E_trans + k_B * T
    Electronic H            0.000 [kcal/mol]        0.000 [kJ/mol]       0.00000000 [Eh]
    Translational H         1.481 [kcal/mol]        6.197 [kJ/mol]       0.00236046 [Eh]
    Rotational H            0.592 [kcal/mol]        2.479 [kJ/mol]       0.00094418 [Eh]
    Vibrational H          16.444 [kcal/mol]       68.801 [kJ/mol]       0.02620509 [Eh]
  Correction H             18.518 [kcal/mol]       77.478 [kJ/mol]       0.02950974 [Eh]
  Total H, Enthalpy at  298.15 [K]                                     -76.96375112 [Eh]

  Gibbs free energy, G = H - T * S
    Electronic G            0.000 [kcal/mol]        0.000 [kJ/mol]       0.00000000 [Eh]
    Translational G        -9.164 [kcal/mol]      -38.342 [kJ/mol]      -0.01460386 [Eh]
    Rotational G           -2.673 [kcal/mol]      -11.183 [kJ/mol]      -0.00425956 [Eh]
    Vibrational G          15.821 [kcal/mol]       66.196 [kJ/mol]       0.02521276 [Eh]
  Correction G              3.984 [kcal/mol]       16.670 [kJ/mol]       0.00634934 [Eh]
  Total G, Free enthalpy at  298.15 [K]                                -76.98691152 [Eh]

    Psi4 stopped on: Tuesday, 19 April 2022 01:47AM
    Psi4 wall time for execution: 0:00:07.50

*** Psi4 exiting successfully. Buy a developer a beer!
