
    -----------------------------------------------------------------------
          Psi4: An Open-Source Ab Initio Electronic Structure Package
                               Psi4 1.3.2 release

                         Git: Rev {HEAD} ecbda83 


    R. M. Parrish, L. A. Burns, D. G. A. Smith, A. C. Simmonett,
    A. E. DePrince III, E. G. Hohenstein, U. Bozkaya, A. Yu. Sokolov,
    R. Di Remigio, R. M. Richard, J. F. Gonthier, A. M. James,
    H. R. McAlexander, A. Kumar, M. Saitow, X. Wang, B. P. Pritchard,
    P. Verma, H. F. Schaefer III, K. Patkowski, R. A. King, E. F. Valeev,
    F. A. Evangelista, J. M. Turney, T. D. Crawford, and C. D. Sherrill,
    J. Chem. Theory Comput. 13(7) pp 3185--3197 (2017).
    (doi: 10.1021/acs.jctc.7b00174)


                         Additional Contributions by
    P. Kraus, H. Kruse, M. H. Lechner, M. C. Schieber, R. A. Shaw,
    A. Alenaizan, R. Galvelis, Z. L. Glick, S. Lehtola, and J. P. Misiewicz

    -----------------------------------------------------------------------


    Psi4 started on: Tuesday, 19 April 2022 12:19AM

    Process ID: 25377
    Host:       atlantis
    PSIDATADIR: /home/akrom/software/anaconda3/envs/ffpenv/share/psi4
    Memory:     500.0 MiB
    Threads:    1
    
  ==> Input File <==

--------------------------------------------------------------------------
set basis  6-31++G**
molecule {
0 1
   O        0.00000        0.00000       -0.06797
   H        0.74903        0.00000        0.53936
   H       -0.74903        0.00000        0.53936
}
energy('CCSD')
frequencies('CCSD')


--------------------------------------------------------------------------

*** tstart() called on atlantis
*** at Tue Apr 19 00:19:41 2022

   => Loading Basis Set <=

    Name: 6-31++G**
    Role: ORBITAL
    Keyword: BASIS
    atoms 1   entry O          line   153 file /home/akrom/software/anaconda3/envs/ffpenv/share/psi4/basis/6-31ppgss.gbs 
    atoms 2-3 entry H          line    46 file /home/akrom/software/anaconda3/envs/ffpenv/share/psi4/basis/6-31ppgss.gbs 


         ---------------------------------------------------------
                                   SCF
               by Justin Turney, Rob Parrish, Andy Simmonett
                          and Daniel G. A. Smith
                              RHF Reference
                        1 Threads,    500 MiB Core
         ---------------------------------------------------------

  ==> Geometry <==

    Molecular point group: c2v
    Full point group: C2v

    Geometry (in Angstrom), charge = 0, multiplicity = 1:

       Center              X                  Y                   Z               Mass       
    ------------   -----------------  -----------------  -----------------  -----------------
         O            0.000000000000     0.000000000000    -0.067969259994    15.994914619570
         H            0.749030000000     0.000000000000     0.539360740006     1.007825032230
         H           -0.749030000000    -0.000000000000     0.539360740006     1.007825032230

  Running in c2v symmetry.

  Rotational constants: A =     25.53156  B =     14.90675  C =      9.41168 [cm^-1]
  Rotational constants: A = 765416.81232  B = 446893.08836  C = 282155.15104 [MHz]
  Nuclear repulsion =    9.133433460995141

  Charge       = 0
  Multiplicity = 1
  Electrons    = 10
  Nalpha       = 5
  Nbeta        = 5

  ==> Algorithm <==

  SCF Algorithm Type is PK.
  DIIS enabled.
  MOM disabled.
  Fractional occupation disabled.
  Guess Type is SAD.
  Energy threshold   = 1.00e-08
  Density threshold  = 1.00e-08
  Integral threshold = 0.00e+00

  ==> Primary Basis <==

  Basis Set: 6-31++G**
    Blend: 6-31++G**
    Number of shells: 16
    Number of basis function: 31
    Number of Cartesian functions: 31
    Spherical Harmonics?: false
    Max angular momentum: 2

  ==> Pre-Iterations <==

   -------------------------------------------------------
    Irrep   Nso     Nmo     Nalpha   Nbeta   Ndocc  Nsocc
   -------------------------------------------------------
     A1        15      15       0       0       0       0
     A2         2       2       0       0       0       0
     B1         9       9       0       0       0       0
     B2         5       5       0       0       0       0
   -------------------------------------------------------
    Total      31      31       5       5       5       0
   -------------------------------------------------------

  ==> Integral Setup <==

  Using in-core PK algorithm.
   Calculation information:
      Number of atoms:                   3
      Number of AO shells:              16
      Number of primitives:             29
      Number of atomic orbitals:        31
      Number of basis functions:        31

      Integral cutoff                 1.00e-12
      Number of threads:                 1

  Performing in-core PK
  Using 246512 doubles for integral storage.
  We computed 9316 shell quartets total.
  Whereas there are 9316 unique shell quartets.

  ==> DiskJK: Disk-Based J/K Matrices <==

    J tasked:                  Yes
    K tasked:                  Yes
    wK tasked:                  No
    Memory [MiB]:              375
    Schwarz Cutoff:          1E-12

    OpenMP threads:              1

  Minimum eigenvalue in the overlap matrix is 1.2582576837E-02.
  Using Symmetric Orthogonalization.

  SCF Guess: Superposition of Atomic Densities via on-the-fly atomic UHF.

  ==> Iterations <==

                        Total Energy        Delta E     RMS |[F,P]|

   @RHF iter SAD:   -75.44658855914288   -7.54466e+01   0.00000e+00 
   @RHF iter   1:   -75.94410192298632   -4.97513e-01   2.50124e-02 DIIS
   @RHF iter   2:   -75.99966269291906   -5.55608e-02   1.62031e-02 DIIS
   @RHF iter   3:   -76.02945732237413   -2.97946e-02   1.18678e-03 DIIS
   @RHF iter   4:   -76.02983255875830   -3.75236e-04   2.60889e-04 DIIS
   @RHF iter   5:   -76.02985166630265   -1.91075e-05   4.95677e-05 DIIS
   @RHF iter   6:   -76.02985277455892   -1.10826e-06   1.13172e-05 DIIS
   @RHF iter   7:   -76.02985283929145   -6.47325e-08   1.41196e-06 DIIS
   @RHF iter   8:   -76.02985284017031   -8.78856e-10   2.43252e-07 DIIS
   @RHF iter   9:   -76.02985284019555   -2.52385e-11   6.81176e-08 DIIS
   @RHF iter  10:   -76.02985284019746   -1.91847e-12   7.28373e-09 DIIS
  Energy and wave function converged.


  ==> Post-Iterations <==

    Orbital Energies [Eh]
    ---------------------

    Doubly Occupied:                                                      

       1A1   -20.584853     2A1    -1.355043     1B1    -0.711109  
       3A1    -0.587364     1B2    -0.509579  

    Virtual:                                                              

       4A1     0.041361     2B1     0.072111     5A1     0.239477  
       2B2     0.252274     6A1     0.280043     3B1     0.314503  
       4B1     0.352846     7A1     0.411101     5B1     1.162031  
       8A1     1.274434     3B2     1.404037     9A1     1.404806  
       6B1     1.429356    10A1     1.606624     1A2     1.794677  
      11A1     1.801094     4B2     1.904920    12A1     2.574223  
       7B1     2.574674     8B1     2.857182     2A2     2.942906  
       5B2     2.998524    13A1     3.352190    14A1     3.735110  
       9B1     3.965748    15A1     4.427015  

    Final Occupation by Irrep:
             A1    A2    B1    B2 
    DOCC [     3,    0,    1,    1 ]

  @RHF Final Energy:   -76.02985284019746

   => Energetics <=

    Nuclear Repulsion Energy =              9.1334334609951409
    One-Electron Energy =                -122.8306765240346863
    Two-Electron Energy =                  37.6673902228420872
    Total Energy =                        -76.0298528401974636

Computation Completed


Properties will be evaluated at   0.000000,   0.000000,   0.000000 [a0]

Properties computed using the SCF density matrix

  Nuclear Dipole Moment: [e a0]
     X:     0.0000      Y:     0.0000      Z:     1.0109

  Electronic Dipole Moment: [e a0]
     X:     0.0000      Y:     0.0000      Z:    -0.0915

  Dipole Moment: [e a0]
     X:     0.0000      Y:     0.0000      Z:     0.9194     Total:     0.9194

  Dipole Moment: [D]
     X:     0.0000      Y:     0.0000      Z:     2.3370     Total:     2.3370


*** tstop() called on atlantis at Tue Apr 19 00:19:41 2022
Module time:
	user time   =       0.24 seconds =       0.00 minutes
	system time =       0.00 seconds =       0.00 minutes
	total time  =          0 seconds =       0.00 minutes
Total time:
	user time   =       0.24 seconds =       0.00 minutes
	system time =       0.00 seconds =       0.00 minutes
	total time  =          0 seconds =       0.00 minutes
 MINTS: Wrapper to libmints.
   by Justin Turney

   Calculation information:
      Number of threads:                 1
      Number of atoms:                   3
      Number of AO shells:              16
      Number of SO shells:              12
      Number of primitives:             29
      Number of atomic orbitals:        31
      Number of basis functions:        31

      Number of irreps:                  4
      Integral cutoff                 0.00e+00
      Number of functions per irrep: [  15    2    9    5 ]

 OEINTS: Overlap, kinetic, potential, dipole, and quadrupole integrals
         stored in file 35.

      Computing two-electron integrals...done
      Computed 32030 non-zero two-electron integrals.
        Stored in file 33.


*** tstart() called on atlantis
*** at Tue Apr 19 00:19:41 2022


	Wfn Parameters:
	--------------------
	Wavefunction         = CCSD
	Number of irreps     = 4
	Number of MOs        = 31
	Number of active MOs = 31
	AO-Basis             = NONE
	Semicanonical        = false
	Reference            = RHF
	Print Level          = 1

	IRREP	# MOs	# FZDC	# DOCC	# SOCC	# VIRT	# FZVR
	-----	-----	------	------	------	------	------
	 A1	   15	    0	    3	    0	    12	    0
	 A2	   2	    0	    0	    0	    2	    0
	 B1	   9	    0	    1	    0	    8	    0
	 B2	   5	    0	    1	    0	    4	    0
	Transforming integrals...
	IWL integrals will be deleted.
	(OO|OO)...
	Presorting SO-basis two-electron integrals.
	Sorting File: SO Ints (nn|nn) nbuckets = 1
	Transforming the one-electron integrals and constructing Fock matrices
	Starting first half-transformation.
	Sorting half-transformed integrals.
	First half integral transformation complete.
	Starting second half-transformation.
	Two-electron integral transformation complete.
	(OO|OV)...
	Starting second half-transformation.
	Two-electron integral transformation complete.
	(OO|VV)...
	Starting second half-transformation.
	Two-electron integral transformation complete.
	(OV|OO)...
	Starting first half-transformation.
	Sorting half-transformed integrals.
	First half integral transformation complete.
	Starting second half-transformation.
	Two-electron integral transformation complete.
	(OV|OV)...
	Starting second half-transformation.
	Two-electron integral transformation complete.
	(OV|VV)...
	Starting second half-transformation.
	Two-electron integral transformation complete.
	(VV|OO)...
	Starting first half-transformation.
	Sorting half-transformed integrals.
	First half integral transformation complete.
	Starting second half-transformation.
	Two-electron integral transformation complete.
	(VV|OV)...
	Starting second half-transformation.
	Two-electron integral transformation complete.
	(VV|VV)...
	Starting second half-transformation.
	Two-electron integral transformation complete.
	Frozen core energy     =      0.00000000000000

	Size of irrep 0 of <ab|cd> integrals:      0.052 (MW) /      0.416 (MB)
	Size of irrep 1 of <ab|cd> integrals:      0.013 (MW) /      0.100 (MB)
	Size of irrep 2 of <ab|cd> integrals:      0.043 (MW) /      0.346 (MB)
	Size of irrep 3 of <ab|cd> integrals:      0.016 (MW) /      0.131 (MB)
	Total:                                     0.124 (MW) /      0.993 (MB)

	Size of irrep 0 of <ia|bc> integrals:      0.011 (MW) /      0.088 (MB)
	Size of irrep 1 of <ia|bc> integrals:      0.002 (MW) /      0.016 (MB)
	Size of irrep 2 of <ia|bc> integrals:      0.008 (MW) /      0.063 (MB)
	Size of irrep 3 of <ia|bc> integrals:      0.003 (MW) /      0.027 (MB)
	Total:                                     0.024 (MW) /      0.194 (MB)

	Size of irrep 0 of tijab amplitudes:       0.003 (MW) /      0.020 (MB)
	Size of irrep 1 of tijab amplitudes:       0.000 (MW) /      0.002 (MB)
	Size of irrep 2 of tijab amplitudes:       0.001 (MW) /      0.010 (MB)
	Size of irrep 3 of tijab amplitudes:       0.001 (MW) /      0.006 (MB)
	Total:                                     0.005 (MW) /      0.038 (MB)

	Nuclear Rep. energy          =      9.13343346099514
	SCF energy                   =    -76.02985284019746
	One-electron energy          =   -122.83067642449925
	Two-electron energy          =     37.66739012330657
	Reference energy             =    -76.02985284019753

*** tstop() called on atlantis at Tue Apr 19 00:19:41 2022
Module time:
	user time   =       0.01 seconds =       0.00 minutes
	system time =       0.01 seconds =       0.00 minutes
	total time  =          0 seconds =       0.00 minutes
Total time:
	user time   =       0.27 seconds =       0.00 minutes
	system time =       0.01 seconds =       0.00 minutes
	total time  =          0 seconds =       0.00 minutes
            **************************
            *                        *
            *        CCENERGY        *
            *                        *
            **************************

    Nuclear Rep. energy (wfn)     =    9.133433460995141
    SCF energy          (wfn)     =  -76.029852840197464
    Reference energy    (file100) =  -76.029852840197535

    Input parameters:
    -----------------
    Wave function   =     CCSD
    Reference wfn   =     RHF
    Brueckner       =     No
    Memory (Mbytes) =     524.3
    Maxiter         =     50
    R_Convergence   =     1.0e-07
    E_Convergence   =     1.0e-06
    Restart         =     Yes
    DIIS            =     Yes
    AO Basis        =     NONE
    ABCD            =     NEW
    Cache Level     =     2
    Cache Type      =     LOW
    Print Level     =     1
    Num. of threads =     1
    # Amps to Print =     10
    Print MP2 Amps? =     No
    Analyze T2 Amps =     No
    Print Pair Ener =     No
    Local CC        =     No
    SCS-MP2         =     False
    SCSN-MP2        =     False
    SCS-CCSD        =     False

MP2 correlation energy -0.2060707642024437
                Solving CC Amplitude Equations
                ------------------------------
  Iter             Energy              RMS        T1Diag      D1Diag    New D1Diag    D2Diag
  ----     ---------------------    ---------   ----------  ----------  ----------   --------
     0        -0.206070764202444    0.000e+00    0.000000    0.000000    0.000000    0.111720
     1        -0.208389768280742    3.553e-02    0.008213    0.018999    0.018999    0.117328
     2        -0.212439410629661    1.210e-02    0.008459    0.019725    0.019725    0.122168
     3        -0.213670939229282    4.991e-03    0.009841    0.023330    0.023330    0.124539
     4        -0.213607340343941    8.821e-04    0.009974    0.023770    0.023770    0.124689
     5        -0.213619752494496    2.766e-04    0.010025    0.023956    0.023956    0.124725
     6        -0.213622442883784    7.444e-05    0.010039    0.024013    0.024013    0.124721
     7        -0.213620649548723    2.406e-05    0.010042    0.024024    0.024024    0.124714
     8        -0.213620464944514    7.308e-06    0.010043    0.024028    0.024028    0.124713
     9        -0.213620545887957    2.373e-06    0.010043    0.024028    0.024028    0.124713
    10        -0.213620458203442    8.603e-07    0.010043    0.024028    0.024028    0.124713
    11        -0.213620474917011    2.695e-07    0.010043    0.024028    0.024028    0.124713
    12        -0.213620473724213    8.104e-08    0.010043    0.024028    0.024028    0.124713

    Iterations converged.


    Largest TIA Amplitudes:
              4  22        -0.0238888782
              2   1         0.0125104202
              2   3         0.0078314532
              3  16        -0.0056805936
              3  20         0.0055439631
              2   0         0.0054725508
              3  18         0.0047075505
              1   2        -0.0044981924
              2   8         0.0038919212
              1   5        -0.0033176084

    Largest TIjAb Amplitudes:
      4   4  23  23        -0.0386065898
      3   3  16  16        -0.0373864509
      3   3  17  17        -0.0275425755
      4   4  22  22        -0.0263147136
      3   3  16  17        -0.0253869612
      3   3  17  16        -0.0253869612
      4   4  22  23        -0.0252349304
      4   4  23  22        -0.0252349304
      2   2   5   5        -0.0241348231
      2   4   5  23        -0.0199292672

    SCF energy       (wfn)                    =  -76.029852840197464
    Reference energy (file100)                =  -76.029852840197535

    Opposite-spin MP2 correlation energy      =   -0.153899752878361
    Same-spin MP2 correlation energy          =   -0.052171011324083
    MP2 correlation energy                    =   -0.206070764202444
      * MP2 total energy                      =  -76.235923604399972

    Opposite-spin CCSD correlation energy     =   -0.167907989570305
    Same-spin CCSD correlation energy         =   -0.045712484153907
    CCSD correlation energy                   =   -0.213620473724213
      * CCSD total energy                     =  -76.243473313921754

gradient() will perform analytic gradient computation.

*** tstart() called on atlantis
*** at Tue Apr 19 00:19:41 2022

   => Loading Basis Set <=

    Name: 6-31++G**
    Role: ORBITAL
    Keyword: BASIS
    atoms 1   entry O          line   153 file /home/akrom/software/anaconda3/envs/ffpenv/share/psi4/basis/6-31ppgss.gbs 
    atoms 2-3 entry H          line    46 file /home/akrom/software/anaconda3/envs/ffpenv/share/psi4/basis/6-31ppgss.gbs 


         ---------------------------------------------------------
                                   SCF
               by Justin Turney, Rob Parrish, Andy Simmonett
                          and Daniel G. A. Smith
                              RHF Reference
                        1 Threads,    500 MiB Core
         ---------------------------------------------------------

  ==> Geometry <==

    Molecular point group: c2v
    Full point group: C2v

    Geometry (in Angstrom), charge = 0, multiplicity = 1:

       Center              X                  Y                   Z               Mass       
    ------------   -----------------  -----------------  -----------------  -----------------
         O            0.000000000000     0.000000000000    -0.067969259994    15.994914619570
         H            0.749030000000     0.000000000000     0.539360740006     1.007825032230
         H           -0.749030000000    -0.000000000000     0.539360740006     1.007825032230

  Running in c2v symmetry.

  Rotational constants: A =     25.53156  B =     14.90675  C =      9.41168 [cm^-1]
  Rotational constants: A = 765416.81232  B = 446893.08836  C = 282155.15104 [MHz]
  Nuclear repulsion =    9.133433460995141

  Charge       = 0
  Multiplicity = 1
  Electrons    = 10
  Nalpha       = 5
  Nbeta        = 5

  ==> Algorithm <==

  SCF Algorithm Type is PK.
  DIIS enabled.
  MOM disabled.
  Fractional occupation disabled.
  Guess Type is SAD.
  Energy threshold   = 1.00e-10
  Density threshold  = 1.00e-10
  Integral threshold = 0.00e+00

  ==> Primary Basis <==

  Basis Set: 6-31++G**
    Blend: 6-31++G**
    Number of shells: 16
    Number of basis function: 31
    Number of Cartesian functions: 31
    Spherical Harmonics?: false
    Max angular momentum: 2

  ==> Pre-Iterations <==

   -------------------------------------------------------
    Irrep   Nso     Nmo     Nalpha   Nbeta   Ndocc  Nsocc
   -------------------------------------------------------
     A1        15      15       0       0       0       0
     A2         2       2       0       0       0       0
     B1         9       9       0       0       0       0
     B2         5       5       0       0       0       0
   -------------------------------------------------------
    Total      31      31       5       5       5       0
   -------------------------------------------------------

  ==> Integral Setup <==

  Using in-core PK algorithm.
   Calculation information:
      Number of atoms:                   3
      Number of AO shells:              16
      Number of primitives:             29
      Number of atomic orbitals:        31
      Number of basis functions:        31

      Integral cutoff                 1.00e-12
      Number of threads:                 1

  Performing in-core PK
  Using 246512 doubles for integral storage.
  We computed 9316 shell quartets total.
  Whereas there are 9316 unique shell quartets.

  ==> DiskJK: Disk-Based J/K Matrices <==

    J tasked:                  Yes
    K tasked:                  Yes
    wK tasked:                  No
    Memory [MiB]:              375
    Schwarz Cutoff:          1E-12

    OpenMP threads:              1

  Minimum eigenvalue in the overlap matrix is 1.2582576837E-02.
  Using Symmetric Orthogonalization.

  SCF Guess: Superposition of Atomic Densities via on-the-fly atomic UHF.

  ==> Iterations <==

                        Total Energy        Delta E     RMS |[F,P]|

   @RHF iter SAD:   -75.44658855914288   -7.54466e+01   0.00000e+00 
   @RHF iter   1:   -75.94410192298632   -4.97513e-01   2.50124e-02 DIIS
   @RHF iter   2:   -75.99966269291906   -5.55608e-02   1.62031e-02 DIIS
   @RHF iter   3:   -76.02945732237413   -2.97946e-02   1.18678e-03 DIIS
   @RHF iter   4:   -76.02983255875830   -3.75236e-04   2.60889e-04 DIIS
   @RHF iter   5:   -76.02985166630265   -1.91075e-05   4.95677e-05 DIIS
   @RHF iter   6:   -76.02985277455892   -1.10826e-06   1.13172e-05 DIIS
   @RHF iter   7:   -76.02985283929145   -6.47325e-08   1.41196e-06 DIIS
   @RHF iter   8:   -76.02985284017031   -8.78856e-10   2.43252e-07 DIIS
   @RHF iter   9:   -76.02985284019555   -2.52385e-11   6.81176e-08 DIIS
   @RHF iter  10:   -76.02985284019746   -1.91847e-12   7.28373e-09 DIIS
   @RHF iter  11:   -76.02985284019755   -8.52651e-14   1.34809e-09 DIIS
   @RHF iter  12:   -76.02985284019755    0.00000e+00   1.56808e-10 DIIS
   @RHF iter  13:   -76.02985284019758   -2.84217e-14   2.25050e-11 DIIS
  Energy and wave function converged.


  ==> Post-Iterations <==

    Orbital Energies [Eh]
    ---------------------

    Doubly Occupied:                                                      

       1A1   -20.584853     2A1    -1.355043     1B1    -0.711109  
       3A1    -0.587364     1B2    -0.509579  

    Virtual:                                                              

       4A1     0.041361     2B1     0.072111     5A1     0.239477  
       2B2     0.252274     6A1     0.280043     3B1     0.314503  
       4B1     0.352846     7A1     0.411101     5B1     1.162031  
       8A1     1.274434     3B2     1.404037     9A1     1.404806  
       6B1     1.429356    10A1     1.606624     1A2     1.794677  
      11A1     1.801094     4B2     1.904920    12A1     2.574223  
       7B1     2.574674     8B1     2.857182     2A2     2.942906  
       5B2     2.998524    13A1     3.352190    14A1     3.735110  
       9B1     3.965748    15A1     4.427015  

    Final Occupation by Irrep:
             A1    A2    B1    B2 
    DOCC [     3,    0,    1,    1 ]

  @RHF Final Energy:   -76.02985284019758

   => Energetics <=

    Nuclear Repulsion Energy =              9.1334334609951409
    One-Electron Energy =                -122.8306764309589880
    Two-Electron Energy =                  37.6673901297662752
    Total Energy =                        -76.0298528401975773

Computation Completed


Properties will be evaluated at   0.000000,   0.000000,   0.000000 [a0]

Properties computed using the SCF density matrix

  Nuclear Dipole Moment: [e a0]
     X:     0.0000      Y:     0.0000      Z:     1.0109

  Electronic Dipole Moment: [e a0]
     X:     0.0000      Y:     0.0000      Z:    -0.0915

  Dipole Moment: [e a0]
     X:     0.0000      Y:     0.0000      Z:     0.9194     Total:     0.9194

  Dipole Moment: [D]
     X:     0.0000      Y:     0.0000      Z:     2.3370     Total:     2.3370


*** tstop() called on atlantis at Tue Apr 19 00:19:42 2022
Module time:
	user time   =       0.24 seconds =       0.00 minutes
	system time =       0.01 seconds =       0.00 minutes
	total time  =          1 seconds =       0.02 minutes
Total time:
	user time   =       0.56 seconds =       0.01 minutes
	system time =       0.08 seconds =       0.00 minutes
	total time  =          1 seconds =       0.02 minutes
 MINTS: Wrapper to libmints.
   by Justin Turney

   Calculation information:
      Number of threads:                 1
      Number of atoms:                   3
      Number of AO shells:              16
      Number of SO shells:              12
      Number of primitives:             29
      Number of atomic orbitals:        31
      Number of basis functions:        31

      Number of irreps:                  4
      Integral cutoff                 0.00e+00
      Number of functions per irrep: [  15    2    9    5 ]

 OEINTS: Overlap, kinetic, potential, dipole, and quadrupole integrals
         stored in file 35.

      Computing two-electron integrals...done
      Computed 32030 non-zero two-electron integrals.
        Stored in file 33.


*** tstart() called on atlantis
*** at Tue Apr 19 00:19:42 2022


	Wfn Parameters:
	--------------------
	Wavefunction         = CCSD
	Number of irreps     = 4
	Number of MOs        = 31
	Number of active MOs = 31
	AO-Basis             = NONE
	Semicanonical        = false
	Reference            = RHF
	Print Level          = 1

	IRREP	# MOs	# FZDC	# DOCC	# SOCC	# VIRT	# FZVR
	-----	-----	------	------	------	------	------
	 A1	   15	    0	    3	    0	    12	    0
	 A2	   2	    0	    0	    0	    2	    0
	 B1	   9	    0	    1	    0	    8	    0
	 B2	   5	    0	    1	    0	    4	    0
	Transforming integrals...
	IWL integrals will be deleted.
	(OO|OO)...
	Presorting SO-basis two-electron integrals.
	Sorting File: SO Ints (nn|nn) nbuckets = 1
	Transforming the one-electron integrals and constructing Fock matrices
	Starting first half-transformation.
	Sorting half-transformed integrals.
	First half integral transformation complete.
	Starting second half-transformation.
	Two-electron integral transformation complete.
	(OO|OV)...
	Starting second half-transformation.
	Two-electron integral transformation complete.
	(OO|VV)...
	Starting second half-transformation.
	Two-electron integral transformation complete.
	(OV|OO)...
	Starting first half-transformation.
	Sorting half-transformed integrals.
	First half integral transformation complete.
	Starting second half-transformation.
	Two-electron integral transformation complete.
	(OV|OV)...
	Starting second half-transformation.
	Two-electron integral transformation complete.
	(OV|VV)...
	Starting second half-transformation.
	Two-electron integral transformation complete.
	(VV|OO)...
	Starting first half-transformation.
	Sorting half-transformed integrals.
	First half integral transformation complete.
	Starting second half-transformation.
	Two-electron integral transformation complete.
	(VV|OV)...
	Starting second half-transformation.
	Two-electron integral transformation complete.
	(VV|VV)...
	Starting second half-transformation.
	Two-electron integral transformation complete.
	Frozen core energy     =      0.00000000000000

	Size of irrep 0 of <ab|cd> integrals:      0.052 (MW) /      0.416 (MB)
	Size of irrep 1 of <ab|cd> integrals:      0.013 (MW) /      0.100 (MB)
	Size of irrep 2 of <ab|cd> integrals:      0.043 (MW) /      0.346 (MB)
	Size of irrep 3 of <ab|cd> integrals:      0.016 (MW) /      0.131 (MB)
	Total:                                     0.124 (MW) /      0.993 (MB)

	Size of irrep 0 of <ia|bc> integrals:      0.011 (MW) /      0.088 (MB)
	Size of irrep 1 of <ia|bc> integrals:      0.002 (MW) /      0.016 (MB)
	Size of irrep 2 of <ia|bc> integrals:      0.008 (MW) /      0.063 (MB)
	Size of irrep 3 of <ia|bc> integrals:      0.003 (MW) /      0.027 (MB)
	Total:                                     0.024 (MW) /      0.194 (MB)

	Size of irrep 0 of tijab amplitudes:       0.003 (MW) /      0.020 (MB)
	Size of irrep 1 of tijab amplitudes:       0.000 (MW) /      0.002 (MB)
	Size of irrep 2 of tijab amplitudes:       0.001 (MW) /      0.010 (MB)
	Size of irrep 3 of tijab amplitudes:       0.001 (MW) /      0.006 (MB)
	Total:                                     0.005 (MW) /      0.038 (MB)

	Nuclear Rep. energy          =      9.13343346099514
	SCF energy                   =    -76.02985284019758
	One-electron energy          =   -122.83067643134180
	Two-electron energy          =     37.66739013014914
	Reference energy             =    -76.02985284019753

*** tstop() called on atlantis at Tue Apr 19 00:19:42 2022
Module time:
	user time   =       0.02 seconds =       0.00 minutes
	system time =       0.00 seconds =       0.00 minutes
	total time  =          0 seconds =       0.00 minutes
Total time:
	user time   =       0.59 seconds =       0.01 minutes
	system time =       0.08 seconds =       0.00 minutes
	total time  =          1 seconds =       0.02 minutes
            **************************
            *                        *
            *        CCENERGY        *
            *                        *
            **************************

    Nuclear Rep. energy (wfn)     =    9.133433460995141
    SCF energy          (wfn)     =  -76.029852840197577
    Reference energy    (file100) =  -76.029852840197535

    Input parameters:
    -----------------
    Wave function   =     CCSD
    Reference wfn   =     RHF
    Brueckner       =     No
    Memory (Mbytes) =     524.3
    Maxiter         =     50
    R_Convergence   =     1.0e-07
    E_Convergence   =     1.0e-08
    Restart         =     Yes
    DIIS            =     Yes
    AO Basis        =     NONE
    ABCD            =     NEW
    Cache Level     =     2
    Cache Type      =     LOW
    Print Level     =     1
    Num. of threads =     1
    # Amps to Print =     10
    Print MP2 Amps? =     No
    Analyze T2 Amps =     No
    Print Pair Ener =     No
    Local CC        =     No
    SCS-MP2         =     False
    SCSN-MP2        =     False
    SCS-CCSD        =     False

    Using old T1 amplitudes.
    Using old T2 amplitudes.

MP2 correlation energy -0.2060707643002436
                Solving CC Amplitude Equations
                ------------------------------
  Iter             Energy              RMS        T1Diag      D1Diag    New D1Diag    D2Diag
  ----     ---------------------    ---------   ----------  ----------  ----------   --------
     0        -0.213620473780640    0.000e+00    0.010043    0.024028    0.024028    0.124713
     1        -0.213620475342215    4.087e-08    0.010043    0.024028    0.024028    0.124713
     2        -0.213620475163813    2.330e-08    0.010043    0.024028    0.024028    0.124713

    Iterations converged.


    Largest TIA Amplitudes:
              4  22        -0.0238888489
              2   1         0.0125104308
              2   3         0.0078314621
              3  16        -0.0056805979
              3  20         0.0055439636
              2   0         0.0054725788
              3  18         0.0047075499
              1   2        -0.0044981880
              2   8         0.0038919217
              1   5        -0.0033176086

    Largest TIjAb Amplitudes:
      4   4  23  23        -0.0386065908
      3   3  16  16        -0.0373864547
      3   3  17  17        -0.0275425756
      4   4  22  22        -0.0263147064
      3   3  16  17        -0.0253869624
      3   3  17  16        -0.0253869624
      4   4  22  23        -0.0252349271
      4   4  23  22        -0.0252349271
      2   2   5   5        -0.0241348226
      2   4   5  23        -0.0199292672

    SCF energy       (wfn)                    =  -76.029852840197577
    Reference energy (file100)                =  -76.029852840197535

    Opposite-spin MP2 correlation energy      =   -0.153899752893198
    Same-spin MP2 correlation energy          =   -0.052171011407045
    MP2 correlation energy                    =   -0.206070764300244
      * MP2 total energy                      =  -76.235923604497785

    Opposite-spin CCSD correlation energy     =   -0.167907991774559
    Same-spin CCSD correlation energy         =   -0.045712483389255
    CCSD correlation energy                   =   -0.213620475163813
      * CCSD total energy                     =  -76.243473315361342


			**************************
			*                        *
			*         CCHBAR         *
			*                        *
			**************************


			**************************
			*        CCLAMBDA        *
			**************************


	Nuclear Rep. energy (wfn)     =    9.133433460995141
	Reference           (wfn)     =                    0
	SCF energy          (wfn)     =  -76.029852840197577
	Reference energy    (CC_INFO) =  -76.029852840197535
	CCSD energy         (CC_INFO) =   -0.213620475163813
	Total CCSD energy   (CC_INFO) =  -76.243473315361342

	Input parameters:
	-----------------
	Maxiter           =     50
	Convergence       = 1.0e-07
	Restart           =     No
	Cache Level       =     2
	Model III         =     No
	DIIS              =     Yes
	AO Basis          =     No
	ABCD              =     NEW
	Local CC          =     No
	Parameters for left-handed eigenvectors:
	    Irr   Root  Ground-State?    EOM energy        R0
	  1   0     0        Yes       0.0000000000   1.0000000000
	Labels for eigenvector 1:
	LIA 0 -1, Lia 0 -1, LIJAB 0 -1, Lijab 0 -1, LIjAb 0 -1, 2LIjAb - LIjbA 0 -1
	Symmetry of left-hand state: A1
	Symmetry of left-hand eigenvector: A1

	          Solving Lambda Equations
	          ------------------------
	Iter     PseudoEnergy or Norm         RMS  
	----     ---------------------     --------
	   0        -0.213714942126733    0.000e+00
	   1        -0.211070856392280    1.525e-02
	   2        -0.210400383508519    2.708e-03
	   3        -0.210254924752338    1.555e-03
	   4        -0.210239941981370    3.425e-04
	   5        -0.210246772656204    8.815e-05
	   6        -0.210246938147065    2.710e-05
	   7        -0.210246439795733    8.098e-06
	   8        -0.210246449614950    2.723e-06
	   9        -0.210246478990810    9.052e-07
	  10        -0.210246483396957    2.756e-07
	  11        -0.210246483147157    6.899e-08

	Largest LIA Amplitudes:
	          4  22        -0.0151705026
	          2   1         0.0064818082
	          3  18         0.0052388802
	          2   3         0.0050048453
	          3  20         0.0047741585
	          2   8         0.0034569562
	          2   0         0.0030612228
	          1   1         0.0028325939
	          1   5        -0.0026895812
	          2   5         0.0025919150

	Largest LIjAb Amplitudes:
	  4   4  23  23        -0.0383917723
	  3   3  16  16        -0.0364909072
	  3   3  17  17        -0.0269964234
	  4   4  22  22        -0.0251833509
	  3   3  16  17        -0.0249551776
	  3   3  17  16        -0.0249551776
	  4   4  22  23        -0.0248513288
	  4   4  23  22        -0.0248513288
	  2   2   5   5        -0.0238887072
	  2   4   5  23        -0.0198163351

	Iterations converged.

	Overlap <L|e^T> =        0.93901717610

			**************************
			*                        *
			*        CCDENSITY       *
			*                        *
			**************************


	Input parameters:
	-----------------
	Wave function    =   CCSD
	Reference wfn    =   RHF
	Dertype          = 1
	Tolerance        = 1.0e-14
	Cache Level      = 2
	AO Basis         = No
	OPDM Only        = No
	Relax OPDM       = Yes
	Compute Xi       = No
	Use Zeta         = No
	Xi connected     = Yes
	Compute NO       = No

	Nuclear Rep. energy (wfn)     =    9.133433460995141
	SCF energy          (wfn)     =  -76.029852840197577
	Reference energy    (file100) =  -76.029852840197535
	CCSD energy         (CC_INFO) =   -0.213620475163813
	Total CCSD energy   (CC_INFO) =  -76.243473315361342
	Number of States = 1

	Ground?  State     EOM Energy       R0
	  Yes     0 A1    0.0000000000   1.00000000

	Virial Theorem Data:
	--------------------
	Kinetic energy (ref)   =   75.722666814376652
	Kinetic energy (corr)  =    0.123661691935770
	Kinetic energy (total) =   75.846328506312418
	-V/T (ref)             =    2.004056724871747
	-V/T (corr)            =    2.727458777409964
	-V/T (total)           =    2.005236177107978
  Cartesian Displacement SALCs
  By SALC:
  Number of SALCs: 3, nirreps: A1
  Project out translations: False
  Project out rotations: False
	irrep = 0, ncomponent = 1
		0: atom 0, direction z, coef 1.000000
	irrep = 0, ncomponent = 2
		0: atom 1, direction x, coef 0.707107
		1: atom 2, direction x, coef -0.707107
	irrep = 0, ncomponent = 2
		0: atom 1, direction z, coef 0.707107
		1: atom 2, direction z, coef 0.707107

  By Atomic Center:
  Number of atomic centers: 3
   Atomic Center 0:
	x component, size = 0
	y component, size = 0
	z component, size = 1
		0: salc 0, irrep 0, coef 1.000000
   Atomic Center 1:
	x component, size = 1
		0: salc 1, irrep 0, coef 0.707107
	y component, size = 0
	z component, size = 1
		0: salc 2, irrep 0, coef 0.707107
   Atomic Center 2:
	x component, size = 1
		0: salc 1, irrep 0, coef -0.707107
	y component, size = 0
	z component, size = 1
		0: salc 2, irrep 0, coef 0.707107

    Molecular point group: c2v
    Full point group: C2v

    Geometry (in Bohr), charge = 0, multiplicity = 1:

       Center              X                  Y                   Z       
    ------------   -----------------  -----------------  -----------------
         O            0.000000000000     0.000000000000    -0.128443286339
         H            1.415461559752     0.000000000000     1.019244081436
         H           -1.415461559752    -0.000000000000     1.019244081436

	Presorting MO-basis TPDM.
	Sorting File: MO TPDM (AA|AA) nbuckets = 1
	Starting first half-transformation.
	Sorting half-transformed TPDM.
	First half integral transformation complete.


  -Nuclear Repulsion Energy 1st Derivatives:
     Atom            X                  Y                   Z
    ------   -----------------  -----------------  -----------------
       1        0.000000000000     0.000000000000     3.034559410088
       2       -1.996065495508    -0.000000000000    -1.517279705044
       3        1.996065495508     0.000000000000    -1.517279705044


  -Core Hamiltonian Gradient:
     Atom            X                  Y                   Z
    ------   -----------------  -----------------  -----------------
       1        0.000000000000     0.000000000000    -6.878494068673
       2        4.450418762693     0.000000000000     3.439247034337
       3       -4.450418762693    -0.000000000000     3.439247034337


  -Lagrangian contribution to gradient:
     Atom            X                  Y                   Z
    ------   -----------------  -----------------  -----------------
       1        0.000000000000     0.000000000000     0.409896925627
       2       -0.240668726497    -0.000000000000    -0.204948462814
       3        0.240668726497     0.000000000000    -0.204948462814


  -Two-electron contribution to gradient:
     Atom            X                  Y                   Z
    ------   -----------------  -----------------  -----------------
       1        0.000000000000     0.000000000000     3.424612913934
       2       -2.216455936317    -0.000000000000    -1.712306456967
       3        2.216455936317     0.000000000000    -1.712306456967


  -Total gradient:
     Atom            X                  Y                   Z
    ------   -----------------  -----------------  -----------------
       1        0.000000000000     0.000000000000    -0.009424819024
       2       -0.002771395629    -0.000000000000     0.004712409512
       3        0.002771395629     0.000000000000     0.004712409512


  Based on options and gradient (rms=4.06E-03), recommend projecting translations and projecting rotations.
hessian() will perform frequency computation by finite difference of analytic gradients.

         ----------------------------------------------------------
                                   FINDIF
                     R. A. King and Jonathon Misiewicz
         ---------------------------------------------------------

  Using finite-differences of gradients to determine vibrational frequencies and 
  normal modes.  Resulting frequencies are only valid at stationary points.
    Generating geometries for use with 3-point formula.
    Displacement size will be 5.00e-03.
    Number of atoms is 3.
    Number of irreps is 4.
    Number of SALCs is 3.
    Translations projected? 1. Rotations projected? 1.
    Index of SALCs per irrep:
     1 :  0  1 
     2 : 
     3 :  2 
     4 : 
    Number of SALCs per irrep:
     Irrep 1: 2
     Irrep 2: 0
     Irrep 3: 1
     Irrep 4: 0
    Number of geometries (including reference) is 6.
    Number of displacements per irrep:
      Irrep 1: 4
      Irrep 2: 0
      Irrep 3: 1
      Irrep 4: 0

  //>>>>>>>>>>>>>>>>>>>>>>>>>>>>>>>>>>>//
  //    Loading displacement 1 of 6    //
  //<<<<<<<<<<<<<<<<<<<<<<<<<<<<<<<<<<<//
gradient() will perform analytic gradient computation.

*** tstart() called on atlantis
*** at Tue Apr 19 00:19:42 2022

   => Loading Basis Set <=

    Name: 6-31++G**
    Role: ORBITAL
    Keyword: BASIS
    atoms 1   entry O          line   153 file /home/akrom/software/anaconda3/envs/ffpenv/share/psi4/basis/6-31ppgss.gbs 
    atoms 2-3 entry H          line    46 file /home/akrom/software/anaconda3/envs/ffpenv/share/psi4/basis/6-31ppgss.gbs 


         ---------------------------------------------------------
                                   SCF
               by Justin Turney, Rob Parrish, Andy Simmonett
                          and Daniel G. A. Smith
                              RHF Reference
                        1 Threads,    500 MiB Core
         ---------------------------------------------------------

  ==> Geometry <==

    Molecular point group: c2v
    Full point group: C2v

    Geometry (in Angstrom), charge = 0, multiplicity = 1:

       Center              X                  Y                   Z               Mass       
    ------------   -----------------  -----------------  -----------------  -----------------
         O            0.000000000000     0.000000000000    -0.067969259994    15.994914619570
         H            0.749030000000     0.000000000000     0.539360740006     1.007825032230
         H           -0.749030000000    -0.000000000000     0.539360740006     1.007825032230

  Running in c2v symmetry.

  Rotational constants: A =     25.53156  B =     14.90675  C =      9.41168 [cm^-1]
  Rotational constants: A = 765416.81232  B = 446893.08836  C = 282155.15104 [MHz]
  Nuclear repulsion =    9.133433460995141

  Charge       = 0
  Multiplicity = 1
  Electrons    = 10
  Nalpha       = 5
  Nbeta        = 5

  ==> Algorithm <==

  SCF Algorithm Type is PK.
  DIIS enabled.
  MOM disabled.
  Fractional occupation disabled.
  Guess Type is SAD.
  Energy threshold   = 1.00e-10
  Density threshold  = 1.00e-10
  Integral threshold = 0.00e+00

  ==> Primary Basis <==

  Basis Set: 6-31++G**
    Blend: 6-31++G**
    Number of shells: 16
    Number of basis function: 31
    Number of Cartesian functions: 31
    Spherical Harmonics?: false
    Max angular momentum: 2

  ==> Pre-Iterations <==

   -------------------------------------------------------
    Irrep   Nso     Nmo     Nalpha   Nbeta   Ndocc  Nsocc
   -------------------------------------------------------
     A1        15      15       0       0       0       0
     A2         2       2       0       0       0       0
     B1         9       9       0       0       0       0
     B2         5       5       0       0       0       0
   -------------------------------------------------------
    Total      31      31       5       5       5       0
   -------------------------------------------------------

  ==> Integral Setup <==

  Using in-core PK algorithm.
   Calculation information:
      Number of atoms:                   3
      Number of AO shells:              16
      Number of primitives:             29
      Number of atomic orbitals:        31
      Number of basis functions:        31

      Integral cutoff                 1.00e-12
      Number of threads:                 1

  Performing in-core PK
  Using 246512 doubles for integral storage.
  We computed 9316 shell quartets total.
  Whereas there are 9316 unique shell quartets.

  ==> DiskJK: Disk-Based J/K Matrices <==

    J tasked:                  Yes
    K tasked:                  Yes
    wK tasked:                  No
    Memory [MiB]:              375
    Schwarz Cutoff:          1E-12

    OpenMP threads:              1

  Minimum eigenvalue in the overlap matrix is 1.2582576837E-02.
  Using Symmetric Orthogonalization.

  SCF Guess: Superposition of Atomic Densities via on-the-fly atomic UHF.

  ==> Iterations <==

                        Total Energy        Delta E     RMS |[F,P]|

   @RHF iter SAD:   -75.44658855914288   -7.54466e+01   0.00000e+00 
   @RHF iter   1:   -75.94410192298632   -4.97513e-01   2.50124e-02 DIIS
   @RHF iter   2:   -75.99966269291899   -5.55608e-02   1.62031e-02 DIIS
   @RHF iter   3:   -76.02945732237421   -2.97946e-02   1.18678e-03 DIIS
   @RHF iter   4:   -76.02983255875834   -3.75236e-04   2.60889e-04 DIIS
   @RHF iter   5:   -76.02985166630263   -1.91075e-05   4.95677e-05 DIIS
   @RHF iter   6:   -76.02985277455888   -1.10826e-06   1.13172e-05 DIIS
   @RHF iter   7:   -76.02985283929152   -6.47326e-08   1.41196e-06 DIIS
   @RHF iter   8:   -76.02985284017034   -8.78813e-10   2.43252e-07 DIIS
   @RHF iter   9:   -76.02985284019555   -2.52101e-11   6.81176e-08 DIIS
   @RHF iter  10:   -76.02985284019748   -1.93268e-12   7.28373e-09 DIIS
   @RHF iter  11:   -76.02985284019758   -9.94760e-14   1.34809e-09 DIIS
   @RHF iter  12:   -76.02985284019749    8.52651e-14   1.56809e-10 DIIS
   @RHF iter  13:   -76.02985284019752   -2.84217e-14   2.25051e-11 DIIS
  Energy and wave function converged.


  ==> Post-Iterations <==

    Orbital Energies [Eh]
    ---------------------

    Doubly Occupied:                                                      

       1A1   -20.584853     2A1    -1.355043     1B1    -0.711109  
       3A1    -0.587364     1B2    -0.509579  

    Virtual:                                                              

       4A1     0.041361     2B1     0.072111     5A1     0.239477  
       2B2     0.252274     6A1     0.280043     3B1     0.314503  
       4B1     0.352846     7A1     0.411101     5B1     1.162031  
       8A1     1.274434     3B2     1.404037     9A1     1.404806  
       6B1     1.429356    10A1     1.606624     1A2     1.794677  
      11A1     1.801094     4B2     1.904920    12A1     2.574223  
       7B1     2.574674     8B1     2.857182     2A2     2.942906  
       5B2     2.998524    13A1     3.352190    14A1     3.735110  
       9B1     3.965748    15A1     4.427015  

    Final Occupation by Irrep:
             A1    A2    B1    B2 
    DOCC [     3,    0,    1,    1 ]

  @RHF Final Energy:   -76.02985284019752

   => Energetics <=

    Nuclear Repulsion Energy =              9.1334334609951409
    One-Electron Energy =                -122.8306764309590307
    Two-Electron Energy =                  37.6673901297663676
    Total Energy =                        -76.0298528401975204

Computation Completed


Properties will be evaluated at   0.000000,   0.000000,   0.000000 [a0]

Properties computed using the SCF density matrix

  Nuclear Dipole Moment: [e a0]
     X:     0.0000      Y:     0.0000      Z:     1.0109

  Electronic Dipole Moment: [e a0]
     X:     0.0000      Y:     0.0000      Z:    -0.0915

  Dipole Moment: [e a0]
     X:     0.0000      Y:     0.0000      Z:     0.9194     Total:     0.9194

  Dipole Moment: [D]
     X:     0.0000      Y:     0.0000      Z:     2.3370     Total:     2.3370


*** tstop() called on atlantis at Tue Apr 19 00:19:42 2022
Module time:
	user time   =       0.23 seconds =       0.00 minutes
	system time =       0.01 seconds =       0.00 minutes
	total time  =          0 seconds =       0.00 minutes
Total time:
	user time   =       1.17 seconds =       0.02 minutes
	system time =       0.15 seconds =       0.00 minutes
	total time  =          1 seconds =       0.02 minutes
 MINTS: Wrapper to libmints.
   by Justin Turney

   Calculation information:
      Number of threads:                 1
      Number of atoms:                   3
      Number of AO shells:              16
      Number of SO shells:              12
      Number of primitives:             29
      Number of atomic orbitals:        31
      Number of basis functions:        31

      Number of irreps:                  4
      Integral cutoff                 0.00e+00
      Number of functions per irrep: [  15    2    9    5 ]

 OEINTS: Overlap, kinetic, potential, dipole, and quadrupole integrals
         stored in file 35.

      Computing two-electron integrals...done
      Computed 32030 non-zero two-electron integrals.
        Stored in file 33.


*** tstart() called on atlantis
*** at Tue Apr 19 00:19:42 2022


	Wfn Parameters:
	--------------------
	Wavefunction         = CCSD
	Number of irreps     = 4
	Number of MOs        = 31
	Number of active MOs = 31
	AO-Basis             = NONE
	Semicanonical        = false
	Reference            = RHF
	Print Level          = 1

	IRREP	# MOs	# FZDC	# DOCC	# SOCC	# VIRT	# FZVR
	-----	-----	------	------	------	------	------
	 A1	   15	    0	    3	    0	    12	    0
	 A2	   2	    0	    0	    0	    2	    0
	 B1	   9	    0	    1	    0	    8	    0
	 B2	   5	    0	    1	    0	    4	    0
	Transforming integrals...
	IWL integrals will be deleted.
	(OO|OO)...
	Presorting SO-basis two-electron integrals.
	Sorting File: SO Ints (nn|nn) nbuckets = 1
	Transforming the one-electron integrals and constructing Fock matrices
	Starting first half-transformation.
	Sorting half-transformed integrals.
	First half integral transformation complete.
	Starting second half-transformation.
	Two-electron integral transformation complete.
	(OO|OV)...
	Starting second half-transformation.
	Two-electron integral transformation complete.
	(OO|VV)...
	Starting second half-transformation.
	Two-electron integral transformation complete.
	(OV|OO)...
	Starting first half-transformation.
	Sorting half-transformed integrals.
	First half integral transformation complete.
	Starting second half-transformation.
	Two-electron integral transformation complete.
	(OV|OV)...
	Starting second half-transformation.
	Two-electron integral transformation complete.
	(OV|VV)...
	Starting second half-transformation.
	Two-electron integral transformation complete.
	(VV|OO)...
	Starting first half-transformation.
	Sorting half-transformed integrals.
	First half integral transformation complete.
	Starting second half-transformation.
	Two-electron integral transformation complete.
	(VV|OV)...
	Starting second half-transformation.
	Two-electron integral transformation complete.
	(VV|VV)...
	Starting second half-transformation.
	Two-electron integral transformation complete.
	Frozen core energy     =      0.00000000000000

	Size of irrep 0 of <ab|cd> integrals:      0.052 (MW) /      0.416 (MB)
	Size of irrep 1 of <ab|cd> integrals:      0.013 (MW) /      0.100 (MB)
	Size of irrep 2 of <ab|cd> integrals:      0.043 (MW) /      0.346 (MB)
	Size of irrep 3 of <ab|cd> integrals:      0.016 (MW) /      0.131 (MB)
	Total:                                     0.124 (MW) /      0.993 (MB)

	Size of irrep 0 of <ia|bc> integrals:      0.011 (MW) /      0.088 (MB)
	Size of irrep 1 of <ia|bc> integrals:      0.002 (MW) /      0.016 (MB)
	Size of irrep 2 of <ia|bc> integrals:      0.008 (MW) /      0.063 (MB)
	Size of irrep 3 of <ia|bc> integrals:      0.003 (MW) /      0.027 (MB)
	Total:                                     0.024 (MW) /      0.194 (MB)

	Size of irrep 0 of tijab amplitudes:       0.003 (MW) /      0.020 (MB)
	Size of irrep 1 of tijab amplitudes:       0.000 (MW) /      0.002 (MB)
	Size of irrep 2 of tijab amplitudes:       0.001 (MW) /      0.010 (MB)
	Size of irrep 3 of tijab amplitudes:       0.001 (MW) /      0.006 (MB)
	Total:                                     0.005 (MW) /      0.038 (MB)

	Nuclear Rep. energy          =      9.13343346099514
	SCF energy                   =    -76.02985284019752
	One-electron energy          =   -122.83067643134186
	Two-electron energy          =     37.66739013014919
	Reference energy             =    -76.02985284019753

*** tstop() called on atlantis at Tue Apr 19 00:19:42 2022
Module time:
	user time   =       0.01 seconds =       0.00 minutes
	system time =       0.01 seconds =       0.00 minutes
	total time  =          0 seconds =       0.00 minutes
Total time:
	user time   =       1.20 seconds =       0.02 minutes
	system time =       0.16 seconds =       0.00 minutes
	total time  =          1 seconds =       0.02 minutes
            **************************
            *                        *
            *        CCENERGY        *
            *                        *
            **************************

    Nuclear Rep. energy (wfn)     =    9.133433460995141
    SCF energy          (wfn)     =  -76.029852840197520
    Reference energy    (file100) =  -76.029852840197535

    Input parameters:
    -----------------
    Wave function   =     CCSD
    Reference wfn   =     RHF
    Brueckner       =     No
    Memory (Mbytes) =     524.3
    Maxiter         =     50
    R_Convergence   =     1.0e-07
    E_Convergence   =     1.0e-08
    Restart         =     Yes
    DIIS            =     Yes
    AO Basis        =     NONE
    ABCD            =     NEW
    Cache Level     =     2
    Cache Type      =     LOW
    Print Level     =     1
    Num. of threads =     1
    # Amps to Print =     10
    Print MP2 Amps? =     No
    Analyze T2 Amps =     No
    Print Pair Ener =     No
    Local CC        =     No
    SCS-MP2         =     False
    SCSN-MP2        =     False
    SCS-CCSD        =     False

MP2 correlation energy -0.2060707643002447
                Solving CC Amplitude Equations
                ------------------------------
  Iter             Energy              RMS        T1Diag      D1Diag    New D1Diag    D2Diag
  ----     ---------------------    ---------   ----------  ----------  ----------   --------
     0        -0.206070764300245    0.000e+00    0.000000    0.000000    0.000000    0.111720
     1        -0.208389768371585    3.553e-02    0.008213    0.018999    0.018999    0.117328
     2        -0.212439410711671    1.210e-02    0.008459    0.019725    0.019725    0.122168
     3        -0.213670939319645    4.991e-03    0.009841    0.023330    0.023330    0.124539
     4        -0.213607340435086    8.821e-04    0.009974    0.023770    0.023770    0.124689
     5        -0.213619752583517    2.766e-04    0.010025    0.023956    0.023956    0.124725
     6        -0.213622442973712    7.444e-05    0.010039    0.024013    0.024013    0.124721
     7        -0.213620649638577    2.406e-05    0.010042    0.024024    0.024024    0.124714
     8        -0.213620465034346    7.308e-06    0.010043    0.024028    0.024028    0.124713
     9        -0.213620545977806    2.373e-06    0.010043    0.024028    0.024028    0.124713
    10        -0.213620458293283    8.603e-07    0.010043    0.024028    0.024028    0.124713
    11        -0.213620475006851    2.695e-07    0.010043    0.024028    0.024028    0.124713
    12        -0.213620472197155    8.104e-08    0.010043    0.024028    0.024028    0.124713
    13        -0.213620474501229    2.195e-08    0.010043    0.024028    0.024028    0.124713

    Iterations converged.


    Largest TIA Amplitudes:
              4  22        -0.0238888485
              2   1         0.0125104309
              2   3         0.0078314632
              3  16        -0.0056805959
              3  20         0.0055439632
              2   0         0.0054725907
              3  18         0.0047075498
              1   2        -0.0044981860
              2   8         0.0038919214
              1   5        -0.0033176084

    Largest TIjAb Amplitudes:
      4   4  23  23        -0.0386065902
      3   3  16  16        -0.0373864530
      3   3  17  17        -0.0275425749
      4   4  22  22        -0.0263147071
      3   3  16  17        -0.0253869613
      3   3  17  16        -0.0253869613
      4   4  22  23        -0.0252349271
      4   4  23  22        -0.0252349271
      2   2   5   5        -0.0241348221
      2   4   5  23        -0.0199292670

    SCF energy       (wfn)                    =  -76.029852840197520
    Reference energy (file100)                =  -76.029852840197535

    Opposite-spin MP2 correlation energy      =   -0.153899752893199
    Same-spin MP2 correlation energy          =   -0.052171011407046
    MP2 correlation energy                    =   -0.206070764300245
      * MP2 total energy                      =  -76.235923604497785

    Opposite-spin CCSD correlation energy     =   -0.167907990197778
    Same-spin CCSD correlation energy         =   -0.045712484303451
    CCSD correlation energy                   =   -0.213620474501229
      * CCSD total energy                     =  -76.243473314698761


			**************************
			*                        *
			*         CCHBAR         *
			*                        *
			**************************


			**************************
			*        CCLAMBDA        *
			**************************


	Nuclear Rep. energy (wfn)     =    9.133433460995141
	Reference           (wfn)     =                    0
	SCF energy          (wfn)     =  -76.029852840197520
	Reference energy    (CC_INFO) =  -76.029852840197535
	CCSD energy         (CC_INFO) =   -0.213620474501229
	Total CCSD energy   (CC_INFO) =  -76.243473314698761

	Input parameters:
	-----------------
	Maxiter           =     50
	Convergence       = 1.0e-07
	Restart           =     No
	Cache Level       =     2
	Model III         =     No
	DIIS              =     Yes
	AO Basis          =     No
	ABCD              =     NEW
	Local CC          =     No
	Parameters for left-handed eigenvectors:
	    Irr   Root  Ground-State?    EOM energy        R0
	  1   0     0        Yes       0.0000000000   1.0000000000
	Labels for eigenvector 1:
	LIA 0 -1, Lia 0 -1, LIJAB 0 -1, Lijab 0 -1, LIjAb 0 -1, 2LIjAb - LIjbA 0 -1
	Symmetry of left-hand state: A1
	Symmetry of left-hand eigenvector: A1

	          Solving Lambda Equations
	          ------------------------
	Iter     PseudoEnergy or Norm         RMS  
	----     ---------------------     --------
	   0        -0.213714941458841    6.899e-08
	   1        -0.211070856070083    1.525e-02
	   2        -0.210400383431139    2.708e-03
	   3        -0.210254924804150    1.555e-03
	   4        -0.210239942065621    3.425e-04
	   5        -0.210246772751694    8.815e-05
	   6        -0.210246938242252    2.710e-05
	   7        -0.210246439889949    8.098e-06
	   8        -0.210246449709853    2.723e-06
	   9        -0.210246479085985    9.052e-07
	  10        -0.210246483492154    2.756e-07
	  11        -0.210246483242351    6.899e-08

	Largest LIA Amplitudes:
	          4  22        -0.0151705028
	          2   1         0.0064818084
	          3  18         0.0052388801
	          2   3         0.0050048453
	          3  20         0.0047741585
	          2   8         0.0034569562
	          2   0         0.0030612228
	          1   1         0.0028325938
	          1   5        -0.0026895812
	          2   5         0.0025919148

	Largest LIjAb Amplitudes:
	  4   4  23  23        -0.0383917723
	  3   3  16  16        -0.0364909072
	  3   3  17  17        -0.0269964234
	  4   4  22  22        -0.0251833509
	  3   3  16  17        -0.0249551776
	  3   3  17  16        -0.0249551776
	  4   4  22  23        -0.0248513288
	  4   4  23  22        -0.0248513288
	  2   2   5   5        -0.0238887072
	  2   4   5  23        -0.0198163351

	Iterations converged.

	Overlap <L|e^T> =        0.93901717626

			**************************
			*                        *
			*        CCDENSITY       *
			*                        *
			**************************


	Input parameters:
	-----------------
	Wave function    =   CCSD
	Reference wfn    =   RHF
	Dertype          = 1
	Tolerance        = 1.0e-14
	Cache Level      = 2
	AO Basis         = No
	OPDM Only        = No
	Relax OPDM       = Yes
	Compute Xi       = No
	Use Zeta         = No
	Xi connected     = Yes
	Compute NO       = No

	Nuclear Rep. energy (wfn)     =    9.133433460995141
	SCF energy          (wfn)     =  -76.029852840197520
	Reference energy    (file100) =  -76.029852840197535
	CCSD energy         (CC_INFO) =   -0.213620474501229
	Total CCSD energy   (CC_INFO) =  -76.243473314698761
	Number of States = 1

	Ground?  State     EOM Energy       R0
	  Yes     0 A1    0.0000000000   1.00000000

	Virial Theorem Data:
	--------------------
	Kinetic energy (ref)   =   75.722666814376538
	Kinetic energy (corr)  =    0.123661702331130
	Kinetic energy (total) =   75.846328516707672
	-V/T (ref)             =    2.004056724871749
	-V/T (corr)            =    2.727458626836747
	-V/T (total)           =    2.005236176961467
  Cartesian Displacement SALCs
  By SALC:
  Number of SALCs: 3, nirreps: A1
  Project out translations: False
  Project out rotations: False
	irrep = 0, ncomponent = 1
		0: atom 0, direction z, coef 1.000000
	irrep = 0, ncomponent = 2
		0: atom 1, direction x, coef 0.707107
		1: atom 2, direction x, coef -0.707107
	irrep = 0, ncomponent = 2
		0: atom 1, direction z, coef 0.707107
		1: atom 2, direction z, coef 0.707107

  By Atomic Center:
  Number of atomic centers: 3
   Atomic Center 0:
	x component, size = 0
	y component, size = 0
	z component, size = 1
		0: salc 0, irrep 0, coef 1.000000
   Atomic Center 1:
	x component, size = 1
		0: salc 1, irrep 0, coef 0.707107
	y component, size = 0
	z component, size = 1
		0: salc 2, irrep 0, coef 0.707107
   Atomic Center 2:
	x component, size = 1
		0: salc 1, irrep 0, coef -0.707107
	y component, size = 0
	z component, size = 1
		0: salc 2, irrep 0, coef 0.707107

    Molecular point group: c2v
    Full point group: C2v

    Geometry (in Bohr), charge = 0, multiplicity = 1:

       Center              X                  Y                   Z       
    ------------   -----------------  -----------------  -----------------
         O            0.000000000000     0.000000000000    -0.128443286339
         H            1.415461559752     0.000000000000     1.019244081436
         H           -1.415461559752    -0.000000000000     1.019244081436

	Presorting MO-basis TPDM.
	Sorting File: MO TPDM (AA|AA) nbuckets = 1
	Starting first half-transformation.
	Sorting half-transformed TPDM.
	First half integral transformation complete.


  -Nuclear Repulsion Energy 1st Derivatives:
     Atom            X                  Y                   Z
    ------   -----------------  -----------------  -----------------
       1        0.000000000000     0.000000000000     3.034559410088
       2       -1.996065495508    -0.000000000000    -1.517279705044
       3        1.996065495508     0.000000000000    -1.517279705044


  -Core Hamiltonian Gradient:
     Atom            X                  Y                   Z
    ------   -----------------  -----------------  -----------------
       1        0.000000000000    -0.000000000000    -6.878494055587
       2        4.450418760973     0.000000000000     3.439247027794
       3       -4.450418760973    -0.000000000000     3.439247027794


  -Lagrangian contribution to gradient:
     Atom            X                  Y                   Z
    ------   -----------------  -----------------  -----------------
       1        0.000000000000     0.000000000000     0.409896924635
       2       -0.240668726508    -0.000000000000    -0.204948462317
       3        0.240668726508     0.000000000000    -0.204948462317


  -Two-electron contribution to gradient:
     Atom            X                  Y                   Z
    ------   -----------------  -----------------  -----------------
       1        0.000000000000     0.000000000000     3.424612902360
       2       -2.216455934655    -0.000000000000    -1.712306451180
       3        2.216455934655     0.000000000000    -1.712306451180


  -Total gradient:
     Atom            X                  Y                   Z
    ------   -----------------  -----------------  -----------------
       1        0.000000000000    -0.000000000000    -0.009424818505
       2       -0.002771395698    -0.000000000000     0.004712409252
       3        0.002771395698     0.000000000000     0.004712409252


  //>>>>>>>>>>>>>>>>>>>>>>>>>>>>>>>>>>>//
  //    Loading displacement 2 of 6    //
  //<<<<<<<<<<<<<<<<<<<<<<<<<<<<<<<<<<<//
gradient() will perform analytic gradient computation.

*** tstart() called on atlantis
*** at Tue Apr 19 00:19:43 2022

   => Loading Basis Set <=

    Name: 6-31++G**
    Role: ORBITAL
    Keyword: BASIS
    atoms 1   entry O          line   153 file /home/akrom/software/anaconda3/envs/ffpenv/share/psi4/basis/6-31ppgss.gbs 
    atoms 2-3 entry H          line    46 file /home/akrom/software/anaconda3/envs/ffpenv/share/psi4/basis/6-31ppgss.gbs 


         ---------------------------------------------------------
                                   SCF
               by Justin Turney, Rob Parrish, Andy Simmonett
                          and Daniel G. A. Smith
                              RHF Reference
                        1 Threads,    500 MiB Core
         ---------------------------------------------------------

  ==> Geometry <==

    Molecular point group: c2v
    Full point group: C2v

    Geometry (in Angstrom), charge = 0, multiplicity = 1:

       Center              X                  Y                   Z               Mass       
    ------------   -----------------  -----------------  -----------------  -----------------
         O            0.000000000000     0.000000000000    -0.068190581735    15.994914619570
         H            0.749030000000     0.000000000000     0.541117008324     1.007825032230
         H           -0.749030000000    -0.000000000000     0.541117008324     1.007825032230

  Running in c2v symmetry.

  Rotational constants: A =     25.36609  B =     14.90675  C =      9.38911 [cm^-1]
  Rotational constants: A = 760456.34809  B = 446893.08836  C = 281478.31580 [MHz]
  Nuclear repulsion =    9.122096529799810

  Charge       = 0
  Multiplicity = 1
  Electrons    = 10
  Nalpha       = 5
  Nbeta        = 5

  ==> Algorithm <==

  SCF Algorithm Type is PK.
  DIIS enabled.
  MOM disabled.
  Fractional occupation disabled.
  Guess Type is SAD.
  Energy threshold   = 1.00e-10
  Density threshold  = 1.00e-10
  Integral threshold = 0.00e+00

  ==> Primary Basis <==

  Basis Set: 6-31++G**
    Blend: 6-31++G**
    Number of shells: 16
    Number of basis function: 31
    Number of Cartesian functions: 31
    Spherical Harmonics?: false
    Max angular momentum: 2

  ==> Pre-Iterations <==

   -------------------------------------------------------
    Irrep   Nso     Nmo     Nalpha   Nbeta   Ndocc  Nsocc
   -------------------------------------------------------
     A1        15      15       0       0       0       0
     A2         2       2       0       0       0       0
     B1         9       9       0       0       0       0
     B2         5       5       0       0       0       0
   -------------------------------------------------------
    Total      31      31       5       5       5       0
   -------------------------------------------------------

  ==> Integral Setup <==

  Using in-core PK algorithm.
   Calculation information:
      Number of atoms:                   3
      Number of AO shells:              16
      Number of primitives:             29
      Number of atomic orbitals:        31
      Number of basis functions:        31

      Integral cutoff                 1.00e-12
      Number of threads:                 1

  Performing in-core PK
  Using 246512 doubles for integral storage.
  We computed 9316 shell quartets total.
  Whereas there are 9316 unique shell quartets.

  ==> DiskJK: Disk-Based J/K Matrices <==

    J tasked:                  Yes
    K tasked:                  Yes
    wK tasked:                  No
    Memory [MiB]:              375
    Schwarz Cutoff:          1E-12

    OpenMP threads:              1

  Minimum eigenvalue in the overlap matrix is 1.2579410592E-02.
  Using Symmetric Orthogonalization.

  SCF Guess: Superposition of Atomic Densities via on-the-fly atomic UHF.

  ==> Iterations <==

                        Total Energy        Delta E     RMS |[F,P]|

   @RHF iter SAD:   -75.44534389614481   -7.54453e+01   0.00000e+00 
   @RHF iter   1:   -75.94387215847995   -4.98528e-01   2.50088e-02 DIIS
   @RHF iter   2:   -75.99941388033146   -5.55417e-02   1.62273e-02 DIIS
   @RHF iter   3:   -76.02931096217296   -2.98971e-02   1.18839e-03 DIIS
   @RHF iter   4:   -76.02968764089280   -3.76679e-04   2.62100e-04 DIIS
   @RHF iter   5:   -76.02970697104790   -1.93302e-05   4.98974e-05 DIIS
   @RHF iter   6:   -76.02970809577116   -1.12472e-06   1.13778e-05 DIIS
   @RHF iter   7:   -76.02970816111900   -6.53478e-08   1.41138e-06 DIIS
   @RHF iter   8:   -76.02970816199479   -8.75787e-10   2.43787e-07 DIIS
   @RHF iter   9:   -76.02970816201997   -2.51816e-11   6.83438e-08 DIIS
   @RHF iter  10:   -76.02970816202202   -2.04636e-12   7.32330e-09 DIIS
   @RHF iter  11:   -76.02970816202209   -7.10543e-14   1.36022e-09 DIIS
   @RHF iter  12:   -76.02970816202198    1.13687e-13   1.57044e-10 DIIS
   @RHF iter  13:   -76.02970816202200   -2.84217e-14   2.24052e-11 DIIS
  Energy and wave function converged.


  ==> Post-Iterations <==

    Orbital Energies [Eh]
    ---------------------

    Doubly Occupied:                                                      

       1A1   -20.585143     2A1    -1.354540     1B1    -0.710088  
       3A1    -0.587491     1B2    -0.509538  

    Virtual:                                                              

       4A1     0.041305     2B1     0.072114     5A1     0.239519  
       2B2     0.252285     6A1     0.279840     3B1     0.314532  
       4B1     0.352192     7A1     0.411042     5B1     1.160678  
       8A1     1.273538     3B2     1.403988     9A1     1.405279  
       6B1     1.429896    10A1     1.607185     1A2     1.794975  
      11A1     1.799894     4B2     1.904257    12A1     2.572579  
       7B1     2.573990     8B1     2.854509     2A2     2.940393  
       5B2     2.998099    13A1     3.348874    14A1     3.732423  
       9B1     3.964589    15A1     4.426033  

    Final Occupation by Irrep:
             A1    A2    B1    B2 
    DOCC [     3,    0,    1,    1 ]

  @RHF Final Energy:   -76.02970816202200

   => Energetics <=

    Nuclear Repulsion Energy =              9.1220965297998102
    One-Electron Energy =                -122.8100113808079357
    Two-Electron Energy =                  37.6582066889861196
    Total Energy =                        -76.0297081620220183

Computation Completed


Properties will be evaluated at   0.000000,   0.000000,   0.000000 [a0]

Properties computed using the SCF density matrix

  Nuclear Dipole Moment: [e a0]
     X:     0.0000      Y:     0.0000      Z:     1.0142

  Electronic Dipole Moment: [e a0]
     X:     0.0000      Y:     0.0000      Z:    -0.0931

  Dipole Moment: [e a0]
     X:     0.0000      Y:     0.0000      Z:     0.9211     Total:     0.9211

  Dipole Moment: [D]
     X:     0.0000      Y:     0.0000      Z:     2.3412     Total:     2.3412


*** tstop() called on atlantis at Tue Apr 19 00:19:43 2022
Module time:
	user time   =       0.21 seconds =       0.00 minutes
	system time =       0.00 seconds =       0.00 minutes
	total time  =          0 seconds =       0.00 minutes
Total time:
	user time   =       1.55 seconds =       0.03 minutes
	system time =       0.26 seconds =       0.00 minutes
	total time  =          2 seconds =       0.03 minutes
 MINTS: Wrapper to libmints.
   by Justin Turney

   Calculation information:
      Number of threads:                 1
      Number of atoms:                   3
      Number of AO shells:              16
      Number of SO shells:              12
      Number of primitives:             29
      Number of atomic orbitals:        31
      Number of basis functions:        31

      Number of irreps:                  4
      Integral cutoff                 0.00e+00
      Number of functions per irrep: [  15    2    9    5 ]

 OEINTS: Overlap, kinetic, potential, dipole, and quadrupole integrals
         stored in file 35.

      Computing two-electron integrals...done
      Computed 32046 non-zero two-electron integrals.
        Stored in file 33.


*** tstart() called on atlantis
*** at Tue Apr 19 00:19:43 2022


	Wfn Parameters:
	--------------------
	Wavefunction         = CCSD
	Number of irreps     = 4
	Number of MOs        = 31
	Number of active MOs = 31
	AO-Basis             = NONE
	Semicanonical        = false
	Reference            = RHF
	Print Level          = 1

	IRREP	# MOs	# FZDC	# DOCC	# SOCC	# VIRT	# FZVR
	-----	-----	------	------	------	------	------
	 A1	   15	    0	    3	    0	    12	    0
	 A2	   2	    0	    0	    0	    2	    0
	 B1	   9	    0	    1	    0	    8	    0
	 B2	   5	    0	    1	    0	    4	    0
	Transforming integrals...
	IWL integrals will be deleted.
	(OO|OO)...
	Presorting SO-basis two-electron integrals.
	Sorting File: SO Ints (nn|nn) nbuckets = 1
	Transforming the one-electron integrals and constructing Fock matrices
	Starting first half-transformation.
	Sorting half-transformed integrals.
	First half integral transformation complete.
	Starting second half-transformation.
	Two-electron integral transformation complete.
	(OO|OV)...
	Starting second half-transformation.
	Two-electron integral transformation complete.
	(OO|VV)...
	Starting second half-transformation.
	Two-electron integral transformation complete.
	(OV|OO)...
	Starting first half-transformation.
	Sorting half-transformed integrals.
	First half integral transformation complete.
	Starting second half-transformation.
	Two-electron integral transformation complete.
	(OV|OV)...
	Starting second half-transformation.
	Two-electron integral transformation complete.
	(OV|VV)...
	Starting second half-transformation.
	Two-electron integral transformation complete.
	(VV|OO)...
	Starting first half-transformation.
	Sorting half-transformed integrals.
	First half integral transformation complete.
	Starting second half-transformation.
	Two-electron integral transformation complete.
	(VV|OV)...
	Starting second half-transformation.
	Two-electron integral transformation complete.
	(VV|VV)...
	Starting second half-transformation.
	Two-electron integral transformation complete.
	Frozen core energy     =      0.00000000000000

	Size of irrep 0 of <ab|cd> integrals:      0.052 (MW) /      0.416 (MB)
	Size of irrep 1 of <ab|cd> integrals:      0.013 (MW) /      0.100 (MB)
	Size of irrep 2 of <ab|cd> integrals:      0.043 (MW) /      0.346 (MB)
	Size of irrep 3 of <ab|cd> integrals:      0.016 (MW) /      0.131 (MB)
	Total:                                     0.124 (MW) /      0.993 (MB)

	Size of irrep 0 of <ia|bc> integrals:      0.011 (MW) /      0.088 (MB)
	Size of irrep 1 of <ia|bc> integrals:      0.002 (MW) /      0.016 (MB)
	Size of irrep 2 of <ia|bc> integrals:      0.008 (MW) /      0.063 (MB)
	Size of irrep 3 of <ia|bc> integrals:      0.003 (MW) /      0.027 (MB)
	Total:                                     0.024 (MW) /      0.194 (MB)

	Size of irrep 0 of tijab amplitudes:       0.003 (MW) /      0.020 (MB)
	Size of irrep 1 of tijab amplitudes:       0.000 (MW) /      0.002 (MB)
	Size of irrep 2 of tijab amplitudes:       0.001 (MW) /      0.010 (MB)
	Size of irrep 3 of tijab amplitudes:       0.001 (MW) /      0.006 (MB)
	Total:                                     0.005 (MW) /      0.038 (MB)

	Nuclear Rep. energy          =      9.12209652979981
	SCF energy                   =    -76.02970816202200
	One-electron energy          =   -122.81001138119072
	Two-electron energy          =     37.65820668936897
	Reference energy             =    -76.02970816202195

*** tstop() called on atlantis at Tue Apr 19 00:19:43 2022
Module time:
	user time   =       0.02 seconds =       0.00 minutes
	system time =       0.00 seconds =       0.00 minutes
	total time  =          0 seconds =       0.00 minutes
Total time:
	user time   =       1.59 seconds =       0.03 minutes
	system time =       0.26 seconds =       0.00 minutes
	total time  =          2 seconds =       0.03 minutes
            **************************
            *                        *
            *        CCENERGY        *
            *                        *
            **************************

    Nuclear Rep. energy (wfn)     =    9.122096529799810
    SCF energy          (wfn)     =  -76.029708162022004
    Reference energy    (file100) =  -76.029708162021947

    Input parameters:
    -----------------
    Wave function   =     CCSD
    Reference wfn   =     RHF
    Brueckner       =     No
    Memory (Mbytes) =     524.3
    Maxiter         =     50
    R_Convergence   =     1.0e-07
    E_Convergence   =     1.0e-08
    Restart         =     Yes
    DIIS            =     Yes
    AO Basis        =     NONE
    ABCD            =     NEW
    Cache Level     =     2
    Cache Type      =     LOW
    Print Level     =     1
    Num. of threads =     1
    # Amps to Print =     10
    Print MP2 Amps? =     No
    Analyze T2 Amps =     No
    Print Pair Ener =     No
    Local CC        =     No
    SCS-MP2         =     False
    SCSN-MP2        =     False
    SCS-CCSD        =     False

MP2 correlation energy -0.2061834830981982
                Solving CC Amplitude Equations
                ------------------------------
  Iter             Energy              RMS        T1Diag      D1Diag    New D1Diag    D2Diag
  ----     ---------------------    ---------   ----------  ----------  ----------   --------
     0        -0.206183483098198    0.000e+00    0.000000    0.000000    0.000000    0.111864
     1        -0.208478886817269    3.559e-02    0.008225    0.019031    0.019031    0.117478
     2        -0.212540431408801    1.214e-02    0.008472    0.019759    0.019759    0.122339
     3        -0.213777100975128    5.007e-03    0.009858    0.023374    0.023374    0.124726
     4        -0.213713281325741    8.851e-04    0.009991    0.023814    0.023814    0.124878
     5        -0.213725850354333    2.780e-04    0.010042    0.024001    0.024001    0.124915
     6        -0.213728571967974    7.478e-05    0.010056    0.024058    0.024058    0.124910
     7        -0.213726770611821    2.422e-05    0.010059    0.024069    0.024069    0.124904
     8        -0.213726586676066    7.358e-06    0.010060    0.024073    0.024073    0.124902
     9        -0.213726668135702    2.390e-06    0.010060    0.024073    0.024073    0.124902
    10        -0.213726579485249    8.665e-07    0.010060    0.024073    0.024073    0.124902
    11        -0.213726596376656    2.710e-07    0.010060    0.024073    0.024073    0.124902
[...]
Module time:
	user time   =       0.03 seconds =       0.00 minutes
	system time =       0.02 seconds =       0.00 minutes
	total time  =          0 seconds =       0.00 minutes
Total time:
	user time   =       3.21 seconds =       0.05 minutes
	system time =       0.68 seconds =       0.01 minutes
	total time  =          5 seconds =       0.08 minutes
            **************************
            *                        *
            *        CCENERGY        *
            *                        *
            **************************

    Nuclear Rep. energy (wfn)     =    9.133468287774228
    SCF energy          (wfn)     =  -76.029845449557016
    Reference energy    (file100) =  -76.029845449557001

    Input parameters:
    -----------------
    Wave function   =     CCSD
    Reference wfn   =     RHF
    Brueckner       =     No
    Memory (Mbytes) =     524.3
    Maxiter         =     50
    R_Convergence   =     1.0e-07
    E_Convergence   =     1.0e-08
    Restart         =     Yes
    DIIS            =     Yes
    AO Basis        =     NONE
    ABCD            =     NEW
    Cache Level     =     2
    Cache Type      =     LOW
    Print Level     =     1
    Num. of threads =     1
    # Amps to Print =     10
    Print MP2 Amps? =     No
    Analyze T2 Amps =     No
    Print Pair Ener =     No
    Local CC        =     No
    SCS-MP2         =     False
    SCSN-MP2        =     False
    SCS-CCSD        =     False

MP2 correlation energy -0.2060706583080145
                Solving CC Amplitude Equations
                ------------------------------
  Iter             Energy              RMS        T1Diag      D1Diag    New D1Diag    D2Diag
  ----     ---------------------    ---------   ----------  ----------  ----------   --------
     0        -0.206070658308015    0.000e+00    0.000000    0.000000    0.000000    0.111730
     1        -0.208389693070876    3.553e-02    0.008213    0.018999    0.018999    0.117339
     2        -0.212439373913665    1.210e-02    0.008459    0.019725    0.019725    0.122181
     3        -0.213670917307984    4.991e-03    0.009841    0.023330    0.023330    0.124555
     4        -0.213607316221443    8.821e-04    0.009974    0.023770    0.023770    0.124705
     5        -0.213619728603657    2.766e-04    0.010025    0.023957    0.023957    0.124742
     6        -0.213622419020859    7.444e-05    0.010039    0.024013    0.024013    0.124737
     7        -0.213620625676907    2.406e-05    0.010042    0.024024    0.024024    0.124731
     8        -0.213620441094172    7.309e-06    0.010043    0.024028    0.024028    0.124730
     9        -0.213620522053623    2.373e-06    0.010043    0.024028    0.024028    0.124730
    10        -0.213620434363112    8.604e-07    0.010043    0.024028    0.024028    0.124730
    11        -0.213620451080290    2.695e-07    0.010043    0.024028    0.024028    0.124730
    12        -0.213620448270848    8.104e-08    0.010043    0.024028    0.024028    0.124730
    13        -0.213620450575133    2.196e-08    0.010043    0.024028    0.024028    0.124730

    Iterations converged.


    Largest TIA Amplitudes:
              4  20        -0.0238888790
              3   2         0.0125102360
              3   6         0.0078303543
              2   5        -0.0056795702
              2  15        -0.0055431545
              3   0         0.0054725827
              2  10        -0.0047061085
              1   3        -0.0044978938
              3  13         0.0038825974
              1   9        -0.0033152747

    Largest TIjAb Amplitudes:
      4   4  21  21        -0.0386064877
      2   2   5   5        -0.0373770247
      2   2   7   7        -0.0275376051
      4   4  20  20        -0.0263146499
      2   2   5   7        -0.0253810930
      2   2   7   5        -0.0253810930
      4   4  20  21        -0.0252348705
      4   4  21  20        -0.0252348705
      3   3   9   9        -0.0241056647
      3   4   9  21        -0.0199144944

    SCF energy       (wfn)                    =  -76.029845449557016
    Reference energy (file100)                =  -76.029845449557001

    Opposite-spin MP2 correlation energy      =   -0.153899707744100
    Same-spin MP2 correlation energy          =   -0.052170950563915
    MP2 correlation energy                    =   -0.206070658308015
      * MP2 total energy                      =  -76.235916107865009

    Opposite-spin CCSD correlation energy     =   -0.167908020398801
    Same-spin CCSD correlation energy         =   -0.045712430176332
    CCSD correlation energy                   =   -0.213620450575133
      * CCSD total energy                     =  -76.243465900132136


			**************************
			*                        *
			*         CCHBAR         *
			*                        *
			**************************


			**************************
			*        CCLAMBDA        *
			**************************


	Nuclear Rep. energy (wfn)     =    9.133468287774228
	Reference           (wfn)     =                    0
	SCF energy          (wfn)     =  -76.029845449557016
	Reference energy    (CC_INFO) =  -76.029845449557001
	CCSD energy         (CC_INFO) =   -0.213620450575133
	Total CCSD energy   (CC_INFO) =  -76.243465900132136

	Input parameters:
	-----------------
	Maxiter           =     50
	Convergence       = 1.0e-07
	Restart           =     No
	Cache Level       =     2
	Model III         =     No
	DIIS              =     Yes
	AO Basis          =     No
	ABCD              =     NEW
	Local CC          =     No
	Parameters for left-handed eigenvectors:
	    Irr   Root  Ground-State?    EOM energy        R0
	  1   0     0        Yes       0.0000000000   1.0000000000
	Labels for eigenvector 1:
	LIA 0 -1, Lia 0 -1, LIJAB 0 -1, Lijab 0 -1, LIjAb 0 -1, 2LIjAb - LIjbA 0 -1
	Symmetry of left-hand state: Ap
	Symmetry of left-hand eigenvector: Ap

	          Solving Lambda Equations
	          ------------------------
	Iter     PseudoEnergy or Norm         RMS  
	----     ---------------------     --------
	   0        -0.213714918012138    6.947e-08
	   1        -0.211070795211857    1.525e-02
	   2        -0.210400318278329    2.708e-03
	   3        -0.210254857745782    1.555e-03
	   4        -0.210239874159893    3.425e-04
	   5        -0.210246704851196    8.815e-05
	   6        -0.210246870303946    2.710e-05
	   7        -0.210246371940448    8.098e-06
	   8        -0.210246381769738    2.723e-06
	   9        -0.210246411148522    9.053e-07
	  10        -0.210246415554793    2.757e-07
	  11        -0.210246415304859    6.900e-08

	Largest LIA Amplitudes:
	          4  20        -0.0151705050
	          3   2         0.0064816790
	          2  10        -0.0052366287
	          3   6         0.0050042310
	          2  15        -0.0047734545
	          3  13         0.0034486076
	          3   0         0.0030611523
	          1   2         0.0028324928
	          1   9        -0.0026878265
	          3   9         0.0025888417

	Largest LIjAb Amplitudes:
	  4   4  21  21        -0.0383916730
	  2   2   5   5        -0.0364816715
	  2   2   7   7        -0.0269914841
	  4   4  20  20        -0.0251832973
	  2   2   5   7        -0.0249493581
	  2   2   7   5        -0.0249493581
	  4   4  20  21        -0.0248512751
	  4   4  21  20        -0.0248512751
	  3   3   9   9        -0.0238599075
	  3   4   9  21        -0.0198016791

	Iterations converged.

	Overlap <L|e^T> =        0.93901692398

			**************************
			*                        *
			*        CCDENSITY       *
			*                        *
			**************************


	Input parameters:
	-----------------
	Wave function    =   CCSD
	Reference wfn    =   RHF
	Dertype          = 1
	Tolerance        = 1.0e-14
	Cache Level      = 2
	AO Basis         = No
	OPDM Only        = No
	Relax OPDM       = Yes
	Compute Xi       = No
	Use Zeta         = No
	Xi connected     = Yes
	Compute NO       = No

	Nuclear Rep. energy (wfn)     =    9.133468287774228
	SCF energy          (wfn)     =  -76.029845449557016
	Reference energy    (file100) =  -76.029845449557001
	CCSD energy         (CC_INFO) =   -0.213620450575133
	Total CCSD energy   (CC_INFO) =  -76.243465900132136
	Number of States = 1

	Ground?  State     EOM Energy       R0
	  Yes     0 Ap    0.0000000000   1.00000000

	Virial Theorem Data:
	--------------------
	Kinetic energy (ref)   =   75.722691900557606
	Kinetic energy (corr)  =    0.123661640360075
	Kinetic energy (total) =   75.846353540917676
	-V/T (ref)             =    2.004056294636260
	-V/T (corr)            =    2.727459299044703
	-V/T (total)           =    2.005235747543225
  Cartesian Displacement SALCs
  By SALC:
  Number of SALCs: 6, nirreps: A'
  Project out translations: False
  Project out rotations: False
	irrep = 0, ncomponent = 1
		0: atom 0, direction x, coef 1.000000
	irrep = 0, ncomponent = 1
		0: atom 0, direction z, coef 1.000000
	irrep = 0, ncomponent = 1
		0: atom 1, direction x, coef 1.000000
	irrep = 0, ncomponent = 1
		0: atom 1, direction z, coef 1.000000
	irrep = 0, ncomponent = 1
		0: atom 2, direction x, coef 1.000000
	irrep = 0, ncomponent = 1
		0: atom 2, direction z, coef 1.000000

  By Atomic Center:
  Number of atomic centers: 3
   Atomic Center 0:
	x component, size = 1
		0: salc 0, irrep 0, coef 1.000000
	y component, size = 0
	z component, size = 1
		0: salc 1, irrep 0, coef 1.000000
   Atomic Center 1:
	x component, size = 1
		0: salc 2, irrep 0, coef 1.000000
	y component, size = 0
	z component, size = 1
		0: salc 3, irrep 0, coef 1.000000
   Atomic Center 2:
	x component, size = 1
		0: salc 4, irrep 0, coef 1.000000
	y component, size = 0
	z component, size = 1
		0: salc 5, irrep 0, coef 1.000000

    Molecular point group: cs
    Full point group: Cs

    Geometry (in Bohr), charge = 0, multiplicity = 1:

       Center              X                  Y                   Z       
    ------------   -----------------  -----------------  -----------------
         O           -0.000332326610     0.000000000000    -0.128443286339
         H            1.418098691984     0.000000000000     1.021382326257
         H           -1.412824427519     0.000000000000     1.017105836614

	Presorting MO-basis TPDM.
	Sorting File: MO TPDM (AA|AA) nbuckets = 1
	Starting first half-transformation.
	Sorting half-transformed TPDM.
	First half integral transformation complete.


  -Nuclear Repulsion Energy 1st Derivatives:
     Atom            X                  Y                   Z
    ------   -----------------  -----------------  -----------------
       1       -0.014657373499     0.000000000000     3.034598523291
       2       -1.988757858744     0.000000000000    -1.511189256655
       3        2.003415232243     0.000000000000    -1.523409266637


  -Core Hamiltonian Gradient:
     Atom            X                  Y                   Z
    ------   -----------------  -----------------  -----------------
       1        0.020252985749     0.000000000000    -6.878510039860
       2        4.440295864842     0.000000000000     3.429717834850
       3       -4.460548850591     0.000000000000     3.448792205010


  -Lagrangian contribution to gradient:
     Atom            X                  Y                   Z
    ------   -----------------  -----------------  -----------------
       1       -0.000836038752     0.000000000000     0.409894301277
       2       -0.240248780240     0.000000000000    -0.204454839381
       3        0.241084818992     0.000000000000    -0.205439461897


  -Two-electron contribution to gradient:
     Atom            X                  Y                   Z
    ------   -----------------  -----------------  -----------------
       1       -0.007925401362     0.000000000000     3.424610208565
       2       -2.212488038394     0.000000000000    -1.708100843550
       3        2.220413439756     0.000000000000    -1.716509365015


  -Total gradient:
     Atom            X                  Y                   Z
    ------   -----------------  -----------------  -----------------
       1       -0.003165827864     0.000000000000    -0.009407006726
       2       -0.001198812535     0.000000000000     0.005972895265
       3        0.004364640399     0.000000000000     0.003434111462


         ----------------------------------------------------------
                                   FINDIF
                     R. A. King and Jonathon Misiewicz
         ---------------------------------------------------------

  Computing second-derivative from gradients using projected, 
  symmetry-adapted, cartesian coordinates.

  6 gradients passed in, including the reference geometry.
  Generating complete list of displacements from unique ones.

    Operation 2 takes plus displacements of irrep B1 to minus ones.

-------------------------------------------------------------


  ==> Harmonic Vibrational Analysis <==

  non-mass-weighted Hessian:       Symmetric? True   Hermitian? True   Lin Dep Dim?  6 (0)
  projection of translations (True) and rotations (True) removed 6 degrees of freedom (6)
  total projector:                 Symmetric? True   Hermitian? True   Lin Dep Dim?  6 (6)
  mass-weighted Hessian:           Symmetric? True   Hermitian? True   Lin Dep Dim?  6 (0)
  pre-proj  low-frequency mode:    0.0000i [cm^-1]
  pre-proj  low-frequency mode:    0.0000i [cm^-1]
  pre-proj  low-frequency mode:    0.0000  [cm^-1]
  pre-proj  low-frequency mode:    0.0000  [cm^-1]
  pre-proj  low-frequency mode:    0.0000  [cm^-1]
  pre-proj  low-frequency mode:    0.0000  [cm^-1]
  pre-proj  all modes:['0.0001i' '0.0000i' '0.0000' '0.0000' '0.0000' '0.0000' '1675.2502'
 '3858.3180' '3959.0878']
  projected mass-weighted Hessian: Symmetric? True   Hermitian? True   Lin Dep Dim?  6 (6)
  post-proj low-frequency mode:    0.0000i [cm^-1] (TR)
  post-proj low-frequency mode:    0.0000i [cm^-1] (TR)
  post-proj low-frequency mode:    0.0000i [cm^-1] (TR)
  post-proj low-frequency mode:    0.0000  [cm^-1] (TR)
  post-proj low-frequency mode:    0.0000  [cm^-1] (TR)
  post-proj low-frequency mode:    0.0000  [cm^-1] (TR)
  post-proj  all modes:['0.0000i' '0.0000i' '0.0000i' '0.0000' '0.0000' '0.0000' '1675.2502'
 '3858.3180' '3959.0878']

  Vibration                       7                   8                   9           
  Freq [cm^-1]                1675.2502           3858.3180           3959.0878       
  Irrep                           A1                  A1                  B1          
  Reduced mass [u]              1.0813              1.0465              1.0793        
  Force const [mDyne/A]         1.7879              9.1785              9.9672        
  Turning point v=0 [a0]        0.2578              0.1727              0.1679        
  RMS dev v=0 [a0 u^1/2]        0.1896              0.1249              0.1233        
  Char temp [K]               2410.3121           5551.2605           5696.2459       
  ----------------------------------------------------------------------------------
      1   O               -0.00 -0.00 -0.07   -0.00  0.00 -0.05   -0.07 -0.00 -0.00   
      2   H               -0.43  0.00  0.56    0.58  0.00  0.40    0.55  0.00  0.44   
      3   H                0.43 -0.00  0.56   -0.58 -0.00  0.40    0.55 -0.00 -0.44   

  ==> Thermochemistry Components <==

  Entropy, S
    Electronic S            0.000 [cal/(mol K)]        0.000 [J/(mol K)]       0.00000000 [mEh/K] (multiplicity = 1)
    Translational S        34.608 [cal/(mol K)]      144.801 [J/(mol K)]       0.05515177 [mEh/K] (mol. weight = 18.0106 [u], P = 101325.00 [Pa])
    Rotational S           10.508 [cal/(mol K)]       43.968 [J/(mol K)]       0.01674635 [mEh/K] (symmetry no. = 2)
    Vibrational S           0.006 [cal/(mol K)]        0.023 [J/(mol K)]       0.00000887 [mEh/K]
  Total S                  45.122 [cal/(mol K)]      188.792 [J/(mol K)]       0.07190700 [mEh/K]
  Correction S              0.000 [cal/(mol K)]        0.000 [J/(mol K)]       0.00000000 [mEh/K]

  Constant volume heat capacity, Cv
    Electronic Cv           0.000 [cal/(mol K)]        0.000 [J/(mol K)]       0.00000000 [mEh/K]
    Translational Cv        2.981 [cal/(mol K)]       12.472 [J/(mol K)]       0.00475022 [mEh/K]
    Rotational Cv           2.981 [cal/(mol K)]       12.472 [J/(mol K)]       0.00475022 [mEh/K]
    Vibrational Cv          0.040 [cal/(mol K)]        0.168 [J/(mol K)]       0.00006388 [mEh/K]
  Total Cv                  6.002 [cal/(mol K)]       25.111 [J/(mol K)]       0.00956431 [mEh/K]
  Correction Cv             0.000 [cal/(mol K)]        0.000 [J/(mol K)]       0.00000000 [mEh/K]

  Constant pressure heat capacity, Cp
    Electronic Cp           0.000 [cal/(mol K)]        0.000 [J/(mol K)]       0.00000000 [mEh/K]
    Translational Cp        4.968 [cal/(mol K)]       20.786 [J/(mol K)]       0.00791703 [mEh/K]
    Rotational Cp           2.981 [cal/(mol K)]       12.472 [J/(mol K)]       0.00475022 [mEh/K]
    Vibrational Cp          0.040 [cal/(mol K)]        0.168 [J/(mol K)]       0.00006388 [mEh/K]
  Total Cp                  7.989 [cal/(mol K)]       33.426 [J/(mol K)]       0.01273112 [mEh/K]
  Correction Cp             0.000 [cal/(mol K)]        0.000 [J/(mol K)]       0.00000000 [mEh/K]

  ==> Thermochemistry Energy Analysis <==

  Raw electronic energy, E0
  Total E0, Electronic energy at well bottom at 0 [K]                  -76.24347331 [Eh]

  Zero-point energy, ZPE_vib = Sum_i nu_i / 2
    Electronic ZPE          0.000 [kcal/mol]        0.000 [kJ/mol]       0.00000000 [Eh]
    Translational ZPE       0.000 [kcal/mol]        0.000 [kJ/mol]       0.00000000 [Eh]
    Rotational ZPE          0.000 [kcal/mol]        0.000 [kJ/mol]       0.00000000 [Eh]
    Vibrational ZPE        13.570 [kcal/mol]       56.779 [kJ/mol]       0.02162586 [Eh]        4746.328 [cm^-1]
  Correction ZPE           13.570 [kcal/mol]       56.779 [kJ/mol]       0.02162586 [Eh]        4746.328 [cm^-1]
  Total ZPE, Electronic energy at 0 [K]                                -76.22184745 [Eh]

  Thermal Energy, E (includes ZPE)
    Electronic E            0.000 [kcal/mol]        0.000 [kJ/mol]       0.00000000 [Eh]
    Translational E         0.889 [kcal/mol]        3.718 [kJ/mol]       0.00141628 [Eh]
    Rotational E            0.889 [kcal/mol]        3.718 [kJ/mol]       0.00141628 [Eh]
    Vibrational E          13.572 [kcal/mol]       56.785 [kJ/mol]       0.02162822 [Eh]
  Correction E             15.349 [kcal/mol]       64.222 [kJ/mol]       0.02446077 [Eh]
  Total E, Electronic energy at  298.15 [K]                            -76.21901254 [Eh]

  Enthalpy, H_trans = E_trans + k_B * T
    Electronic H            0.000 [kcal/mol]        0.000 [kJ/mol]       0.00000000 [Eh]
    Translational H         1.481 [kcal/mol]        6.197 [kJ/mol]       0.00236046 [Eh]
    Rotational H            0.889 [kcal/mol]        3.718 [kJ/mol]       0.00141628 [Eh]
    Vibrational H          13.572 [kcal/mol]       56.785 [kJ/mol]       0.02162822 [Eh]
  Correction H             15.942 [kcal/mol]       66.701 [kJ/mol]       0.02540495 [Eh]
  Total H, Enthalpy at  298.15 [K]                                     -76.21806836 [Eh]

  Gibbs free energy, G = H - T * S
    Electronic G            0.000 [kcal/mol]        0.000 [kJ/mol]       0.00000000 [Eh]
    Translational G        -8.837 [kcal/mol]      -36.975 [kJ/mol]      -0.01408304 [Eh]
    Rotational G           -2.244 [kcal/mol]       -9.390 [kJ/mol]      -0.00357665 [Eh]
    Vibrational G          13.570 [kcal/mol]       56.778 [kJ/mol]       0.02162557 [Eh]
  Correction G              2.489 [kcal/mol]       10.412 [kJ/mol]       0.00396588 [Eh]
  Total G, Free enthalpy at  298.15 [K]                                -76.23950743 [Eh]

    Psi4 stopped on: Tuesday, 19 April 2022 12:19AM
    Psi4 wall time for execution: 0:00:05.35

*** Psi4 exiting successfully. Buy a developer a beer!
