
    -----------------------------------------------------------------------
          Psi4: An Open-Source Ab Initio Electronic Structure Package
                               Psi4 1.3.2 release

                         Git: Rev {HEAD} ecbda83 


    R. M. Parrish, L. A. Burns, D. G. A. Smith, A. C. Simmonett,
    A. E. DePrince III, E. G. Hohenstein, U. Bozkaya, A. Yu. Sokolov,
    R. Di Remigio, R. M. Richard, J. F. Gonthier, A. M. James,
    H. R. McAlexander, A. Kumar, M. Saitow, X. Wang, B. P. Pritchard,
    P. Verma, H. F. Schaefer III, K. Patkowski, R. A. King, E. F. Valeev,
    F. A. Evangelista, J. M. Turney, T. D. Crawford, and C. D. Sherrill,
    J. Chem. Theory Comput. 13(7) pp 3185--3197 (2017).
    (doi: 10.1021/acs.jctc.7b00174)


                         Additional Contributions by
    P. Kraus, H. Kruse, M. H. Lechner, M. C. Schieber, R. A. Shaw,
    A. Alenaizan, R. Galvelis, Z. L. Glick, S. Lehtola, and J. P. Misiewicz

    -----------------------------------------------------------------------


    Psi4 started on: Tuesday, 19 April 2022 02:20AM

    Process ID: 26071
    Host:       atlantis
    PSIDATADIR: /home/akrom/software/anaconda3/envs/ffpenv/share/psi4
    Memory:     500.0 MiB
    Threads:    1
    
  ==> Input File <==

--------------------------------------------------------------------------
set basis  6-31G
molecule {
0 1
   C        0.32153        0.81326        0.00000
   C       -0.86505       -0.12817        0.00000
   C        0.54353       -0.68508        0.00000
   H        0.53795        1.36069       -0.92039
   H        0.53795        1.36069        0.92039
   H       -1.44742       -0.21449        0.92034
   H       -1.44742       -0.21449       -0.92034
   H        0.90937       -1.14629       -0.92037
   H        0.90937       -1.14629        0.92037
}
energy('MP2')
frequencies('MP2')
--------------------------------------------------------------------------
    SCF Algorithm Type (re)set to DF.

*** tstart() called on atlantis
*** at Tue Apr 19 02:20:00 2022

   => Loading Basis Set <=

    Name: 6-31G
    Role: ORBITAL
    Keyword: BASIS
    atoms 1-3 entry C          line    87 file /home/akrom/software/anaconda3/envs/ffpenv/share/psi4/basis/6-31g.gbs 
    atoms 4-9 entry H          line    26 file /home/akrom/software/anaconda3/envs/ffpenv/share/psi4/basis/6-31g.gbs 


         ---------------------------------------------------------
                                   SCF
               by Justin Turney, Rob Parrish, Andy Simmonett
                          and Daniel G. A. Smith
                              RHF Reference
                        1 Threads,    500 MiB Core
         ---------------------------------------------------------

  ==> Geometry <==

    Molecular point group: cs
    Full point group: Cs

    Geometry (in Angstrom), charge = 0, multiplicity = 1:

       Center              X                  Y                   Z               Mass       
    ------------   -----------------  -----------------  -----------------  -----------------
         C            0.321531939855     0.813261460475     0.000000000000    12.000000000000
         C           -0.865048060145    -0.128168539525     0.000000000000    12.000000000000
         C            0.543531939855    -0.685078539525     0.000000000000    12.000000000000
         H            0.537951939855     1.360691460475    -0.920390000000     1.007825032230
         H            0.537951939855     1.360691460475     0.920390000000     1.007825032230
         H           -1.447418060145    -0.214488539525     0.920340000000     1.007825032230
         H           -1.447418060145    -0.214488539525    -0.920340000000     1.007825032230
         H            0.909371939855    -1.146288539525    -0.920370000000     1.007825032230
         H            0.909371939855    -1.146288539525     0.920370000000     1.007825032230

  Running in cs symmetry.

  Rotational constants: A =      0.66472  B =      0.66470  C =      0.41647 [cm^-1]
  Rotational constants: A =  19927.70596  B =  19927.20236  C =  12485.44714 [MHz]
  Nuclear repulsion =   75.281464809014025

  Charge       = 0
  Multiplicity = 1
  Electrons    = 24
  Nalpha       = 12
  Nbeta        = 12

  ==> Algorithm <==

  SCF Algorithm Type is DF.
  DIIS enabled.
  MOM disabled.
  Fractional occupation disabled.
  Guess Type is SAD.
  Energy threshold   = 1.00e-08
  Density threshold  = 1.00e-08
  Integral threshold = 0.00e+00

  ==> Primary Basis <==

  Basis Set: 6-31G
    Blend: 6-31G
    Number of shells: 27
    Number of basis function: 39
    Number of Cartesian functions: 39
    Spherical Harmonics?: false
    Max angular momentum: 1

   => Loading Basis Set <=

    Name: (6-31G AUX)
    Role: JKFIT
    Keyword: DF_BASIS_SCF
    atoms 1-3 entry C          line   121 file /home/akrom/software/anaconda3/envs/ffpenv/share/psi4/basis/cc-pvdz-jkfit.gbs 
    atoms 4-9 entry H          line    51 file /home/akrom/software/anaconda3/envs/ffpenv/share/psi4/basis/cc-pvdz-jkfit.gbs 

  ==> Pre-Iterations <==

   -------------------------------------------------------
    Irrep   Nso     Nmo     Nalpha   Nbeta   Ndocc  Nsocc
   -------------------------------------------------------
     A'        27      27       0       0       0       0
     A"        12      12       0       0       0       0
   -------------------------------------------------------
    Total      39      39      12      12      12       0
   -------------------------------------------------------

  ==> Integral Setup <==

  DFHelper Memory: AOs need 0.006 GiB; user supplied 0.366 GiB. Using in-core AOs.

  ==> MemDFJK: Density-Fitted J/K Matrices <==

    J tasked:                   Yes
    K tasked:                   Yes
    wK tasked:                   No
    OpenMP threads:               1
    Memory [MiB]:               375
    Algorithm:                 Core
    Schwarz Cutoff:           1E-12
    Mask sparsity (%):       0.0000
    Fitting Condition:        1E-10

   => Auxiliary Basis Set <=

  Basis Set: (6-31G AUX)
    Blend: CC-PVDZ-JKFIT
    Number of shells: 126
    Number of basis function: 393
    Number of Cartesian functions: 393
    Spherical Harmonics?: false
    Max angular momentum: 3

  Minimum eigenvalue in the overlap matrix is 9.9475880981E-03.
  Using Symmetric Orthogonalization.

  SCF Guess: Superposition of Atomic Densities via on-the-fly atomic UHF.

  ==> Iterations <==

                           Total Energy        Delta E     RMS |[F,P]|

   @DF-RHF iter SAD:  -116.54531314639260   -1.16545e+02   0.00000e+00 
   @DF-RHF iter   1:  -116.95968769113043   -4.14375e-01   9.01850e-03 DIIS
   @DF-RHF iter   2:  -116.99997354935283   -4.02859e-02   3.46645e-03 DIIS
   @DF-RHF iter   3:  -117.00575701104104   -5.78346e-03   6.45081e-04 DIIS
   @DF-RHF iter   4:  -117.00609078506605   -3.33774e-04   6.70515e-05 DIIS
   @DF-RHF iter   5:  -117.00609555430778   -4.76924e-06   6.01494e-06 DIIS
   @DF-RHF iter   6:  -117.00609560115183   -4.68441e-08   8.87458e-07 DIIS
   @DF-RHF iter   7:  -117.00609560210827   -9.56447e-10   1.15832e-07 DIIS
   @DF-RHF iter   8:  -117.00609560211953   -1.12550e-11   1.46495e-08 DIIS
   @DF-RHF iter   9:  -117.00609560211976   -2.27374e-13   2.29888e-09 DIIS
  Energy and wave function converged.


  ==> Post-Iterations <==

    Orbital Energies [Eh]
    ---------------------

    Doubly Occupied:                                                      

       1Ap   -11.229673     2Ap   -11.228756     3Ap   -11.228751  
       4Ap    -1.134538     5Ap    -0.813738     6Ap    -0.813732  
       1App   -0.666963     7Ap    -0.620050     2App   -0.507779  
       3App   -0.507764     8Ap    -0.416177     9Ap    -0.416169  

    Virtual:                                                              

      10Ap     0.240932     4App    0.253332    11Ap     0.299826  
      12Ap     0.299832    13Ap     0.316113     5App    0.378292  
       6App    0.378298    14Ap     0.419362    15Ap     0.419372  
      16Ap     0.700441     7App    0.783614    17Ap     0.795703  
      18Ap     0.795725    19Ap     0.916539    20Ap     0.916553  
      21Ap     0.959036    22Ap     1.009982     8App    1.046822  
       9App    1.046884    10App    1.203409    23Ap     1.243039  
      24Ap     1.243050    25Ap     1.271191    11App    1.286354  
      12App    1.286403    26Ap     1.540406    27Ap     1.540413  

    Final Occupation by Irrep:
             Ap   App 
    DOCC [     9,    3 ]

  @DF-RHF Final Energy:  -117.00609560211976

   => Energetics <=

    Nuclear Repulsion Energy =             75.2814648090140253
    One-Electron Energy =                -305.4069393048202983
    Two-Electron Energy =                 113.1193788936865019
    Total Energy =                       -117.0060956021197569

Computation Completed


Properties will be evaluated at   0.000000,   0.000000,   0.000000 [a0]

Properties computed using the SCF density matrix

  Nuclear Dipole Moment: [e a0]
     X:    -0.0002      Y:    -0.0002      Z:     0.0000

  Electronic Dipole Moment: [e a0]
     X:     0.0001      Y:     0.0001      Z:     0.0000

  Dipole Moment: [e a0]
     X:    -0.0000      Y:    -0.0000      Z:     0.0000     Total:     0.0000

  Dipole Moment: [D]
     X:    -0.0001      Y:    -0.0001      Z:     0.0000     Total:     0.0001


*** tstop() called on atlantis at Tue Apr 19 02:20:01 2022
Module time:
	user time   =       0.45 seconds =       0.01 minutes
	system time =       0.01 seconds =       0.00 minutes
	total time  =          1 seconds =       0.02 minutes
Total time:
	user time   =       0.45 seconds =       0.01 minutes
	system time =       0.01 seconds =       0.00 minutes
	total time  =          1 seconds =       0.02 minutes

*** tstart() called on atlantis
*** at Tue Apr 19 02:20:01 2022


  //>>>>>>>>>>>>>>>>>>>>>>>>>>>>>>>>>>>//
  //               DFMP2               //
  //<<<<<<<<<<<<<<<<<<<<<<<<<<<<<<<<<<<//

   => Loading Basis Set <=

    Name: (6-31G AUX)
    Role: RIFIT
    Keyword: DF_BASIS_MP2
    atoms 1-3 entry C          line   159 file /home/akrom/software/anaconda3/envs/ffpenv/share/psi4/basis/cc-pvdz-ri.gbs 
    atoms 4-9 entry H          line    19 file /home/akrom/software/anaconda3/envs/ffpenv/share/psi4/basis/cc-pvdz-ri.gbs 

	 --------------------------------------------------------
	                          DF-MP2                         
	      2nd-Order Density-Fitted Moller-Plesset Theory     
	              RMP2 Wavefunction,   1 Threads             
	                                                         
	        Rob Parrish, Justin Turney, Andy Simmonett,      
	           Ed Hohenstein, and C. David Sherrill          
	 --------------------------------------------------------

   => Auxiliary Basis Set <=

  Basis Set: (6-31G AUX)
    Blend: CC-PVDZ-RI
    Number of shells: 90
    Number of basis function: 252
    Number of Cartesian functions: 288
    Spherical Harmonics?: true
    Max angular momentum: 3

	 --------------------------------------------------------
	                 NBF =    39, NAUX =   252
	 --------------------------------------------------------
	   CLASS    FOCC     OCC    AOCC    AVIR     VIR    FVIR
	   PAIRS       0      12      12      27      27       0
	 --------------------------------------------------------

	-----------------------------------------------------------
	 ==================> DF-MP2 Energies <==================== 
	-----------------------------------------------------------
	 Reference Energy          =    -117.0060956021197569 [Eh]
	 Singles Energy            =      -0.0000000000000000 [Eh]
	 Same-Spin Energy          =      -0.0588330783298888 [Eh]
	 Opposite-Spin Energy      =      -0.2172862856914775 [Eh]
	 Correlation Energy        =      -0.2761193640213663 [Eh]
	 Total Energy              =    -117.2822149661411260 [Eh]
	-----------------------------------------------------------
	 ================> DF-SCS-MP2 Energies <================== 
	-----------------------------------------------------------
	 SCS Same-Spin Scale       =       0.3333333333333333 [-]
	 SCS Opposite-Spin Scale   =       1.2000000000000000 [-]
	 SCS Same-Spin Energy      =      -0.0196110261099629 [Eh]
	 SCS Opposite-Spin Energy  =      -0.2607435428297730 [Eh]
	 SCS Correlation Energy    =      -0.2803545689397360 [Eh]
	 SCS Total Energy          =    -117.2864501710594993 [Eh]
	-----------------------------------------------------------


*** tstop() called on atlantis at Tue Apr 19 02:20:01 2022
Module time:
	user time   =       0.11 seconds =       0.00 minutes
	system time =       0.00 seconds =       0.00 minutes
	total time  =          0 seconds =       0.00 minutes
Total time:
	user time   =       0.56 seconds =       0.01 minutes
	system time =       0.01 seconds =       0.00 minutes
	total time  =          1 seconds =       0.02 minutes
gradient() will perform analytic gradient computation.
    SCF Algorithm Type (re)set to DF.

*** tstart() called on atlantis
*** at Tue Apr 19 02:20:01 2022

   => Loading Basis Set <=

    Name: 6-31G
    Role: ORBITAL
    Keyword: BASIS
    atoms 1-3 entry C          line    87 file /home/akrom/software/anaconda3/envs/ffpenv/share/psi4/basis/6-31g.gbs 
    atoms 4-9 entry H          line    26 file /home/akrom/software/anaconda3/envs/ffpenv/share/psi4/basis/6-31g.gbs 


         ---------------------------------------------------------
                                   SCF
               by Justin Turney, Rob Parrish, Andy Simmonett
                          and Daniel G. A. Smith
                              RHF Reference
                        1 Threads,    500 MiB Core
         ---------------------------------------------------------

  ==> Geometry <==

    Molecular point group: cs
    Full point group: Cs

    Geometry (in Angstrom), charge = 0, multiplicity = 1:

       Center              X                  Y                   Z               Mass       
    ------------   -----------------  -----------------  -----------------  -----------------
         C            0.321531939855     0.813261460475     0.000000000000    12.000000000000
         C           -0.865048060145    -0.128168539525     0.000000000000    12.000000000000
         C            0.543531939855    -0.685078539525     0.000000000000    12.000000000000
         H            0.537951939855     1.360691460475    -0.920390000000     1.007825032230
         H            0.537951939855     1.360691460475     0.920390000000     1.007825032230
         H           -1.447418060145    -0.214488539525     0.920340000000     1.007825032230
         H           -1.447418060145    -0.214488539525    -0.920340000000     1.007825032230
         H            0.909371939855    -1.146288539525    -0.920370000000     1.007825032230
         H            0.909371939855    -1.146288539525     0.920370000000     1.007825032230

  Running in cs symmetry.

  Rotational constants: A =      0.66472  B =      0.66470  C =      0.41647 [cm^-1]
  Rotational constants: A =  19927.70596  B =  19927.20236  C =  12485.44714 [MHz]
  Nuclear repulsion =   75.281464809014025

  Charge       = 0
  Multiplicity = 1
  Electrons    = 24
  Nalpha       = 12
  Nbeta        = 12

  ==> Algorithm <==

  SCF Algorithm Type is DF.
  DIIS enabled.
  MOM disabled.
  Fractional occupation disabled.
  Guess Type is SAD.
  Energy threshold   = 1.00e-10
  Density threshold  = 1.00e-10
  Integral threshold = 0.00e+00

  ==> Primary Basis <==

  Basis Set: 6-31G
    Blend: 6-31G
    Number of shells: 27
    Number of basis function: 39
    Number of Cartesian functions: 39
    Spherical Harmonics?: false
    Max angular momentum: 1

   => Loading Basis Set <=

    Name: (6-31G AUX)
    Role: JKFIT
    Keyword: DF_BASIS_SCF
    atoms 1-3 entry C          line   121 file /home/akrom/software/anaconda3/envs/ffpenv/share/psi4/basis/cc-pvdz-jkfit.gbs 
    atoms 4-9 entry H          line    51 file /home/akrom/software/anaconda3/envs/ffpenv/share/psi4/basis/cc-pvdz-jkfit.gbs 

  ==> Pre-Iterations <==

   -------------------------------------------------------
    Irrep   Nso     Nmo     Nalpha   Nbeta   Ndocc  Nsocc
   -------------------------------------------------------
     A'        27      27       0       0       0       0
     A"        12      12       0       0       0       0
   -------------------------------------------------------
    Total      39      39      12      12      12       0
   -------------------------------------------------------

  ==> Integral Setup <==

  DFHelper Memory: AOs need 0.006 GiB; user supplied 0.366 GiB. Using in-core AOs.

  ==> MemDFJK: Density-Fitted J/K Matrices <==

    J tasked:                   Yes
    K tasked:                   Yes
    wK tasked:                   No
    OpenMP threads:               1
    Memory [MiB]:               375
    Algorithm:                 Core
    Schwarz Cutoff:           1E-12
    Mask sparsity (%):       0.0000
    Fitting Condition:        1E-10

   => Auxiliary Basis Set <=

  Basis Set: (6-31G AUX)
    Blend: CC-PVDZ-JKFIT
    Number of shells: 126
    Number of basis function: 393
    Number of Cartesian functions: 393
    Spherical Harmonics?: false
    Max angular momentum: 3

  Minimum eigenvalue in the overlap matrix is 9.9475880981E-03.
  Using Symmetric Orthogonalization.

  SCF Guess: Superposition of Atomic Densities via on-the-fly atomic UHF.

  ==> Iterations <==

                           Total Energy        Delta E     RMS |[F,P]|

   @DF-RHF iter SAD:  -116.54531314633678   -1.16545e+02   0.00000e+00 
   @DF-RHF iter   1:  -116.95968769106955   -4.14375e-01   9.01850e-03 DIIS
   @DF-RHF iter   2:  -116.99997354929141   -4.02859e-02   3.46645e-03 DIIS
   @DF-RHF iter   3:  -117.00575701097964   -5.78346e-03   6.45081e-04 DIIS
   @DF-RHF iter   4:  -117.00609078500463   -3.33774e-04   6.70515e-05 DIIS
   @DF-RHF iter   5:  -117.00609555424637   -4.76924e-06   6.01494e-06 DIIS
   @DF-RHF iter   6:  -117.00609560109021   -4.68438e-08   8.87458e-07 DIIS
   @DF-RHF iter   7:  -117.00609560204683   -9.56618e-10   1.15832e-07 DIIS
   @DF-RHF iter   8:  -117.00609560205805   -1.12266e-11   1.46495e-08 DIIS
   @DF-RHF iter   9:  -117.00609560205847   -4.12115e-13   2.29888e-09 DIIS
   @DF-RHF iter  10:  -117.00609560205835    1.13687e-13   7.72389e-10 DIIS
   @DF-RHF iter  11:  -117.00609560205837   -1.42109e-14   6.62935e-11 DIIS
  Energy and wave function converged.


  ==> Post-Iterations <==

    Orbital Energies [Eh]
    ---------------------

    Doubly Occupied:                                                      

       1Ap   -11.229673     2Ap   -11.228756     3Ap   -11.228751  
       4Ap    -1.134538     5Ap    -0.813738     6Ap    -0.813732  
       1App   -0.666963     7Ap    -0.620050     2App   -0.507779  
       3App   -0.507764     8Ap    -0.416177     9Ap    -0.416169  

    Virtual:                                                              

      10Ap     0.240932     4App    0.253332    11Ap     0.299826  
      12Ap     0.299832    13Ap     0.316113     5App    0.378292  
       6App    0.378298    14Ap     0.419362    15Ap     0.419372  
      16Ap     0.700441     7App    0.783614    17Ap     0.795703  
      18Ap     0.795725    19Ap     0.916539    20Ap     0.916553  
      21Ap     0.959036    22Ap     1.009982     8App    1.046822  
       9App    1.046884    10App    1.203409    23Ap     1.243039  
      24Ap     1.243050    25Ap     1.271191    11App    1.286354  
      12App    1.286403    26Ap     1.540406    27Ap     1.540413  

    Final Occupation by Irrep:
             Ap   App 
    DOCC [     9,    3 ]

  @DF-RHF Final Energy:  -117.00609560205837

   => Energetics <=

    Nuclear Repulsion Energy =             75.2814648090140253
    One-Electron Energy =                -305.4069392682657735
    Two-Electron Energy =                 113.1193788571933680
    Total Energy =                       -117.0060956020583660

Computation Completed


Properties will be evaluated at   0.000000,   0.000000,   0.000000 [a0]

Properties computed using the SCF density matrix

  Nuclear Dipole Moment: [e a0]
     X:    -0.0002      Y:    -0.0002      Z:     0.0000

  Electronic Dipole Moment: [e a0]
     X:     0.0001      Y:     0.0001      Z:     0.0000

  Dipole Moment: [e a0]
     X:    -0.0000      Y:    -0.0000      Z:     0.0000     Total:     0.0000

  Dipole Moment: [D]
     X:    -0.0001      Y:    -0.0001      Z:     0.0000     Total:     0.0001


*** tstop() called on atlantis at Tue Apr 19 02:20:01 2022
Module time:
	user time   =       0.44 seconds =       0.01 minutes
	system time =       0.00 seconds =       0.00 minutes
	total time  =          0 seconds =       0.00 minutes
Total time:
	user time   =       1.00 seconds =       0.02 minutes
	system time =       0.01 seconds =       0.00 minutes
	total time  =          1 seconds =       0.02 minutes

*** tstart() called on atlantis
*** at Tue Apr 19 02:20:01 2022


  //>>>>>>>>>>>>>>>>>>>>>>>>>>>>>>>>>>>//
  //               DFMP2               //
  //<<<<<<<<<<<<<<<<<<<<<<<<<<<<<<<<<<<//

   => Loading Basis Set <=

    Name: (6-31G AUX)
    Role: RIFIT
    Keyword: DF_BASIS_MP2
    atoms 1-3 entry C          line   159 file /home/akrom/software/anaconda3/envs/ffpenv/share/psi4/basis/cc-pvdz-ri.gbs 
    atoms 4-9 entry H          line    19 file /home/akrom/software/anaconda3/envs/ffpenv/share/psi4/basis/cc-pvdz-ri.gbs 

	 --------------------------------------------------------
	                          DF-MP2                         
	      2nd-Order Density-Fitted Moller-Plesset Theory     
	              RMP2 Wavefunction,   1 Threads             
	                                                         
	        Rob Parrish, Justin Turney, Andy Simmonett,      
	           Ed Hohenstein, and C. David Sherrill          
	 --------------------------------------------------------

   => Auxiliary Basis Set <=

  Basis Set: (6-31G AUX)
    Blend: CC-PVDZ-RI
    Number of shells: 90
    Number of basis function: 252
    Number of Cartesian functions: 288
    Spherical Harmonics?: true
    Max angular momentum: 3

	 --------------------------------------------------------
	                 NBF =    39, NAUX =   252
	 --------------------------------------------------------
	   CLASS    FOCC     OCC    AOCC    AVIR     VIR    FVIR
	   PAIRS       0      12      12      27      27       0
	 --------------------------------------------------------

  DFHelper Memory: AOs need 0.006 GiB; user supplied 0.366 GiB. Using in-core AOs.


         ------------------------------------------------------------
                                     CPHF                           
                                  Rob Parrish                       
         ------------------------------------------------------------

  ==> Geometry <==

    Molecular point group: cs
    Full point group: Cs

    Geometry (in Angstrom), charge = 0, multiplicity = 1:

       Center              X                  Y                   Z               Mass       
    ------------   -----------------  -----------------  -----------------  -----------------
         C            0.321531939855     0.813261460475     0.000000000000    12.000000000000
         C           -0.865048060145    -0.128168539525     0.000000000000    12.000000000000
         C            0.543531939855    -0.685078539525     0.000000000000    12.000000000000
         H            0.537951939855     1.360691460475    -0.920390000000     1.007825032230
         H            0.537951939855     1.360691460475     0.920390000000     1.007825032230
         H           -1.447418060145    -0.214488539525     0.920340000000     1.007825032230
         H           -1.447418060145    -0.214488539525    -0.920340000000     1.007825032230
         H            0.909371939855    -1.146288539525    -0.920370000000     1.007825032230
         H            0.909371939855    -1.146288539525     0.920370000000     1.007825032230

  Nuclear repulsion =   75.281464809014025
  Reference energy  = -117.006095602058366

  ==> Basis Set <==

  Basis Set: 6-31G
    Blend: 6-31G
    Number of shells: 27
    Number of basis function: 39
    Number of Cartesian functions: 39
    Spherical Harmonics?: false
    Max angular momentum: 1

  ==> CGRSolver (by Rob Parrish) <==

   Number of roots    =         1
   Preconditioning    =    JACOBI
   Convergence cutoff =     1E-06
   Maximum iterations =       100

  ==> CPHFRHamiltonian (by Rob Parrish) <== 

  ==> MemDFJK: Density-Fitted J/K Matrices <==

    J tasked:                   Yes
    K tasked:                   Yes
    wK tasked:                   No
    OpenMP threads:               1
    Memory [MiB]:               375
    Algorithm:                 Core
    Schwarz Cutoff:           1E-12
    Mask sparsity (%):       0.0000
    Fitting Condition:        1E-10

   => Auxiliary Basis Set <=

  Basis Set: (6-31G AUX)
    Blend: CC-PVDZ-JKFIT
    Number of shells: 126
    Number of basis function: 393
    Number of Cartesian functions: 393
    Spherical Harmonics?: false
    Max angular momentum: 3

  ==> CPHF Iterations <==

  => Iterations <=

             Iter  Converged  Remaining    Residual
  CGR           1          0          1   7.762E-02
  CGR           2          0          1   9.555E-03
  CGR           3          0          1   7.840E-04
  CGR           4          0          1   1.049E-04
  CGR           5          0          1   1.655E-05
  CGR           6          0          1   1.620E-06
  CGR           7          1          0   1.056E-07

    CGRSolver converged.

  ==> DFCorrGrad: Density-Fitted Correlated Gradients <==

    OpenMP threads:              1
    Integrals threads:           1
    Memory [GiB]:            0.366
    Schwarz Cutoff:          0E+00
    Fitting Condition:       1E-10

   => Auxiliary Basis Set <=

  Basis Set: (6-31G AUX)
    Blend: CC-PVDZ-JKFIT
    Number of shells: 126
    Number of basis function: 393
    Number of Cartesian functions: 393
    Spherical Harmonics?: false
    Max angular momentum: 3

	-----------------------------------------------------------
	 ==================> DF-MP2 Energies <==================== 
	-----------------------------------------------------------
	 Reference Energy          =    -117.0060956020583660 [Eh]
	 Singles Energy            =      -0.0000000000000000 [Eh]
	 Same-Spin Energy          =      -0.0588330782400369 [Eh]
	 Opposite-Spin Energy      =      -0.2172862852772303 [Eh]
	 Correlation Energy        =      -0.2761193635172672 [Eh]
	 Total Energy              =    -117.2822149655756334 [Eh]
	-----------------------------------------------------------
	 ================> DF-SCS-MP2 Energies <================== 
	-----------------------------------------------------------
	 SCS Same-Spin Scale       =       0.3333333333333333 [-]
	 SCS Opposite-Spin Scale   =       1.2000000000000000 [-]
	 SCS Same-Spin Energy      =      -0.0196110260800123 [Eh]
	 SCS Opposite-Spin Energy  =      -0.2607435423326764 [Eh]
	 SCS Correlation Energy    =      -0.2803545684126887 [Eh]
	 SCS Total Energy          =    -117.2864501704710563 [Eh]
	-----------------------------------------------------------


  -Total Gradient:
     Atom            X                  Y                   Z
    ------   -----------------  -----------------  -----------------
       1       -0.004555540066    -0.011521483069     0.000000000000
       2        0.012282384614     0.001823743214     0.000000000000
       3       -0.007701914224     0.009719236772     0.000000000000
       4        0.000061758609     0.000160066212    -0.004383387109
       5        0.000061758609     0.000160066212     0.004383387109
       6       -0.000179222493    -0.000029590273     0.004373400956
       7       -0.000179222493    -0.000029590273    -0.004373400956
       8        0.000104998722    -0.000141224397    -0.004379538296
       9        0.000104998722    -0.000141224397     0.004379538296


*** tstop() called on atlantis at Tue Apr 19 02:20:02 2022
Module time:
	user time   =       0.65 seconds =       0.01 minutes
	system time =       0.00 seconds =       0.00 minutes
	total time  =          1 seconds =       0.02 minutes
Total time:
	user time   =       1.65 seconds =       0.03 minutes
	system time =       0.01 seconds =       0.00 minutes
	total time  =          2 seconds =       0.03 minutes

  Based on options and gradient (rms=4.62E-03), recommend projecting translations and projecting rotations.
hessian() will perform frequency computation by finite difference of analytic gradients.

         ----------------------------------------------------------
                                   FINDIF
                     R. A. King and Jonathon Misiewicz
         ---------------------------------------------------------

  Using finite-differences of gradients to determine vibrational frequencies and 
  normal modes.  Resulting frequencies are only valid at stationary points.
    Generating geometries for use with 3-point formula.
    Displacement size will be 5.00e-03.
    Number of atoms is 9.
    Number of irreps is 2.
    Number of SALCs is 21.
    Translations projected? 1. Rotations projected? 1.
    Index of SALCs per irrep:
     1 :  0  1  2  3  4  5  6  7  8  9  10  11 
     2 :  12  13  14  15  16  17  18  19  20 
    Number of SALCs per irrep:
     Irrep 1: 12
     Irrep 2: 9
    Number of geometries (including reference) is 34.
    Number of displacements per irrep:
      Irrep 1: 24
      Irrep 2: 9

  //>>>>>>>>>>>>>>>>>>>>>>>>>>>>>>>>>>>//
  //    Loading displacement 1 of 34   //
  //<<<<<<<<<<<<<<<<<<<<<<<<<<<<<<<<<<<//
gradient() will perform analytic gradient computation.
    SCF Algorithm Type (re)set to DF.

*** tstart() called on atlantis
*** at Tue Apr 19 02:20:02 2022

   => Loading Basis Set <=

    Name: 6-31G
    Role: ORBITAL
    Keyword: BASIS
    atoms 1-3 entry C          line    87 file /home/akrom/software/anaconda3/envs/ffpenv/share/psi4/basis/6-31g.gbs 
    atoms 4-9 entry H          line    26 file /home/akrom/software/anaconda3/envs/ffpenv/share/psi4/basis/6-31g.gbs 


         ---------------------------------------------------------
                                   SCF
               by Justin Turney, Rob Parrish, Andy Simmonett
                          and Daniel G. A. Smith
                              RHF Reference
                        1 Threads,    500 MiB Core
         ---------------------------------------------------------

  ==> Geometry <==

    Molecular point group: cs
    Full point group: Cs

    Geometry (in Angstrom), charge = 0, multiplicity = 1:

       Center              X                  Y                   Z               Mass       
    ------------   -----------------  -----------------  -----------------  -----------------
         C            0.321531939855     0.813261460475     0.000000000000    12.000000000000
         C           -0.865048060145    -0.128168539525     0.000000000000    12.000000000000
         C            0.543531939855    -0.685078539525     0.000000000000    12.000000000000
         H            0.537951939855     1.360691460475    -0.920390000000     1.007825032230
         H            0.537951939855     1.360691460475     0.920390000000     1.007825032230
         H           -1.447418060145    -0.214488539525     0.920340000000     1.007825032230
         H           -1.447418060145    -0.214488539525    -0.920340000000     1.007825032230
         H            0.909371939855    -1.146288539525    -0.920370000000     1.007825032230
         H            0.909371939855    -1.146288539525     0.920370000000     1.007825032230

  Running in cs symmetry.

  Rotational constants: A =      0.66472  B =      0.66470  C =      0.41647 [cm^-1]
  Rotational constants: A =  19927.70596  B =  19927.20236  C =  12485.44714 [MHz]
  Nuclear repulsion =   75.281464809014025

  Charge       = 0
  Multiplicity = 1
  Electrons    = 24
  Nalpha       = 12
  Nbeta        = 12

  ==> Algorithm <==

  SCF Algorithm Type is DF.
  DIIS enabled.
  MOM disabled.
  Fractional occupation disabled.
  Guess Type is SAD.
  Energy threshold   = 1.00e-10
  Density threshold  = 1.00e-10
  Integral threshold = 0.00e+00

  ==> Primary Basis <==

  Basis Set: 6-31G
    Blend: 6-31G
    Number of shells: 27
    Number of basis function: 39
    Number of Cartesian functions: 39
    Spherical Harmonics?: false
    Max angular momentum: 1

   => Loading Basis Set <=

    Name: (6-31G AUX)
    Role: JKFIT
    Keyword: DF_BASIS_SCF
    atoms 1-3 entry C          line   121 file /home/akrom/software/anaconda3/envs/ffpenv/share/psi4/basis/cc-pvdz-jkfit.gbs 
    atoms 4-9 entry H          line    51 file /home/akrom/software/anaconda3/envs/ffpenv/share/psi4/basis/cc-pvdz-jkfit.gbs 

  ==> Pre-Iterations <==

   -------------------------------------------------------
    Irrep   Nso     Nmo     Nalpha   Nbeta   Ndocc  Nsocc
   -------------------------------------------------------
     A'        27      27       0       0       0       0
     A"        12      12       0       0       0       0
   -------------------------------------------------------
    Total      39      39      12      12      12       0
   -------------------------------------------------------

  ==> Integral Setup <==

  DFHelper Memory: AOs need 0.006 GiB; user supplied 0.366 GiB. Using in-core AOs.

  ==> MemDFJK: Density-Fitted J/K Matrices <==

    J tasked:                   Yes
    K tasked:                   Yes
    wK tasked:                   No
    OpenMP threads:               1
    Memory [MiB]:               375
    Algorithm:                 Core
    Schwarz Cutoff:           1E-12
    Mask sparsity (%):       0.0000
    Fitting Condition:        1E-10

   => Auxiliary Basis Set <=

  Basis Set: (6-31G AUX)
    Blend: CC-PVDZ-JKFIT
    Number of shells: 126
    Number of basis function: 393
    Number of Cartesian functions: 393
    Spherical Harmonics?: false
    Max angular momentum: 3

  Minimum eigenvalue in the overlap matrix is 9.9475880981E-03.
  Using Symmetric Orthogonalization.

  SCF Guess: Superposition of Atomic Densities via on-the-fly atomic UHF.

  ==> Iterations <==

                           Total Energy        Delta E     RMS |[F,P]|

   @DF-RHF iter SAD:  -116.54531314633678   -1.16545e+02   0.00000e+00 
   @DF-RHF iter   1:  -116.95968769106955   -4.14375e-01   9.01850e-03 DIIS
   @DF-RHF iter   2:  -116.99997354929141   -4.02859e-02   3.46645e-03 DIIS
   @DF-RHF iter   3:  -117.00575701097964   -5.78346e-03   6.45081e-04 DIIS
   @DF-RHF iter   4:  -117.00609078500463   -3.33774e-04   6.70515e-05 DIIS
   @DF-RHF iter   5:  -117.00609555424637   -4.76924e-06   6.01494e-06 DIIS
   @DF-RHF iter   6:  -117.00609560109021   -4.68438e-08   8.87458e-07 DIIS
   @DF-RHF iter   7:  -117.00609560204683   -9.56618e-10   1.15832e-07 DIIS
   @DF-RHF iter   8:  -117.00609560205805   -1.12266e-11   1.46495e-08 DIIS
   @DF-RHF iter   9:  -117.00609560205847   -4.12115e-13   2.29888e-09 DIIS
   @DF-RHF iter  10:  -117.00609560205835    1.13687e-13   7.72389e-10 DIIS
   @DF-RHF iter  11:  -117.00609560205837   -1.42109e-14   6.62935e-11 DIIS
  Energy and wave function converged.


  ==> Post-Iterations <==

    Orbital Energies [Eh]
    ---------------------

    Doubly Occupied:                                                      

       1Ap   -11.229673     2Ap   -11.228756     3Ap   -11.228751  
       4Ap    -1.134538     5Ap    -0.813738     6Ap    -0.813732  
       1App   -0.666963     7Ap    -0.620050     2App   -0.507779  
       3App   -0.507764     8Ap    -0.416177     9Ap    -0.416169  

    Virtual:                                                              

      10Ap     0.240932     4App    0.253332    11Ap     0.299826  
      12Ap     0.299832    13Ap     0.316113     5App    0.378292  
       6App    0.378298    14Ap     0.419362    15Ap     0.419372  
      16Ap     0.700441     7App    0.783614    17Ap     0.795703  
      18Ap     0.795725    19Ap     0.916539    20Ap     0.916553  
      21Ap     0.959036    22Ap     1.009982     8App    1.046822  
       9App    1.046884    10App    1.203409    23Ap     1.243039  
      24Ap     1.243050    25Ap     1.271191    11App    1.286354  
      12App    1.286403    26Ap     1.540406    27Ap     1.540413  

    Final Occupation by Irrep:
             Ap   App 
    DOCC [     9,    3 ]

  @DF-RHF Final Energy:  -117.00609560205837

   => Energetics <=

    Nuclear Repulsion Energy =             75.2814648090140253
    One-Electron Energy =                -305.4069392682657735
    Two-Electron Energy =                 113.1193788571933680
    Total Energy =                       -117.0060956020583660

Computation Completed


Properties will be evaluated at   0.000000,   0.000000,   0.000000 [a0]

Properties computed using the SCF density matrix

  Nuclear Dipole Moment: [e a0]
     X:    -0.0002      Y:    -0.0002      Z:     0.0000

  Electronic Dipole Moment: [e a0]
     X:     0.0001      Y:     0.0001      Z:     0.0000

  Dipole Moment: [e a0]
     X:    -0.0000      Y:    -0.0000      Z:     0.0000     Total:     0.0000

  Dipole Moment: [D]
     X:    -0.0001      Y:    -0.0001      Z:     0.0000     Total:     0.0001


*** tstop() called on atlantis at Tue Apr 19 02:20:03 2022
Module time:
	user time   =       0.43 seconds =       0.01 minutes
	system time =       0.00 seconds =       0.00 minutes
	total time  =          1 seconds =       0.02 minutes
Total time:
	user time   =       2.34 seconds =       0.04 minutes
	system time =       0.03 seconds =       0.00 minutes
	total time  =          3 seconds =       0.05 minutes

*** tstart() called on atlantis
*** at Tue Apr 19 02:20:03 2022


  //>>>>>>>>>>>>>>>>>>>>>>>>>>>>>>>>>>>//
  //               DFMP2               //
  //<<<<<<<<<<<<<<<<<<<<<<<<<<<<<<<<<<<//

   => Loading Basis Set <=

    Name: (6-31G AUX)
    Role: RIFIT
    Keyword: DF_BASIS_MP2
    atoms 1-3 entry C          line   159 file /home/akrom/software/anaconda3/envs/ffpenv/share/psi4/basis/cc-pvdz-ri.gbs 
    atoms 4-9 entry H          line    19 file /home/akrom/software/anaconda3/envs/ffpenv/share/psi4/basis/cc-pvdz-ri.gbs 

	 --------------------------------------------------------
	                          DF-MP2                         
	      2nd-Order Density-Fitted Moller-Plesset Theory     
	              RMP2 Wavefunction,   1 Threads             
	                                                         
	        Rob Parrish, Justin Turney, Andy Simmonett,      
	           Ed Hohenstein, and C. David Sherrill          
	 --------------------------------------------------------

   => Auxiliary Basis Set <=

  Basis Set: (6-31G AUX)
    Blend: CC-PVDZ-RI
    Number of shells: 90
    Number of basis function: 252
    Number of Cartesian functions: 288
    Spherical Harmonics?: true
    Max angular momentum: 3

	 --------------------------------------------------------
	                 NBF =    39, NAUX =   252
	 --------------------------------------------------------
	   CLASS    FOCC     OCC    AOCC    AVIR     VIR    FVIR
	   PAIRS       0      12      12      27      27       0
	 --------------------------------------------------------

  DFHelper Memory: AOs need 0.006 GiB; user supplied 0.366 GiB. Using in-core AOs.


         ------------------------------------------------------------
                                     CPHF                           
                                  Rob Parrish                       
         ------------------------------------------------------------

  ==> Geometry <==

    Molecular point group: cs
    Full point group: Cs

    Geometry (in Angstrom), charge = 0, multiplicity = 1:

       Center              X                  Y                   Z               Mass       
    ------------   -----------------  -----------------  -----------------  -----------------
         C            0.321531939855     0.813261460475     0.000000000000    12.000000000000
         C           -0.865048060145    -0.128168539525     0.000000000000    12.000000000000
         C            0.543531939855    -0.685078539525     0.000000000000    12.000000000000
         H            0.537951939855     1.360691460475    -0.920390000000     1.007825032230
         H            0.537951939855     1.360691460475     0.920390000000     1.007825032230
         H           -1.447418060145    -0.214488539525     0.920340000000     1.007825032230
         H           -1.447418060145    -0.214488539525    -0.920340000000     1.007825032230
         H            0.909371939855    -1.146288539525    -0.920370000000     1.007825032230
         H            0.909371939855    -1.146288539525     0.920370000000     1.007825032230

  Nuclear repulsion =   75.281464809014025
  Reference energy  = -117.006095602058366

  ==> Basis Set <==

  Basis Set: 6-31G
    Blend: 6-31G
    Number of shells: 27
    Number of basis function: 39
    Number of Cartesian functions: 39
    Spherical Harmonics?: false
    Max angular momentum: 1

  ==> CGRSolver (by Rob Parrish) <==

   Number of roots    =         1
   Preconditioning    =    JACOBI
   Convergence cutoff =     1E-06
   Maximum iterations =       100

  ==> CPHFRHamiltonian (by Rob Parrish) <== 

  ==> MemDFJK: Density-Fitted J/K Matrices <==

    J tasked:                   Yes
    K tasked:                   Yes
    wK tasked:                   No
    OpenMP threads:               1
    Memory [MiB]:               375
    Algorithm:                 Core
    Schwarz Cutoff:           1E-12
    Mask sparsity (%):       0.0000
    Fitting Condition:        1E-10

   => Auxiliary Basis Set <=

  Basis Set: (6-31G AUX)
    Blend: CC-PVDZ-JKFIT
    Number of shells: 126
    Number of basis function: 393
    Number of Cartesian functions: 393
    Spherical Harmonics?: false
    Max angular momentum: 3

  ==> CPHF Iterations <==

  => Iterations <=

             Iter  Converged  Remaining    Residual
  CGR           1          0          1   7.762E-02
  CGR           2          0          1   9.555E-03
  CGR           3          0          1   7.840E-04
  CGR           4          0          1   1.049E-04
  CGR           5          0          1   1.655E-05
  CGR           6          0          1   1.620E-06
  CGR           7          1          0   1.056E-07

    CGRSolver converged.

  ==> DFCorrGrad: Density-Fitted Correlated Gradients <==

    OpenMP threads:              1
    Integrals threads:           1
    Memory [GiB]:            0.366
    Schwarz Cutoff:          0E+00
    Fitting Condition:       1E-10

   => Auxiliary Basis Set <=

  Basis Set: (6-31G AUX)
    Blend: CC-PVDZ-JKFIT
    Number of shells: 126
    Number of basis function: 393
    Number of Cartesian functions: 393
    Spherical Harmonics?: false
    Max angular momentum: 3

	-----------------------------------------------------------
	 ==================> DF-MP2 Energies <==================== 
	-----------------------------------------------------------
	 Reference Energy          =    -117.0060956020583660 [Eh]
	 Singles Energy            =      -0.0000000000000000 [Eh]
	 Same-Spin Energy          =      -0.0588330782400369 [Eh]
	 Opposite-Spin Energy      =      -0.2172862852772303 [Eh]
	 Correlation Energy        =      -0.2761193635172672 [Eh]
	 Total Energy              =    -117.2822149655756334 [Eh]
	-----------------------------------------------------------
	 ================> DF-SCS-MP2 Energies <================== 
	-----------------------------------------------------------
	 SCS Same-Spin Scale       =       0.3333333333333333 [-]
	 SCS Opposite-Spin Scale   =       1.2000000000000000 [-]
	 SCS Same-Spin Energy      =      -0.0196110260800123 [Eh]
	 SCS Opposite-Spin Energy  =      -0.2607435423326764 [Eh]
	 SCS Correlation Energy    =      -0.2803545684126887 [Eh]
	 SCS Total Energy          =    -117.2864501704710563 [Eh]
	-----------------------------------------------------------


  -Total Gradient:
     Atom            X                  Y                   Z
    ------   -----------------  -----------------  -----------------
       1       -0.004555540066    -0.011521483069     0.000000000000
       2        0.012282384614     0.001823743214     0.000000000000
       3       -0.007701914224     0.009719236772     0.000000000000
       4        0.000061758609     0.000160066212    -0.004383387109
       5        0.000061758609     0.000160066212     0.004383387109
       6       -0.000179222493    -0.000029590273     0.004373400956
       7       -0.000179222493    -0.000029590273    -0.004373400956
       8        0.000104998722    -0.000141224397    -0.004379538296
       9        0.000104998722    -0.000141224397     0.004379538296


*** tstop() called on atlantis at Tue Apr 19 02:20:03 2022
Module time:
	user time   =       0.64 seconds =       0.01 minutes
	system time =       0.01 seconds =       0.00 minutes
	total time  =          0 seconds =       0.00 minutes
Total time:
	user time   =       2.98 seconds =       0.05 minutes
	system time =       0.04 seconds =       0.00 minutes
	total time  =          3 seconds =       0.05 minutes

  //>>>>>>>>>>>>>>>>>>>>>>>>>>>>>>>>>>>//
  //    Loading displacement 2 of 34   //
  //<<<<<<<<<<<<<<<<<<<<<<<<<<<<<<<<<<<//
gradient() will perform analytic gradient computation.
    SCF Algorithm Type (re)set to DF.

*** tstart() called on atlantis
*** at Tue Apr 19 02:20:03 2022

   => Loading Basis Set <=

    Name: 6-31G
    Role: ORBITAL
    Keyword: BASIS
    atoms 1-3 entry C          line    87 file /home/akrom/software/anaconda3/envs/ffpenv/share/psi4/basis/6-31g.gbs 
    atoms 4-9 entry H          line    26 file /home/akrom/software/anaconda3/envs/ffpenv/share/psi4/basis/6-31g.gbs 


         ---------------------------------------------------------
                                   SCF
               by Justin Turney, Rob Parrish, Andy Simmonett
                          and Daniel G. A. Smith
                              RHF Reference
                        1 Threads,    500 MiB Core
         ---------------------------------------------------------

  ==> Geometry <==

    Molecular point group: cs
    Full point group: Cs

    Geometry (in Angstrom), charge = 0, multiplicity = 1:

       Center              X                  Y                   Z               Mass       
    ------------   -----------------  -----------------  -----------------  -----------------
         C            0.320981935461     0.813179232929     0.000000000000    12.000000000000
         C           -0.864778117207    -0.127947314912     0.000000000000    12.000000000000
         C            0.543659460418    -0.685217540638     0.000000000000    12.000000000000
         H            0.538602639069     1.360553886373    -0.920390000000     1.007825032230
         H            0.538602639069     1.360553886373     0.920390000000     1.007825032230
         H           -1.447170192407    -0.214118381478     0.920340000000     1.007825032230
         H           -1.447170192407    -0.214118381478    -0.920340000000     1.007825032230
         H            0.909381512053    -1.146521099385    -0.920370000000     1.007825032230
         H            0.909381512053    -1.146521099385     0.920370000000     1.007825032230

  Running in cs symmetry.

  Rotational constants: A =      0.66511  B =      0.66452  C =      0.41655 [cm^-1]
  Rotational constants: A =  19939.46144  B =  19921.88173  C =  12487.97026 [MHz]
  Nuclear repulsion =   75.286659304380962

  Charge       = 0
  Multiplicity = 1
  Electrons    = 24
  Nalpha       = 12
  Nbeta        = 12

  ==> Algorithm <==

  SCF Algorithm Type is DF.
  DIIS enabled.
  MOM disabled.
  Fractional occupation disabled.
  Guess Type is SAD.
  Energy threshold   = 1.00e-10
  Density threshold  = 1.00e-10
  Integral threshold = 0.00e+00

  ==> Primary Basis <==

  Basis Set: 6-31G
    Blend: 6-31G
    Number of shells: 27
    Number of basis function: 39
    Number of Cartesian functions: 39
    Spherical Harmonics?: false
    Max angular momentum: 1

   => Loading Basis Set <=

    Name: (6-31G AUX)
    Role: JKFIT
    Keyword: DF_BASIS_SCF
    atoms 1-3 entry C          line   121 file /home/akrom/software/anaconda3/envs/ffpenv/share/psi4/basis/cc-pvdz-jkfit.gbs 
    atoms 4-9 entry H          line    51 file /home/akrom/software/anaconda3/envs/ffpenv/share/psi4/basis/cc-pvdz-jkfit.gbs 

  ==> Pre-Iterations <==

   -------------------------------------------------------
    Irrep   Nso     Nmo     Nalpha   Nbeta   Ndocc  Nsocc
   -------------------------------------------------------
     A'        27      27       0       0       0       0
     A"        12      12       0       0       0       0
   -------------------------------------------------------
    Total      39      39      12      12      12       0
   -------------------------------------------------------

  ==> Integral Setup <==

  DFHelper Memory: AOs need 0.006 GiB; user supplied 0.366 GiB. Using in-core AOs.

  ==> MemDFJK: Density-Fitted J/K Matrices <==

    J tasked:                   Yes
    K tasked:                   Yes
    wK tasked:                   No
    OpenMP threads:               1
    Memory [MiB]:               375
    Algorithm:                 Core
    Schwarz Cutoff:           1E-12
    Mask sparsity (%):       0.0000
    Fitting Condition:        1E-10

   => Auxiliary Basis Set <=

  Basis Set: (6-31G AUX)
    Blend: CC-PVDZ-JKFIT
    Number of shells: 126
    Number of basis function: 393
    Number of Cartesian functions: 393
    Spherical Harmonics?: false
    Max angular momentum: 3

  Minimum eigenvalue in the overlap matrix is 9.9349217114E-03.
  Using Symmetric Orthogonalization.

  SCF Guess: Superposition of Atomic Densities via on-the-fly atomic UHF.

  ==> Iterations <==

                           Total Energy        Delta E     RMS |[F,P]|

   @DF-RHF iter SAD:  -116.54599066916504   -1.16546e+02   0.00000e+00 
   @DF-RHF iter   1:  -116.95966011614523   -4.13669e-01   9.02102e-03 DIIS
   @DF-RHF iter   2:  -116.99996309294190   -4.03030e-02   3.46857e-03 DIIS
   @DF-RHF iter   3:  -117.00575308578587   -5.78999e-03   6.45206e-04 DIIS
   @DF-RHF iter   4:  -117.00608701059932   -3.33925e-04   6.70636e-05 DIIS
   @DF-RHF iter   5:  -117.00609178142506   -4.77083e-06   6.02070e-06 DIIS
   @DF-RHF iter   6:  -117.00609182830502   -4.68800e-08   8.98459e-07 DIIS
   @DF-RHF iter   7:  -117.00609182926549   -9.60469e-10   1.61144e-07 DIIS
   @DF-RHF iter   8:  -117.00609182928221   -1.67262e-11   4.80692e-08 DIIS
   @DF-RHF iter   9:  -117.00609182928359   -1.37845e-12   7.28137e-09 DIIS
   @DF-RHF iter  10:  -117.00609182928358    1.42109e-14   9.15824e-10 DIIS
   @DF-RHF iter  11:  -117.00609182928356    1.42109e-14   1.95104e-10 DIIS
   @DF-RHF iter  12:  -117.00609182928365   -8.52651e-14   4.60593e-11 DIIS
  Energy and wave function converged.


  ==> Post-Iterations <==

    Orbital Energies [Eh]
    ---------------------

    Doubly Occupied:                                                      

       1Ap   -11.229662     2Ap   -11.228755     3Ap   -11.228726  
       4Ap    -1.134661     5Ap    -0.813764     6Ap    -0.813664  
       1App   -0.666968     7Ap    -0.620114     2App   -0.507775  
       3App   -0.507642     8Ap    -0.416470     9Ap    -0.415975  

    Virtual:                                                              

      10Ap     0.240930     4App    0.253281    11Ap     0.299815  
      12Ap     0.299845    13Ap     0.316196     5App    0.378270  
       6App    0.378322    14Ap     0.419268    15Ap     0.419575  
      16Ap     0.700386     7App    0.783673    17Ap     0.795550  
      18Ap     0.795785    19Ap     0.916471    20Ap     0.916995  
      21Ap     0.959097    22Ap     1.009880     8App    1.046545  
       9App    1.047140    10App    1.203283    23Ap     1.242930  
      24Ap     1.243054    25Ap     1.271115    11App    1.286069  
      12App    1.286534    26Ap     1.540471    27Ap     1.540530  

    Final Occupation by Irrep:
             Ap   App 
    DOCC [     9,    3 ]

  @DF-RHF Final Energy:  -117.00609182928365

   => Energetics <=

    Nuclear Repulsion Energy =             75.2866593043809615
    One-Electron Energy =                -305.4171530315939549
    Two-Electron Energy =                 113.1244018979293315
    Total Energy =                       -117.0060918292836476

Computation Completed


Properties will be evaluated at   0.000000,   0.000000,   0.000000 [a0]

Properties computed using the SCF density matrix

  Nuclear Dipole Moment: [e a0]
     X:     0.0015      Y:    -0.0002      Z:     0.0000

  Electronic Dipole Moment: [e a0]
     X:    -0.0018      Y:     0.0004      Z:     0.0000

  Dipole Moment: [e a0]
     X:    -0.0003      Y:     0.0002      Z:     0.0000     Total:     0.0004

  Dipole Moment: [D]
     X:    -0.0007      Y:     0.0006      Z:     0.0000     Total:     0.0009


*** tstop() called on atlantis at Tue Apr 19 02:20:04 2022
Module time:
	user time   =       0.43 seconds =       0.01 minutes
	system time =       0.00 seconds =       0.00 minutes
	total time  =          1 seconds =       0.02 minutes
Total time:
	user time   =       3.41 seconds =       0.06 minutes
	system time =       0.04 seconds =       0.00 minutes
	total time  =          4 seconds =       0.07 minutes

*** tstart() called on atlantis
*** at Tue Apr 19 02:20:04 2022


  //>>>>>>>>>>>>>>>>>>>>>>>>>>>>>>>>>>>//
  //               DFMP2               //
  //<<<<<<<<<<<<<<<<<<<<<<<<<<<<<<<<<<<//

   => Loading Basis Set <=

    Name: (6-31G AUX)
    Role: RIFIT
    Keyword: DF_BASIS_MP2
    atoms 1-3 entry C          line   159 file /home/akrom/software/anaconda3/envs/ffpenv/share/psi4/basis/cc-pvdz-ri.gbs 
    atoms 4-9 entry H          line    19 file /home/akrom/software/anaconda3/envs/ffpenv/share/psi4/basis/cc-pvdz-ri.gbs 

	 --------------------------------------------------------
	                          DF-MP2                         
	      2nd-Order Density-Fitted Moller-Plesset Theory     
	              RMP2 Wavefunction,   1 Threads             
	                                                         
	        Rob Parrish, Justin Turney, Andy Simmonett,      
	           Ed Hohenstein, and C. David Sherrill          
	 --------------------------------------------------------

   => Auxiliary Basis Set <=

  Basis Set: (6-31G AUX)
    Blend: CC-PVDZ-RI
    Number of shells: 90
    Number of basis function: 252
    Number of Cartesian functions: 288
    Spherical Harmonics?: true
    Max angular momentum: 3

	 --------------------------------------------------------
	                 NBF =    39, NAUX =   252
	 --------------------------------------------------------
	   CLASS    FOCC     OCC    AOCC    AVIR     VIR    FVIR
	   PAIRS       0      12      12      27      27       0
	 --------------------------------------------------------

  DFHelper Memory: AOs need 0.006 GiB; user supplied 0.366 GiB. Using in-core AOs.


         ------------------------------------------------------------
                                     CPHF                           
                                  Rob Parrish                       
         ------------------------------------------------------------

  ==> Geometry <==

    Molecular point group: cs
    Full point group: Cs

    Geometry (in Angstrom), charge = 0, multiplicity = 1:

       Center              X                  Y                   Z               Mass       
    ------------   -----------------  -----------------  -----------------  -----------------
         C            0.320981935461     0.813179232929     0.000000000000    12.000000000000
         C           -0.864778117207    -0.127947314912     0.000000000000    12.000000000000
         C            0.543659460418    -0.685217540638     0.000000000000    12.000000000000
         H            0.538602639069     1.360553886373    -0.920390000000     1.007825032230
         H            0.538602639069     1.360553886373     0.920390000000     1.007825032230
         H           -1.447170192407    -0.214118381478     0.920340000000     1.007825032230
         H           -1.447170192407    -0.214118381478    -0.920340000000     1.007825032230
         H            0.909381512053    -1.146521099385    -0.920370000000     1.007825032230
         H            0.909381512053    -1.146521099385     0.920370000000     1.007825032230

  Nuclear repulsion =   75.286659304380962
  Reference energy  = -117.006091829283648

  ==> Basis Set <==

  Basis Set: 6-31G
    Blend: 6-31G
    Number of shells: 27
    Number of basis function: 39
    Number of Cartesian functions: 39
    Spherical Harmonics?: false
    Max angular momentum: 1

  ==> CGRSolver (by Rob Parrish) <==

   Number of roots    =         1
   Preconditioning    =    JACOBI
   Convergence cutoff =     1E-06
   Maximum iterations =       100

  ==> CPHFRHamiltonian (by Rob Parrish) <== 

  ==> MemDFJK: Density-Fitted J/K Matrices <==

    J tasked:                   Yes
    K tasked:                   Yes
    wK tasked:                   No
    OpenMP threads:               1
    Memory [MiB]:               375
    Algorithm:                 Core
    Schwarz Cutoff:           1E-12
    Mask sparsity (%):       0.0000
    Fitting Condition:        1E-10

   => Auxiliary Basis Set <=

  Basis Set: (6-31G AUX)
    Blend: CC-PVDZ-JKFIT
    Number of shells: 126
    Number of basis function: 393
    Number of Cartesian functions: 393
    Spherical Harmonics?: false
    Max angular momentum: 3

  ==> CPHF Iterations <==

  => Iterations <=

             Iter  Converged  Remaining    Residual
  CGR           1          0          1   7.760E-02
  CGR           2          0          1   9.548E-03
  CGR           3          0          1   7.842E-04
  CGR           4          0          1   1.052E-04
  CGR           5          0          1   1.708E-05
  CGR           6          0          1   5.004E-06
  CGR           7          1          0   7.940E-07

    CGRSolver converged.

  ==> DFCorrGrad: Density-Fitted Correlated Gradients <==

    OpenMP threads:              1
    Integrals threads:           1
    Memory [GiB]:            0.366
    Schwarz Cutoff:          0E+00
    Fitting Condition:       1E-10

   => Auxiliary Basis Set <=

  Basis Set: (6-31G AUX)
    Blend: CC-PVDZ-JKFIT
    Number of shells: 126
    Number of basis function: 393
    Number of Cartesian functions: 393
    Spherical Harmonics?: false
    Max angular momentum: 3

	-----------------------------------------------------------
	 ==================> DF-MP2 Energies <==================== 
	-----------------------------------------------------------
	 Reference Energy          =    -117.0060918292836476 [Eh]
	 Singles Energy            =      -0.0000000000000000 [Eh]
	 Same-Spin Energy          =      -0.0588325563414751 [Eh]
	 Opposite-Spin Energy      =      -0.2172808334992857 [Eh]
	 Correlation Energy        =      -0.2761133898407608 [Eh]
	 Total Energy              =    -117.2822052191244069 [Eh]
	-----------------------------------------------------------
	 ================> DF-SCS-MP2 Energies <================== 
	-----------------------------------------------------------
	 SCS Same-Spin Scale       =       0.3333333333333333 [-]
	 SCS Opposite-Spin Scale   =       1.2000000000000000 [-]
	 SCS Same-Spin Energy      =      -0.0196108521138250 [Eh]
	 SCS Opposite-Spin Energy  =      -0.2607370001991428 [Eh]
	 SCS Correlation Energy    =      -0.2803478523129678 [Eh]
	 SCS Total Energy          =    -117.2864396815966188 [Eh]
	-----------------------------------------------------------


  -Total Gradient:
     Atom            X                  Y                   Z
    ------   -----------------  -----------------  -----------------
       1       -0.005168677495    -0.011798204793     0.000000000000
       2        0.012582757932     0.001981123490     0.000000000000
       3       -0.007659264028     0.009710985901     0.000000000000
       4        0.000173776483     0.000220239799    -0.004478011169
       5        0.000173776483     0.000220239799     0.004478011169
       6       -0.000157982799    -0.000003927049     0.004381726752
       7       -0.000157982799    -0.000003927049    -0.004381726752
       8        0.000106798112    -0.000163265049    -0.004377204099
       9        0.000106798112    -0.000163265049     0.004377204099


*** tstop() called on atlantis at Tue Apr 19 02:20:04 2022
Module time:
	user time   =       0.65 seconds =       0.01 minutes
	system time =       0.01 seconds =       0.00 minutes
	total time  =          0 seconds =       0.00 minutes
Total time:
	user time   =       4.06 seconds =       0.07 minutes
	system time =       0.05 seconds =       0.00 minutes
	total time  =          4 seconds =       0.07 minutes

  //>>>>>>>>>>>>>>>>>>>>>>>>>>>>>>>>>>>//
  //    Loading displacement 3 of 34   //
  //<<<<<<<<<<<<<<<<<<<<<<<<<<<<<<<<<<<//
gradient() will perform analytic gradient computation.
    SCF Algorithm Type (re)set to DF.

*** tstart() called on atlantis
*** at Tue Apr 19 02:20:04 2022

   => Loading Basis Set <=

    Name: 6-31G
    Role: ORBITAL
    Keyword: BASIS
    atoms 1-3 entry C          line    87 file /home/akrom/software/anaconda3/envs/ffpenv/share/psi4/basis/6-31g.gbs 
    atoms 4-9 entry H          line    26 file /home/akrom/software/anaconda3/envs/ffpenv/share/psi4/basis/6-31g.gbs 


         ---------------------------------------------------------
                                   SCF
               by Justin Turney, Rob Parrish, Andy Simmonett
                          and Daniel G. A. Smith
                              RHF Reference
                        1 Threads,    500 MiB Core
         ---------------------------------------------------------

  ==> Geometry <==

    Molecular point group: cs
    Full point group: Cs

    Geometry (in Angstrom), charge = 0, multiplicity = 1:

       Center              X                  Y                   Z               Mass       
    ------------   -----------------  -----------------  -----------------  -----------------
         C            0.322081944250     0.813343688021     0.000000000000    12.000000000000
         C           -0.865318003082    -0.128389764139     0.000000000000    12.000000000000
         C            0.543404419293    -0.684939538412     0.000000000000    12.000000000000
         H            0.537301240642     1.360829034576    -0.920390000000     1.007825032230
         H            0.537301240642     1.360829034576     0.920390000000     1.007825032230
         H           -1.447665927882    -0.214858697572     0.920340000000     1.007825032230
         H           -1.447665927882    -0.214858697572    -0.920340000000     1.007825032230
         H            0.909362367658    -1.146055979665    -0.920370000000     1.007825032230
         H            0.909362367658    -1.146055979665     0.920370000000     1.007825032230

  Running in cs symmetry.

  Rotational constants: A =      0.66489  B =      0.66431  C =      0.41639 [cm^-1]
  Rotational constants: A =  19932.94970  B =  19915.53021  C =  12482.92073 [MHz]
  Nuclear repulsion =   75.276267816162189

  Charge       = 0
  Multiplicity = 1
  Electrons    = 24
  Nalpha       = 12
  Nbeta        = 12

  ==> Algorithm <==

  SCF Algorithm Type is DF.
  DIIS enabled.
  MOM disabled.
  Fractional occupation disabled.
  Guess Type is SAD.
  Energy threshold   = 1.00e-10
  Density threshold  = 1.00e-10
  Integral threshold = 0.00e+00

  ==> Primary Basis <==

  Basis Set: 6-31G
    Blend: 6-31G
    Number of shells: 27
    Number of basis function: 39
    Number of Cartesian functions: 39
    Spherical Harmonics?: false
    Max angular momentum: 1

   => Loading Basis Set <=

    Name: (6-31G AUX)
    Role: JKFIT
    Keyword: DF_BASIS_SCF
    atoms 1-3 entry C          line   121 file /home/akrom/software/anaconda3/envs/ffpenv/share/psi4/basis/cc-pvdz-jkfit.gbs 
    atoms 4-9 entry H          line    51 file /home/akrom/software/anaconda3/envs/ffpenv/share/psi4/basis/cc-pvdz-jkfit.gbs 

  ==> Pre-Iterations <==

   -------------------------------------------------------
    Irrep   Nso     Nmo     Nalpha   Nbeta   Ndocc  Nsocc
   -------------------------------------------------------
     A'        27      27       0       0       0       0
     A"        12      12       0       0       0       0
   -------------------------------------------------------
    Total      39      39      12      12      12       0
   -------------------------------------------------------

  ==> Integral Setup <==

  DFHelper Memory: AOs need 0.006 GiB; user supplied 0.366 GiB. Using in-core AOs.

  ==> MemDFJK: Density-Fitted J/K Matrices <==

    J tasked:                   Yes
    K tasked:                   Yes
    wK tasked:                   No
    OpenMP threads:               1
    Memory [MiB]:               375
    Algorithm:                 Core
    Schwarz Cutoff:           1E-12
    Mask sparsity (%):       0.0000
    Fitting Condition:        1E-10

   => Auxiliary Basis Set <=

  Basis Set: (6-31G AUX)
    Blend: CC-PVDZ-JKFIT
    Number of shells: 126
    Number of basis function: 393
    Number of Cartesian functions: 393
    Spherical Harmonics?: false
    Max angular momentum: 3

  Minimum eigenvalue in the overlap matrix is 9.9459059171E-03.
  Using Symmetric Orthogonalization.

  SCF Guess: Superposition of Atomic Densities via on-the-fly atomic UHF.

  ==> Iterations <==

                           Total Energy        Delta E     RMS |[F,P]|

   @DF-RHF iter SAD:  -116.54463535392533   -1.16545e+02   0.00000e+00 
   @DF-RHF iter   1:  -116.95971385769113   -4.15079e-01   9.01599e-03 DIIS
   @DF-RHF iter   2:  -116.99998264823790   -4.02688e-02   3.46433e-03 DIIS
   @DF-RHF iter   3:  -117.00575959857794   -5.77695e-03   6.44957e-04 DIIS
   @DF-RHF iter   4:  -117.00609322325512   -3.33625e-04   6.70406e-05 DIIS
   @DF-RHF iter   5:  -117.00609799106121   -4.76781e-06   6.01450e-06 DIIS
   @DF-RHF iter   6:  -117.00609803788926   -4.68280e-08   8.98327e-07 DIIS
   @DF-RHF iter   7:  -117.00609803885101   -9.61748e-10   1.60394e-07 DIIS
   @DF-RHF iter   8:  -117.00609803886753   -1.65272e-11   4.79002e-08 DIIS
   @DF-RHF iter   9:  -117.00609803886886   -1.32161e-12   7.28523e-09 DIIS
   @DF-RHF iter  10:  -117.00609803886897   -1.13687e-13   9.12481e-10 DIIS
   @DF-RHF iter  11:  -117.00609803886908   -1.13687e-13   1.93566e-10 DIIS
   @DF-RHF iter  12:  -117.00609803886894    1.42109e-13   4.60244e-11 DIIS
  Energy and wave function converged.


  ==> Post-Iterations <==

    Orbital Energies [Eh]
    ---------------------

    Doubly Occupied:                                                      

       1Ap   -11.229686     2Ap   -11.228779     3Ap   -11.228753  
       4Ap    -1.134416     5Ap    -0.813810     6Ap    -0.813703  
       1App   -0.666959     7Ap    -0.619986     2App   -0.507907  
       3App   -0.507759     8Ap    -0.416370     9Ap    -0.415878  

    Virtual:                                                              

      10Ap     0.240935     4App    0.253383    11Ap     0.299815  
      12Ap     0.299840    13Ap     0.316030     5App    0.378270  
       6App    0.378318    14Ap     0.419163    15Ap     0.419461  
      16Ap     0.700496     7App    0.783554    17Ap     0.795639  
      18Ap     0.795882    19Ap     0.916099    20Ap     0.916617  
      21Ap     0.958977    22Ap     1.010087     8App    1.046541  
       9App    1.047186    10App    1.203533    23Ap     1.243043  
      24Ap     1.243150    25Ap     1.271267    11App    1.286190  
      12App    1.286723    26Ap     1.540287    27Ap     1.540349  

    Final Occupation by Irrep:
             Ap   App 
    DOCC [     9,    3 ]

  @DF-RHF Final Energy:  -117.00609803886894

   => Energetics <=

    Nuclear Repulsion Energy =             75.2762678161621892
    One-Electron Energy =                -305.3967169960772026
    Two-Electron Energy =                 113.1143511410460576
    Total Energy =                       -117.0060980388689416

Computation Completed


Properties will be evaluated at   0.000000,   0.000000,   0.000000 [a0]

Properties computed using the SCF density matrix

  Nuclear Dipole Moment: [e a0]
     X:    -0.0019      Y:    -0.0002      Z:     0.0000

  Electronic Dipole Moment: [e a0]
     X:     0.0021      Y:    -0.0001      Z:     0.0000

  Dipole Moment: [e a0]
     X:     0.0002      Y:    -0.0003      Z:     0.0000     Total:     0.0004

  Dipole Moment: [D]
     X:     0.0005      Y:    -0.0008      Z:     0.0000     Total:     0.0009


*** tstop() called on atlantis at Tue Apr 19 02:20:05 2022
Module time:
	user time   =       0.44 seconds =       0.01 minutes
	system time =       0.00 seconds =       0.00 minutes
	total time  =          1 seconds =       0.02 minutes
Total time:
	user time   =       4.50 seconds =       0.07 minutes
	system time =       0.05 seconds =       0.00 minutes
	total time  =          5 seconds =       0.08 minutes

*** tstart() called on atlantis
*** at Tue Apr 19 02:20:05 2022


  //>>>>>>>>>>>>>>>>>>>>>>>>>>>>>>>>>>>//
  //               DFMP2               //
  //<<<<<<<<<<<<<<<<<<<<<<<<<<<<<<<<<<<//

   => Loading Basis Set <=

    Name: (6-31G AUX)
    Role: RIFIT
    Keyword: DF_BASIS_MP2
    atoms 1-3 entry C          line   159 file /home/akrom/software/anaconda3/envs/ffpenv/share/psi4/basis/cc-pvdz-ri.gbs 
    atoms 4-9 entry H          line    19 file /home/akrom/software/anaconda3/envs/ffpenv/share/psi4/basis/cc-pvdz-ri.gbs 

	 --------------------------------------------------------
	                          DF-MP2                         
	      2nd-Order Density-Fitted Moller-Plesset Theory     
	              RMP2 Wavefunction,   1 Threads             
	                                                         
	        Rob Parrish, Justin Turney, Andy Simmonett,      
	           Ed Hohenstein, and C. David Sherrill          
	 --------------------------------------------------------

   => Auxiliary Basis Set <=

  Basis Set: (6-31G AUX)
    Blend: CC-PVDZ-RI
    Number of shells: 90
    Number of basis function: 252
    Number of Cartesian functions: 288
    Spherical Harmonics?: true
    Max angular momentum: 3

	 --------------------------------------------------------
	                 NBF =    39, NAUX =   252
	 --------------------------------------------------------
	   CLASS    FOCC     OCC    AOCC    AVIR     VIR    FVIR
	   PAIRS       0      12      12      27      27       0
	 --------------------------------------------------------

  DFHelper Memory: AOs need 0.006 GiB; user supplied 0.366 GiB. Using in-core AOs.


         ------------------------------------------------------------
                                     CPHF                           
                                  Rob Parrish                       
         ------------------------------------------------------------

  ==> Geometry <==

    Molecular point group: cs
    Full point group: Cs

    Geometry (in Angstrom), charge = 0, multiplicity = 1:

       Center              X                  Y                   Z               Mass       
    ------------   -----------------  -----------------  -----------------  -----------------
         C            0.322081944250     0.813343688021     0.000000000000    12.000000000000
         C           -0.865318003082    -0.128389764139     0.000000000000    12.000000000000
         C            0.543404419293    -0.684939538412     0.000000000000    12.000000000000
         H            0.537301240642     1.360829034576    -0.920390000000     1.007825032230
         H            0.537301240642     1.360829034576     0.920390000000     1.007825032230
         H           -1.447665927882    -0.214858697572     0.920340000000     1.007825032230
         H           -1.447665927882    -0.214858697572    -0.920340000000     1.007825032230
         H            0.909362367658    -1.146055979665    -0.920370000000     1.007825032230
         H            0.909362367658    -1.146055979665     0.920370000000     1.007825032230

  Nuclear repulsion =   75.276267816162189
  Reference energy  = -117.006098038868942

  ==> Basis Set <==

  Basis Set: 6-31G
    Blend: 6-31G
    Number of shells: 27
    Number of basis function: 39
    Number of Cartesian functions: 39
    Spherical Harmonics?: false
    Max angular momentum: 1

  ==> CGRSolver (by Rob Parrish) <==

   Number of roots    =         1
   Preconditioning    =    JACOBI
   Convergence cutoff =     1E-06
   Maximum iterations =       100

  ==> CPHFRHamiltonian (by Rob Parrish) <== 

  ==> MemDFJK: Density-Fitted J/K Matrices <==

    J tasked:                   Yes
    K tasked:                   Yes
    wK tasked:                   No
    OpenMP threads:               1
    Memory [MiB]:               375
    Algorithm:                 Core
    Schwarz Cutoff:           1E-12
    Mask sparsity (%):       0.0000
    Fitting Condition:        1E-10

   => Auxiliary Basis Set <=

  Basis Set: (6-31G AUX)
    Blend: CC-PVDZ-JKFIT
    Number of shells: 126
    Number of basis function: 393
    Number of Cartesian functions: 393
    Spherical Harmonics?: false
    Max angular momentum: 3

  ==> CPHF Iterations <==

  => Iterations <=

             Iter  Converged  Remaining    Residual
  CGR           1          0          1   7.764E-02
  CGR           2          0          1   9.562E-03
  CGR           3          0          1   7.841E-04
  CGR           4          0          1   1.053E-04
  CGR           5          0          1   1.712E-05
  CGR           6          0          1   4.968E-06
  CGR           7          1          0   7.917E-07

    CGRSolver converged.

  ==> DFCorrGrad: Density-Fitted Correlated Gradients <==

    OpenMP threads:              1
    Integrals threads:           1
    Memory [GiB]:            0.366
    Schwarz Cutoff:          0E+00
    Fitting Condition:       1E-10

   => Auxiliary Basis Set <=

  Basis Set: (6-31G AUX)
    Blend: CC-PVDZ-JKFIT
    Number of shells: 126
    Number of basis function: 393
    Number of Cartesian functions: 393
    Spherical Harmonics?: false
    Max angular momentum: 3

	-----------------------------------------------------------
	 ==================> DF-MP2 Energies <==================== 
	-----------------------------------------------------------
	 Reference Energy          =    -117.0060980388689416 [Eh]
	 Singles Energy            =      -0.0000000000000000 [Eh]
	 Same-Spin Energy          =      -0.0588336199827061 [Eh]
	 Opposite-Spin Energy      =      -0.2172918247646459 [Eh]
	 Correlation Energy        =      -0.2761254447473521 [Eh]
	 Total Energy              =    -117.2822234836162920 [Eh]
	-----------------------------------------------------------
	 ================> DF-SCS-MP2 Energies <================== 
	-----------------------------------------------------------
	 SCS Same-Spin Scale       =       0.3333333333333333 [-]
	 SCS Opposite-Spin Scale   =       1.2000000000000000 [-]
	 SCS Same-Spin Energy      =      -0.0196112066609020 [Eh]
	 SCS Opposite-Spin Energy  =      -0.2607501897175751 [Eh]
	 SCS Correlation Energy    =      -0.2803613963784771 [Eh]
	 SCS Total Energy          =    -117.2864594352474228 [Eh]
	-----------------------------------------------------------


  -Total Gradient:
     Atom            X                  Y                   Z
    ------   -----------------  -----------------  -----------------
       1       -0.003945117772    -0.011246787739     0.000000000000
       2        0.011983600491     0.001667758086     0.000000000000
       3       -0.007744449624     0.009727608790     0.000000000000
       4       -0.000049811053     0.000100114554    -0.004289071337
       5       -0.000049811053     0.000100114554     0.004289071337
       6       -0.000200434842    -0.000055203705     0.004365078748
       7       -0.000200434842    -0.000055203705    -0.004365078748
       8        0.000103229347    -0.000119200417    -0.004381876287
       9        0.000103229347    -0.000119200417     0.004381876287


*** tstop() called on atlantis at Tue Apr 19 02:20:05 2022
Module time:
	user time   =       0.64 seconds =       0.01 minutes
	system time =       0.00 seconds =       0.00 minutes
	total time  =          0 seconds =       0.00 minutes
Total time:
	user time   =       5.15 seconds =       0.09 minutes
	system time =       0.05 seconds =       0.00 minutes
	total time  =          5 seconds =       0.08 minutes

  //>>>>>>>>>>>>>>>>>>>>>>>>>>>>>>>>>>>//
  //    Loading displacement 4 of 34   //
  //<<<<<<<<<<<<<<<<<<<<<<<<<<<<<<<<<<<//
gradient() will perform analytic gradient computation.
    SCF Algorithm Type (re)set to DF.

*** tstart() called on atlantis
*** at Tue Apr 19 02:20:05 2022

   => Loading Basis Set <=

    Name: 6-31G
    Role: ORBITAL
    Keyword: BASIS
    atoms 1-3 entry C          line    87 file /home/akrom/software/anaconda3/envs/ffpenv/share/psi4/basis/6-31g.gbs 
    atoms 4-9 entry H          line    26 file /home/akrom/software/anaconda3/envs/ffpenv/share/psi4/basis/6-31g.gbs 


         ---------------------------------------------------------
                                   SCF
               by Justin Turney, Rob Parrish, Andy Simmonett
                          and Daniel G. A. Smith
                              RHF Reference
                        1 Threads,    500 MiB Core
         ---------------------------------------------------------

  ==> Geometry <==

    Molecular point group: cs
    Full point group: Cs

    Geometry (in Angstrom), charge = 0, multiplicity = 1:

       Center              X                  Y                   Z               Mass       
    ------------   -----------------  -----------------  -----------------  -----------------
         C            0.321531939855     0.812635159068     0.000000000000    12.000000000000
         C           -0.865072120902    -0.128008550426     0.000000000000    12.000000000000
         C            0.543576026536    -0.684746186637     0.000000000000    12.000000000000
         H            0.537745691682     1.361023130555    -0.920390000000     1.007825032230
         H            0.537745691682     1.361023130555     0.920390000000     1.007825032230
         H           -1.447431558178    -0.214399813329     0.920340000000     1.007825032230
         H           -1.447431558178    -0.214399813329    -0.920340000000     1.007825032230
         H            0.909472463446    -1.145911419873    -0.920370000000     1.007825032230
         H            0.909472463446    -1.145911419873     0.920370000000     1.007825032230

  Running in cs symmetry.

  Rotational constants: A =      0.66518  B =      0.66468  C =      0.41665 [cm^-1]
  Rotational constants: A =  19941.69418  B =  19926.66026  C =  12490.72376 [MHz]
  Nuclear repulsion =   75.292327113354389

  Charge       = 0
  Multiplicity = 1
  Electrons    = 24
  Nalpha       = 12
  Nbeta        = 12

  ==> Algorithm <==

  SCF Algorithm Type is DF.
  DIIS enabled.
  MOM disabled.
  Fractional occupation disabled.
  Guess Type is SAD.
  Energy threshold   = 1.00e-10
  Density threshold  = 1.00e-10
  Integral threshold = 0.00e+00

  ==> Primary Basis <==

  Basis Set: 6-31G
    Blend: 6-31G
    Number of shells: 27
    Number of basis function: 39
    Number of Cartesian functions: 39
    Spherical Harmonics?: false
[...]
	 Opposite-Spin Energy      =      -0.2172863074475093 [Eh]
	 Correlation Energy        =      -0.2761193734678342 [Eh]
	 Total Energy              =    -117.2822122875474804 [Eh]
	-----------------------------------------------------------
	 ================> DF-SCS-MP2 Energies <================== 
	-----------------------------------------------------------
	 SCS Same-Spin Scale       =       0.3333333333333333 [-]
	 SCS Opposite-Spin Scale   =       1.2000000000000000 [-]
	 SCS Same-Spin Energy      =      -0.0196110220067750 [Eh]
	 SCS Opposite-Spin Energy  =      -0.2607435689370111 [Eh]
	 SCS Correlation Energy    =      -0.2803545909437861 [Eh]
	 SCS Total Energy          =    -117.2864475050234319 [Eh]
	-----------------------------------------------------------


  -Total Gradient:
     Atom            X                  Y                   Z
    ------   -----------------  -----------------  -----------------
       1       -0.004555542854    -0.011521436576    -0.000001093704
       2        0.012281888298     0.001823530668     0.000435693621
       3       -0.007701219832     0.009716744192    -0.001254311505
       4        0.000059666273     0.000154263620    -0.004384419800
       5        0.000063843040     0.000165874391     0.004382360175
       6        0.000003442593    -0.000026809026     0.004086847195
       7       -0.000361207867    -0.000032312162    -0.004659228683
       8       -0.000281079938     0.000238462843    -0.003679857784
       9        0.000490210287    -0.000518317950     0.005074010486


*** tstop() called on atlantis at Tue Apr 19 02:20:40 2022
Module time:
	user time   =       0.64 seconds =       0.01 minutes
	system time =       0.00 seconds =       0.00 minutes
	total time  =          1 seconds =       0.02 minutes
Total time:
	user time   =      38.31 seconds =       0.64 minutes
	system time =       0.55 seconds =       0.01 minutes
	total time  =         40 seconds =       0.67 minutes

         ----------------------------------------------------------
                                   FINDIF
                     R. A. King and Jonathon Misiewicz
         ---------------------------------------------------------

  Computing second-derivative from gradients using projected, 
  symmetry-adapted, cartesian coordinates.

  34 gradients passed in, including the reference geometry.
  Generating complete list of displacements from unique ones.

    Operation 2 takes plus displacements of irrep A" to minus ones.

-------------------------------------------------------------


  ==> Harmonic Vibrational Analysis <==

  non-mass-weighted Hessian:       Symmetric? True   Hermitian? True   Lin Dep Dim?  6 (0)
  projection of translations (True) and rotations (True) removed 6 degrees of freedom (6)
  total projector:                 Symmetric? True   Hermitian? True   Lin Dep Dim?  6 (6)
  mass-weighted Hessian:           Symmetric? True   Hermitian? True   Lin Dep Dim?  6 (0)
  pre-proj  low-frequency mode:    0.0000i [cm^-1]
  pre-proj  low-frequency mode:    0.0000i [cm^-1]
  pre-proj  low-frequency mode:    0.0000i [cm^-1]
  pre-proj  low-frequency mode:    0.0000  [cm^-1]
  pre-proj  low-frequency mode:    0.0000  [cm^-1]
  pre-proj  low-frequency mode:    0.0000  [cm^-1]
  pre-proj  all modes:['0.0000i' '0.0000i' '0.0000i' '0.0000' '0.0000' '0.0000' '837.5190'
 '837.5351' '920.8378' '920.8760' '937.6930' '1184.4796' '1184.4900'
 '1197.2092' '1235.2864' '1262.1681' '1287.1758' '1287.1799' '1562.7537'
 '1562.7751' '1593.9091' '3129.9242' '3129.9459' '3143.0919' '3216.7362'
 '3216.7454' '3240.7201']
  projected mass-weighted Hessian: Symmetric? True   Hermitian? True   Lin Dep Dim?  6 (6)
  post-proj low-frequency mode:    0.0000i [cm^-1] (TR)
  post-proj low-frequency mode:    0.0000i [cm^-1] (TR)
  post-proj low-frequency mode:    0.0000i [cm^-1] (TR)
  post-proj low-frequency mode:    0.0000  [cm^-1] (TR)
  post-proj low-frequency mode:    0.0000  [cm^-1] (TR)
  post-proj low-frequency mode:    0.0001  [cm^-1] (TR)
  post-proj  all modes:['0.0000i' '0.0000i' '0.0000i' '0.0000' '0.0000' '0.0001' '837.5190'
 '837.5351' '920.8378' '920.8760' '937.6930' '1184.4796' '1184.4900'
 '1197.2092' '1235.2864' '1262.1681' '1287.1758' '1287.1799' '1562.7537'
 '1562.7751' '1593.9091' '3129.9242' '3129.9459' '3143.0919' '3216.7362'
 '3216.7454' '3240.7201']

  Vibration                       7                   8                   9           
  Freq [cm^-1]                 837.5190            837.5351            920.8378       
  Irrep                          App                 App                  Ap          
  Reduced mass [u]              1.0200              1.0200              3.9423        
  Force const [mDyne/A]         0.4215              0.4215              1.9695        
  Turning point v=0 [a0]        0.3754              0.3754              0.1821        
  RMS dev v=0 [a0 u^1/2]        0.2681              0.2681              0.2557        
  Char temp [K]               1205.0033           1205.0266           1324.8806       
  ----------------------------------------------------------------------------------
      1   C                0.00  0.00  0.03    0.00  0.00 -0.01   -0.21  0.20 -0.00   
      2   C                0.00 -0.00 -0.02    0.00 -0.00 -0.02    0.30  0.10 -0.00   
      3   C               -0.00  0.00 -0.01   -0.00  0.00  0.03   -0.04 -0.29 -0.00   
      4   H               -0.01 -0.32 -0.18    0.43 -0.09  0.05   -0.34  0.23 -0.01   
      5   H                0.01  0.32 -0.18   -0.43  0.09  0.05   -0.34  0.23  0.01   
      6   H                0.26 -0.28  0.13    0.18  0.34  0.13    0.24  0.11 -0.04   
      7   H               -0.26  0.28  0.13   -0.18 -0.34  0.13    0.24  0.11  0.04   
      8   H                0.39  0.20  0.05   -0.09  0.31 -0.17   -0.15 -0.33 -0.02   
      9   H               -0.39 -0.20  0.05    0.09 -0.31 -0.17   -0.15 -0.33  0.02   

  Vibration                       10                  11                  12          
  Freq [cm^-1]                 920.8760            937.6930           1184.4796       
  Irrep                           Ap                 App                  Ap          
  Reduced mass [u]              3.9424              1.0452              1.2436        
  Force const [mDyne/A]         1.9698              0.5415              1.0280        
  Turning point v=0 [a0]        0.1821              0.3505              0.2859        
  RMS dev v=0 [a0 u^1/2]        0.2557              0.2534              0.2254        
  Char temp [K]               1324.9356           1349.1314           1704.2024       
  ----------------------------------------------------------------------------------
      1   C               -0.20 -0.24  0.00   -0.00 -0.00 -0.03   -0.08  0.05  0.00   
      2   C               -0.10  0.27  0.00   -0.00  0.00 -0.03    0.03 -0.02 -0.00   
      3   C                0.29 -0.07  0.00    0.00  0.00 -0.03   -0.08 -0.07 -0.00   
      4   H               -0.22 -0.17  0.04    0.13  0.33  0.20    0.41 -0.17 -0.01   
      5   H               -0.22 -0.17 -0.04   -0.13 -0.33  0.20    0.41 -0.17  0.01   
      6   H               -0.11  0.40  0.01    0.35  0.05  0.20   -0.03  0.09 -0.02   
      7   H               -0.11  0.40 -0.01   -0.35 -0.05  0.20   -0.03  0.09  0.02   
      8   H                0.34  0.02 -0.03    0.22 -0.28  0.20    0.42  0.34 -0.01   
      9   H                0.34  0.02  0.03   -0.22  0.28  0.20    0.42  0.34  0.01   

  Vibration                       13                  14                  15          
  Freq [cm^-1]                1184.4900           1197.2092           1235.2864       
  Irrep                           Ap                  Ap                 App          
  Reduced mass [u]              1.2436              1.4254              1.0078        
  Force const [mDyne/A]         1.0280              1.2038              0.9061        
  Turning point v=0 [a0]        0.2859              0.2656              0.3110        
  RMS dev v=0 [a0 u^1/2]        0.2254              0.2242              0.2208        
  Char temp [K]               1704.2174           1722.5175           1777.3021       
  ----------------------------------------------------------------------------------
      1   C                0.08 -0.01  0.00   -0.10  0.04  0.00   -0.00  0.00 -0.00   
      2   C                0.01 -0.11  0.00    0.02 -0.11 -0.00    0.00  0.00 -0.00   
      3   C               -0.05 -0.01  0.00    0.09  0.07 -0.00   -0.00 -0.00  0.00   
      4   H               -0.34  0.12 -0.02    0.37 -0.15 -0.00   -0.38  0.15  0.00   
      5   H               -0.34  0.12  0.02    0.37 -0.15  0.00    0.38 -0.15  0.00   
      6   H               -0.08  0.56  0.00   -0.06  0.40  0.00   -0.06  0.40  0.00   
      7   H               -0.08  0.56 -0.00   -0.06  0.40 -0.00    0.06 -0.40  0.00   
      8   H                0.17  0.12  0.02   -0.31 -0.25  0.00    0.32  0.25 -0.00   
      9   H                0.17  0.12 -0.02   -0.31 -0.25 -0.00   -0.32 -0.25 -0.00   

  Vibration                       16                  17                  18          
  Freq [cm^-1]                1262.1681           1287.1758           1287.1799       
  Irrep                           Ap                 App                 App          
  Reduced mass [u]              3.0758              1.4613              1.4613        
  Force const [mDyne/A]         2.8869              1.4264              1.4265        
  Turning point v=0 [a0]        0.1761              0.2530              0.2530        
  RMS dev v=0 [a0 u^1/2]        0.2184              0.2163              0.2163        
  Char temp [K]               1815.9789           1851.9594           1851.9653       
  ----------------------------------------------------------------------------------
      1   C               -0.09 -0.23  0.00    0.00  0.00  0.16   -0.00 -0.00 -0.04   
      2   C                0.25  0.04 -0.00   -0.00  0.00 -0.04    0.00  0.00  0.16   
      3   C               -0.16  0.20  0.00   -0.00 -0.00 -0.12   -0.00  0.00 -0.12   
      4   H               -0.13 -0.34 -0.04   -0.05 -0.40 -0.09    0.38 -0.04  0.02   
      5   H               -0.13 -0.34  0.04    0.05  0.40 -0.09   -0.38  0.04  0.02   
      6   H                0.36  0.05  0.04    0.05  0.38  0.03   -0.40  0.04 -0.09   
      7   H                0.36  0.05 -0.04   -0.05 -0.38  0.03    0.40 -0.04 -0.09   
      8   H               -0.23  0.29 -0.04   -0.04 -0.39  0.07    0.39 -0.06  0.07   
      9   H               -0.23  0.29  0.04    0.04  0.39  0.07   -0.39  0.06  0.07   

  Vibration                       19                  20                  21          
  Freq [cm^-1]                1562.7537           1562.7751           1593.9091       
  Irrep                           Ap                  Ap                  Ap          
  Reduced mass [u]              1.0870              1.0870              1.2407        
  Force const [mDyne/A]         1.5641              1.5641              1.8571        
  Turning point v=0 [a0]        0.2662              0.2662              0.2467        
  RMS dev v=0 [a0 u^1/2]        0.1963              0.1963              0.1943        
  Char temp [K]               2248.4547           2248.4855           2293.2803       
  ----------------------------------------------------------------------------------
      1   C               -0.02 -0.06 -0.00   -0.02 -0.01  0.00    0.03  0.08  0.00   
      2   C               -0.01 -0.02  0.00   -0.07 -0.01  0.00   -0.08 -0.01  0.00   
      3   C                0.02 -0.05  0.00   -0.04  0.03 -0.00    0.05 -0.07 -0.00   
      4   H                0.16  0.42  0.32    0.07  0.12  0.10   -0.12 -0.29 -0.25   
      5   H                0.16  0.42 -0.32    0.07  0.12 -0.10   -0.12 -0.29  0.25   
      6   H                0.10  0.04  0.07    0.45  0.06  0.32    0.31  0.05  0.25   
      7   H                0.10  0.04 -0.07    0.45  0.06 -0.32    0.31  0.05 -0.25   
      8   H               -0.20  0.28 -0.24    0.21 -0.24  0.22   -0.20  0.25 -0.25   
      9   H               -0.20  0.28  0.24    0.21 -0.24 -0.22   -0.20  0.25  0.25   

  Vibration                       22                  23                  24          
  Freq [cm^-1]                3129.9242           3129.9459           3143.0919       
  Irrep                           Ap                  Ap                  Ap          
  Reduced mass [u]              1.0509              1.0509              1.0676        
  Force const [mDyne/A]         6.0656              6.0657              6.2140        
  Turning point v=0 [a0]        0.1913              0.1913              0.1894        
  RMS dev v=0 [a0 u^1/2]        0.1387              0.1387              0.1384        
  Char temp [K]               4503.2640           4503.2953           4522.2095       
  ----------------------------------------------------------------------------------
      1   C                0.02  0.04 -0.00    0.01  0.02 -0.00    0.02  0.04 -0.00   
      2   C                0.00  0.00 -0.00    0.05  0.01 -0.00   -0.04 -0.01  0.00   
      3   C               -0.03  0.03 -0.00    0.02 -0.02  0.00    0.03 -0.03  0.00   
      4   H               -0.10 -0.25  0.44   -0.05 -0.12  0.22   -0.08 -0.19  0.35   
      5   H               -0.10 -0.25 -0.44   -0.05 -0.12 -0.22   -0.08 -0.19 -0.35   
      6   H               -0.02 -0.00  0.03   -0.30 -0.04  0.49    0.21  0.03 -0.35   
      7   H               -0.02 -0.00 -0.03   -0.30 -0.04 -0.49    0.21  0.03  0.35   
      8   H                0.15 -0.20 -0.41   -0.11  0.13  0.28   -0.13  0.16  0.35   
      9   H                0.15 -0.20  0.41   -0.11  0.13 -0.28   -0.13  0.16 -0.35   

  Vibration                       25                  26                  27          
  Freq [cm^-1]                3216.7362           3216.7454           3240.7201       
  Irrep                          App                 App                 App          
  Reduced mass [u]              1.1156              1.1156              1.1148        
  Force const [mDyne/A]         6.8011              6.8012              6.8980        
  Turning point v=0 [a0]        0.1832              0.1832              0.1826        
  RMS dev v=0 [a0 u^1/2]        0.1368              0.1368              0.1363        
  Char temp [K]               4628.1672           4628.1804           4662.6747       
  ----------------------------------------------------------------------------------
      1   C                0.00  0.00  0.02   -0.00 -0.00 -0.08   -0.00 -0.00 -0.06   
      2   C               -0.00 -0.00 -0.08    0.00  0.00  0.02   -0.00  0.00 -0.06   
      3   C                0.00 -0.00  0.06    0.00 -0.00  0.06    0.00 -0.00 -0.06   
      4   H                0.03  0.08 -0.13   -0.11 -0.28  0.47   -0.08 -0.21  0.34   
      5   H               -0.03 -0.08 -0.13    0.11  0.28  0.47    0.08  0.21  0.34   
      6   H               -0.30 -0.05  0.47    0.08  0.01 -0.12   -0.22 -0.03  0.34   
      7   H                0.30  0.05  0.47   -0.08 -0.01 -0.12    0.22  0.03  0.34   
      8   H                0.13 -0.17 -0.34    0.14 -0.17 -0.34   -0.14  0.18  0.34   
      9   H               -0.13  0.17 -0.34   -0.14  0.17 -0.34    0.14 -0.18  0.34   

  ==> Thermochemistry Components <==

  Entropy, S
    Electronic S            0.000 [cal/(mol K)]        0.000 [J/(mol K)]       0.00000000 [mEh/K] (multiplicity = 1)
    Translational S        37.135 [cal/(mol K)]      155.375 [J/(mol K)]       0.05917914 [mEh/K] (mol. weight = 42.0470 [u], P = 101325.00 [Pa])
    Rotational S           21.699 [cal/(mol K)]       90.789 [J/(mol K)]       0.03457982 [mEh/K] (symmetry no. = 1)
    Vibrational S           1.016 [cal/(mol K)]        4.251 [J/(mol K)]       0.00161925 [mEh/K]
  Total S                  59.851 [cal/(mol K)]      250.415 [J/(mol K)]       0.09537821 [mEh/K]
  Correction S              0.000 [cal/(mol K)]        0.000 [J/(mol K)]       0.00000000 [mEh/K]

  Constant volume heat capacity, Cv
    Electronic Cv           0.000 [cal/(mol K)]        0.000 [J/(mol K)]       0.00000000 [mEh/K]
    Translational Cv        2.981 [cal/(mol K)]       12.472 [J/(mol K)]       0.00475022 [mEh/K]
    Rotational Cv           2.981 [cal/(mol K)]       12.472 [J/(mol K)]       0.00475022 [mEh/K]
    Vibrational Cv          4.048 [cal/(mol K)]       16.935 [J/(mol K)]       0.00645034 [mEh/K]
  Total Cv                 10.009 [cal/(mol K)]       41.879 [J/(mol K)]       0.01595077 [mEh/K]
  Correction Cv             0.000 [cal/(mol K)]        0.000 [J/(mol K)]       0.00000000 [mEh/K]

  Constant pressure heat capacity, Cp
    Electronic Cp           0.000 [cal/(mol K)]        0.000 [J/(mol K)]       0.00000000 [mEh/K]
    Translational Cp        4.968 [cal/(mol K)]       20.786 [J/(mol K)]       0.00791703 [mEh/K]
    Rotational Cp           2.981 [cal/(mol K)]       12.472 [J/(mol K)]       0.00475022 [mEh/K]
    Vibrational Cp          4.048 [cal/(mol K)]       16.935 [J/(mol K)]       0.00645034 [mEh/K]
  Total Cp                 11.996 [cal/(mol K)]       50.193 [J/(mol K)]       0.01911758 [mEh/K]
  Correction Cp             0.000 [cal/(mol K)]        0.000 [J/(mol K)]       0.00000000 [mEh/K]

  ==> Thermochemistry Energy Analysis <==

  Raw electronic energy, E0
  Total E0, Electronic energy at well bottom at 0 [K]                 -117.28221497 [Eh]

  Zero-point energy, ZPE_vib = Sum_i nu_i / 2
    Electronic ZPE          0.000 [kcal/mol]        0.000 [kJ/mol]       0.00000000 [Eh]
    Translational ZPE       0.000 [kcal/mol]        0.000 [kJ/mol]       0.00000000 [Eh]
    Rotational ZPE          0.000 [kcal/mol]        0.000 [kJ/mol]       0.00000000 [Eh]
    Vibrational ZPE        52.736 [kcal/mol]      220.646 [kJ/mol]       0.08403944 [Eh]       18444.526 [cm^-1]
  Correction ZPE           52.736 [kcal/mol]      220.646 [kJ/mol]       0.08403944 [Eh]       18444.526 [cm^-1]
  Total ZPE, Electronic energy at 0 [K]                               -117.19817552 [Eh]

  Thermal Energy, E (includes ZPE)
    Electronic E            0.000 [kcal/mol]        0.000 [kJ/mol]       0.00000000 [Eh]
    Translational E         0.889 [kcal/mol]        3.718 [kJ/mol]       0.00141628 [Eh]
    Rotational E            0.889 [kcal/mol]        3.718 [kJ/mol]       0.00141628 [Eh]
    Vibrational E          52.985 [kcal/mol]      221.690 [kJ/mol]       0.08443718 [Eh]
  Correction E             54.763 [kcal/mol]      229.127 [kJ/mol]       0.08726974 [Eh]
  Total E, Electronic energy at  298.15 [K]                           -117.19494523 [Eh]

  Enthalpy, H_trans = E_trans + k_B * T
    Electronic H            0.000 [kcal/mol]        0.000 [kJ/mol]       0.00000000 [Eh]
    Translational H         1.481 [kcal/mol]        6.197 [kJ/mol]       0.00236046 [Eh]
    Rotational H            0.889 [kcal/mol]        3.718 [kJ/mol]       0.00141628 [Eh]
    Vibrational H          52.985 [kcal/mol]      221.690 [kJ/mol]       0.08443718 [Eh]
  Correction H             55.355 [kcal/mol]      231.606 [kJ/mol]       0.08821392 [Eh]
  Total H, Enthalpy at  298.15 [K]                                    -117.19400104 [Eh]

  Gibbs free energy, G = H - T * S
    Electronic G            0.000 [kcal/mol]        0.000 [kJ/mol]       0.00000000 [Eh]
    Translational G        -9.591 [kcal/mol]      -40.128 [kJ/mol]      -0.01528380 [Eh]
    Rotational G           -5.581 [kcal/mol]      -23.350 [kJ/mol]      -0.00889370 [Eh]
    Vibrational G          52.682 [kcal/mol]      220.422 [kJ/mol]       0.08395440 [Eh]
  Correction G             37.511 [kcal/mol]      156.944 [kJ/mol]       0.05977691 [Eh]
  Total G, Free enthalpy at  298.15 [K]                               -117.22243806 [Eh]

    Psi4 stopped on: Tuesday, 19 April 2022 02:20AM
    Psi4 wall time for execution: 0:00:39.52

*** Psi4 exiting successfully. Buy a developer a beer!
