
    -----------------------------------------------------------------------
          Psi4: An Open-Source Ab Initio Electronic Structure Package
                               Psi4 1.3.2 release

                         Git: Rev {HEAD} ecbda83 


    R. M. Parrish, L. A. Burns, D. G. A. Smith, A. C. Simmonett,
    A. E. DePrince III, E. G. Hohenstein, U. Bozkaya, A. Yu. Sokolov,
    R. Di Remigio, R. M. Richard, J. F. Gonthier, A. M. James,
    H. R. McAlexander, A. Kumar, M. Saitow, X. Wang, B. P. Pritchard,
    P. Verma, H. F. Schaefer III, K. Patkowski, R. A. King, E. F. Valeev,
    F. A. Evangelista, J. M. Turney, T. D. Crawford, and C. D. Sherrill,
    J. Chem. Theory Comput. 13(7) pp 3185--3197 (2017).
    (doi: 10.1021/acs.jctc.7b00174)


                         Additional Contributions by
    P. Kraus, H. Kruse, M. H. Lechner, M. C. Schieber, R. A. Shaw,
    A. Alenaizan, R. Galvelis, Z. L. Glick, S. Lehtola, and J. P. Misiewicz

    -----------------------------------------------------------------------


    Psi4 started on: Tuesday, 19 April 2022 12:38AM

    Process ID: 25649
    Host:       atlantis
    PSIDATADIR: /home/akrom/software/anaconda3/envs/ffpenv/share/psi4
    Memory:     500.0 MiB
    Threads:    1
    
  ==> Input File <==

--------------------------------------------------------------------------
set basis  6-311++g**
molecule {
0 1
   C       -0.61446        0.00000        0.00000
   C        0.61446        0.00000        0.00000
   H       -1.68923        0.00000        0.00000
   H        1.68923        0.00000        0.00000
}
energy('scf')
frequencies('scf')
--------------------------------------------------------------------------

*** tstart() called on atlantis
*** at Tue Apr 19 00:38:54 2022

   => Loading Basis Set <=

    Name: 6-311++G**
    Role: ORBITAL
    Keyword: BASIS
    atoms 1-2 entry C          line   119 file /home/akrom/software/anaconda3/envs/ffpenv/share/psi4/basis/6-311ppgss.gbs 
    atoms 3-4 entry H          line    42 file /home/akrom/software/anaconda3/envs/ffpenv/share/psi4/basis/6-311ppgss.gbs 


         ---------------------------------------------------------
                                   SCF
               by Justin Turney, Rob Parrish, Andy Simmonett
                          and Daniel G. A. Smith
                              RHF Reference
                        1 Threads,    500 MiB Core
         ---------------------------------------------------------

  ==> Geometry <==

    Molecular point group: d2h
    Full point group: D_inf_h

    Geometry (in Angstrom), charge = 0, multiplicity = 1:

       Center              X                  Y                   Z               Mass       
    ------------   -----------------  -----------------  -----------------  -----------------
         C           -0.614460000000    -0.000000000000     0.000000000000    12.000000000000
         C            0.614460000000     0.000000000000     0.000000000000    12.000000000000
         H           -1.689230000000    -0.000000000000     0.000000000000     1.007825032230
         H            1.689230000000     0.000000000000     0.000000000000     1.007825032230

  Running in d2h symmetry.

  Rotational constants: A = ************  B =      1.13802  C =      1.13802 [cm^-1]
  Rotational constants: A = ************  B =  34116.98697  C =  34116.98697 [MHz]
  Nuclear repulsion =   24.323218171379235

  Charge       = 0
  Multiplicity = 1
  Electrons    = 14
  Nalpha       = 7
  Nbeta        = 7

  ==> Algorithm <==

  SCF Algorithm Type is DF.
  DIIS enabled.
  MOM disabled.
  Fractional occupation disabled.
  Guess Type is SAD.
  Energy threshold   = 1.00e-06
  Density threshold  = 1.00e-06
  Integral threshold = 0.00e+00

  ==> Primary Basis <==

  Basis Set: 6-311++G**
    Blend: 6-311++G**
    Number of shells: 30
    Number of basis function: 58
    Number of Cartesian functions: 60
    Spherical Harmonics?: true
    Max angular momentum: 2

   => Loading Basis Set <=

    Name: (6-311++G** AUX)
    Role: JKFIT
    Keyword: DF_BASIS_SCF
    atoms 1-2 entry C          line   162 file /home/akrom/software/anaconda3/envs/ffpenv/share/psi4/basis/aug-cc-pvtz-jkfit.gbs 
    atoms 3-4 entry H          line    70 file /home/akrom/software/anaconda3/envs/ffpenv/share/psi4/basis/aug-cc-pvtz-jkfit.gbs 

  ==> Pre-Iterations <==

   -------------------------------------------------------
    Irrep   Nso     Nmo     Nalpha   Nbeta   Ndocc  Nsocc
   -------------------------------------------------------
     Ag        16      16       0       0       0       0
     B1g        6       6       0       0       0       0
     B2g        6       6       0       0       0       0
     B3g        1       1       0       0       0       0
     Au         1       1       0       0       0       0
     B1u        6       6       0       0       0       0
     B2u        6       6       0       0       0       0
     B3u       16      16       0       0       0       0
   -------------------------------------------------------
    Total      58      58       7       7       7       0
   -------------------------------------------------------

  ==> Integral Setup <==

  DFHelper Memory: AOs need 0.009 GiB; user supplied 0.366 GiB. Using in-core AOs.

  ==> MemDFJK: Density-Fitted J/K Matrices <==

    J tasked:                   Yes
    K tasked:                   Yes
    wK tasked:                   No
    OpenMP threads:               1
    Memory [MiB]:               375
    Algorithm:                 Core
    Schwarz Cutoff:           1E-12
    Mask sparsity (%):       0.0000
    Fitting Condition:        1E-10

   => Auxiliary Basis Set <=

  Basis Set: (6-311++G** AUX)
    Blend: AUG-CC-PVTZ-JKFIT
    Number of shells: 88
    Number of basis function: 300
    Number of Cartesian functions: 372
    Spherical Harmonics?: true
    Max angular momentum: 4

  Minimum eigenvalue in the overlap matrix is 1.6293470232E-05.
  Using Symmetric Orthogonalization.

  SCF Guess: Superposition of Atomic Densities via on-the-fly atomic UHF.

  ==> Iterations <==

                           Total Energy        Delta E     RMS |[F,P]|

   @DF-RHF iter SAD:   -75.84272093393847   -7.58427e+01   0.00000e+00 
   @DF-RHF iter   1:   -76.79386811477259   -9.51147e-01   1.10801e-02 DIIS
   @DF-RHF iter   2:   -76.83299096464675   -3.91228e-02   3.79812e-03 DIIS
   @DF-RHF iter   3:   -76.83776973876219   -4.77877e-03   4.40956e-04 DIIS
   @DF-RHF iter   4:   -76.83790504851815   -1.35310e-04   5.05218e-05 DIIS
   @DF-RHF iter   5:   -76.83790693058248   -1.88206e-06   9.74186e-06 DIIS
   @DF-RHF iter   6:   -76.83790701097544   -8.03930e-08   1.40130e-06 DIIS
   @DF-RHF iter   7:   -76.83790701275991   -1.78447e-09   2.54321e-07 DIIS
  Energy and wave function converged.


  ==> Post-Iterations <==

    Orbital Energies [Eh]
    ---------------------

    Doubly Occupied:                                                      

       1Ag   -11.254423     1B3u  -11.251179     2Ag    -1.025187  
       2B3u   -0.767826     3Ag    -0.678497     1B2u   -0.405957  
       1B1u   -0.405957  

    Virtual:                                                              

       4Ag     0.042175     3B3u    0.047037     1B2g    0.111235  
       1B1g    0.111235     2B2u    0.127578     2B1u    0.127578  
       5Ag     0.150120     4B3u    0.166752     6Ag     0.188272  
       5B3u    0.216898     2B2g    0.241732     2B1g    0.241732  
       6B3u    0.347550     7Ag     0.379772     7B3u    0.568197  
       8Ag     0.615192     3B1u    0.707918     3B2u    0.707918  
       3B1g    0.816277     3B2g    0.816277     9Ag     0.865669  
       8B3u    0.872633    10Ag     1.009323     9B3u    1.205499  
      10B3u    1.280156     4B1u    1.281095     4B2u    1.281095  
      11Ag     1.414292     1B3g    1.414292     4B1g    1.683001  
       4B2g    1.683001     1Au     1.836743    11B3u    1.836743  
      12Ag     2.014793     5B1u    2.102725     5B2u    2.102725  
      12B3u    2.448486     5B1g    2.780913     5B2g    2.780913  
      13Ag     2.858463    13B3u    2.927009     6B2u    3.121857  
       6B1u    3.121857    14Ag     3.313226     6B1g    3.345747  
       6B2g    3.345747    14B3u    3.693870    15Ag     3.716179  
      15B3u    4.141221    16Ag    24.694683    16B3u   26.203164  

    Final Occupation by Irrep:
             Ag   B1g   B2g   B3g    Au   B1u   B2u   B3u 
    DOCC [     3,    0,    0,    0,    0,    1,    1,    2 ]

  @DF-RHF Final Energy:   -76.83790701275991

   => Energetics <=

    Nuclear Repulsion Energy =             24.3232181713792350
    One-Electron Energy =                -150.7441994577923197
    Two-Electron Energy =                  49.5830742736531676
    Total Energy =                        -76.8379070127599135

Computation Completed


Properties will be evaluated at   0.000000,   0.000000,   0.000000 [a0]

Properties computed using the SCF density matrix

  Nuclear Dipole Moment: [e a0]
     X:     0.0000      Y:     0.0000      Z:     0.0000

  Electronic Dipole Moment: [e a0]
     X:     0.0000      Y:     0.0000      Z:     0.0000

  Dipole Moment: [e a0]
     X:     0.0000      Y:     0.0000      Z:     0.0000     Total:     0.0000

  Dipole Moment: [D]
     X:     0.0000      Y:     0.0000      Z:     0.0000     Total:     0.0000


*** tstop() called on atlantis at Tue Apr 19 00:38:54 2022
Module time:
	user time   =       0.40 seconds =       0.01 minutes
	system time =       0.01 seconds =       0.00 minutes
	total time  =          0 seconds =       0.00 minutes
Total time:
	user time   =       0.40 seconds =       0.01 minutes
	system time =       0.01 seconds =       0.00 minutes
	total time  =          0 seconds =       0.00 minutes
gradient() will perform analytic gradient computation.

*** tstart() called on atlantis
*** at Tue Apr 19 00:38:54 2022

   => Loading Basis Set <=

    Name: 6-311++G**
    Role: ORBITAL
    Keyword: BASIS
    atoms 1-2 entry C          line   119 file /home/akrom/software/anaconda3/envs/ffpenv/share/psi4/basis/6-311ppgss.gbs 
    atoms 3-4 entry H          line    42 file /home/akrom/software/anaconda3/envs/ffpenv/share/psi4/basis/6-311ppgss.gbs 


         ---------------------------------------------------------
                                   SCF
               by Justin Turney, Rob Parrish, Andy Simmonett
                          and Daniel G. A. Smith
                              RHF Reference
                        1 Threads,    500 MiB Core
         ---------------------------------------------------------

  ==> Geometry <==

    Molecular point group: d2h
    Full point group: D_inf_h

    Geometry (in Angstrom), charge = 0, multiplicity = 1:

       Center              X                  Y                   Z               Mass       
    ------------   -----------------  -----------------  -----------------  -----------------
         C           -0.614460000000    -0.000000000000     0.000000000000    12.000000000000
         C            0.614460000000     0.000000000000     0.000000000000    12.000000000000
         H           -1.689230000000    -0.000000000000     0.000000000000     1.007825032230
         H            1.689230000000     0.000000000000     0.000000000000     1.007825032230

  Running in d2h symmetry.

  Rotational constants: A = ************  B =      1.13802  C =      1.13802 [cm^-1]
  Rotational constants: A = ************  B =  34116.98697  C =  34116.98697 [MHz]
  Nuclear repulsion =   24.323218171379235

  Charge       = 0
  Multiplicity = 1
  Electrons    = 14
  Nalpha       = 7
  Nbeta        = 7

  ==> Algorithm <==

  SCF Algorithm Type is DF.
  DIIS enabled.
  MOM disabled.
  Fractional occupation disabled.
  Guess Type is SAD.
  Energy threshold   = 1.00e-08
  Density threshold  = 1.00e-08
  Integral threshold = 0.00e+00

  ==> Primary Basis <==

  Basis Set: 6-311++G**
    Blend: 6-311++G**
    Number of shells: 30
    Number of basis function: 58
    Number of Cartesian functions: 60
    Spherical Harmonics?: true
    Max angular momentum: 2

   => Loading Basis Set <=

    Name: (6-311++G** AUX)
    Role: JKFIT
    Keyword: DF_BASIS_SCF
    atoms 1-2 entry C          line   162 file /home/akrom/software/anaconda3/envs/ffpenv/share/psi4/basis/aug-cc-pvtz-jkfit.gbs 
    atoms 3-4 entry H          line    70 file /home/akrom/software/anaconda3/envs/ffpenv/share/psi4/basis/aug-cc-pvtz-jkfit.gbs 

  ==> Pre-Iterations <==

   -------------------------------------------------------
    Irrep   Nso     Nmo     Nalpha   Nbeta   Ndocc  Nsocc
   -------------------------------------------------------
     Ag        16      16       0       0       0       0
     B1g        6       6       0       0       0       0
     B2g        6       6       0       0       0       0
     B3g        1       1       0       0       0       0
     Au         1       1       0       0       0       0
     B1u        6       6       0       0       0       0
     B2u        6       6       0       0       0       0
     B3u       16      16       0       0       0       0
   -------------------------------------------------------
    Total      58      58       7       7       7       0
   -------------------------------------------------------

  ==> Integral Setup <==

  DFHelper Memory: AOs need 0.009 GiB; user supplied 0.366 GiB. Using in-core AOs.

  ==> MemDFJK: Density-Fitted J/K Matrices <==

    J tasked:                   Yes
    K tasked:                   Yes
    wK tasked:                   No
    OpenMP threads:               1
    Memory [MiB]:               375
    Algorithm:                 Core
    Schwarz Cutoff:           1E-12
    Mask sparsity (%):       0.0000
    Fitting Condition:        1E-10

   => Auxiliary Basis Set <=

  Basis Set: (6-311++G** AUX)
    Blend: AUG-CC-PVTZ-JKFIT
    Number of shells: 88
    Number of basis function: 300
    Number of Cartesian functions: 372
    Spherical Harmonics?: true
    Max angular momentum: 4

  Minimum eigenvalue in the overlap matrix is 1.6293470232E-05.
  Using Symmetric Orthogonalization.

  SCF Guess: Superposition of Atomic Densities via on-the-fly atomic UHF.

  ==> Iterations <==

                           Total Energy        Delta E     RMS |[F,P]|

   @DF-RHF iter SAD:   -75.84272093393847   -7.58427e+01   0.00000e+00 
   @DF-RHF iter   1:   -76.79386811477259   -9.51147e-01   1.10801e-02 DIIS
   @DF-RHF iter   2:   -76.83299096464675   -3.91228e-02   3.79812e-03 DIIS
   @DF-RHF iter   3:   -76.83776973876219   -4.77877e-03   4.40956e-04 DIIS
   @DF-RHF iter   4:   -76.83790504851815   -1.35310e-04   5.05218e-05 DIIS
   @DF-RHF iter   5:   -76.83790693058248   -1.88206e-06   9.74186e-06 DIIS
   @DF-RHF iter   6:   -76.83790701097544   -8.03930e-08   1.40130e-06 DIIS
   @DF-RHF iter   7:   -76.83790701275991   -1.78447e-09   2.54321e-07 DIIS
   @DF-RHF iter   8:   -76.83790701281679   -5.68718e-11   1.24960e-08 DIIS
   @DF-RHF iter   9:   -76.83790701281687   -8.52651e-14   1.60665e-09 DIIS
  Energy and wave function converged.


  ==> Post-Iterations <==

    Orbital Energies [Eh]
    ---------------------

    Doubly Occupied:                                                      

       1Ag   -11.254423     1B3u  -11.251179     2Ag    -1.025187  
       2B3u   -0.767826     3Ag    -0.678497     1B2u   -0.405957  
       1B1u   -0.405957  

    Virtual:                                                              

       4Ag     0.042175     3B3u    0.047037     1B2g    0.111235  
       1B1g    0.111235     2B2u    0.127578     2B1u    0.127578  
       5Ag     0.150120     4B3u    0.166752     6Ag     0.188272  
       5B3u    0.216898     2B2g    0.241732     2B1g    0.241732  
       6B3u    0.347550     7Ag     0.379772     7B3u    0.568197  
       8Ag     0.615192     3B1u    0.707919     3B2u    0.707919  
       3B1g    0.816277     3B2g    0.816277     9Ag     0.865669  
       8B3u    0.872633    10Ag     1.009323     9B3u    1.205499  
      10B3u    1.280156     4B1u    1.281095     4B2u    1.281095  
      11Ag     1.414292     1B3g    1.414292     4B1g    1.683001  
       4B2g    1.683001     1Au     1.836743    11B3u    1.836743  
      12Ag     2.014793     5B1u    2.102725     5B2u    2.102725  
      12B3u    2.448486     5B1g    2.780913     5B2g    2.780913  
      13Ag     2.858463    13B3u    2.927009     6B2u    3.121857  
       6B1u    3.121857    14Ag     3.313226     6B1g    3.345747  
       6B2g    3.345747    14B3u    3.693871    15Ag     3.716179  
      15B3u    4.141221    16Ag    24.694683    16B3u   26.203164  

    Final Occupation by Irrep:
             Ag   B1g   B2g   B3g    Au   B1u   B2u   B3u 
    DOCC [     3,    0,    0,    0,    0,    1,    1,    2 ]

  @DF-RHF Final Energy:   -76.83790701281687

   => Energetics <=

    Nuclear Repulsion Energy =             24.3232181713792350
    One-Electron Energy =                -150.7441975620579342
    Two-Electron Energy =                  49.5830723778618250
    Total Energy =                        -76.8379070128168706

Computation Completed


Properties will be evaluated at   0.000000,   0.000000,   0.000000 [a0]

Properties computed using the SCF density matrix

  Nuclear Dipole Moment: [e a0]
     X:     0.0000      Y:     0.0000      Z:     0.0000

  Electronic Dipole Moment: [e a0]
     X:     0.0000      Y:     0.0000      Z:     0.0000

  Dipole Moment: [e a0]
     X:     0.0000      Y:     0.0000      Z:     0.0000     Total:     0.0000

  Dipole Moment: [D]
     X:     0.0000      Y:     0.0000      Z:     0.0000     Total:     0.0000


*** tstop() called on atlantis at Tue Apr 19 00:38:55 2022
Module time:
	user time   =       0.39 seconds =       0.01 minutes
	system time =       0.01 seconds =       0.00 minutes
	total time  =          1 seconds =       0.02 minutes
Total time:
	user time   =       0.80 seconds =       0.01 minutes
	system time =       0.02 seconds =       0.00 minutes
	total time  =          1 seconds =       0.02 minutes

*** tstart() called on atlantis
*** at Tue Apr 19 00:38:55 2022


         ------------------------------------------------------------
                                   SCF GRAD                          
                          Rob Parrish, Justin Turney,                
                       Andy Simmonett, and Alex Sokolov              
         ------------------------------------------------------------

  ==> Geometry <==

    Molecular point group: d2h
    Full point group: D_inf_h

    Geometry (in Angstrom), charge = 0, multiplicity = 1:

       Center              X                  Y                   Z               Mass       
    ------------   -----------------  -----------------  -----------------  -----------------
         C           -0.614460000000    -0.000000000000     0.000000000000    12.000000000000
         C            0.614460000000     0.000000000000     0.000000000000    12.000000000000
         H           -1.689230000000    -0.000000000000     0.000000000000     1.007825032230
         H            1.689230000000     0.000000000000     0.000000000000     1.007825032230

  Nuclear repulsion =   24.323218171379235

  ==> Basis Set <==

  Basis Set: 6-311++G**
    Blend: 6-311++G**
    Number of shells: 30
    Number of basis function: 58
    Number of Cartesian functions: 60
    Spherical Harmonics?: true
    Max angular momentum: 2

  ==> DFJKGrad: Density-Fitted SCF Gradients <==

    Gradient:                    1
    J tasked:                  Yes
    K tasked:                  Yes
    wK tasked:                  No
    OpenMP threads:              1
    Integrals threads:           1
    Memory [MiB]:              375
    Schwarz Cutoff:          0E+00
    Fitting Condition:       1E-10

   => Auxiliary Basis Set <=

  Basis Set: (6-311++G** AUX)
    Blend: AUG-CC-PVTZ-JKFIT
    Number of shells: 88
    Number of basis function: 300
    Number of Cartesian functions: 372
    Spherical Harmonics?: true
    Max angular momentum: 4


  -Total Gradient:
     Atom            X                  Y                   Z
    ------   -----------------  -----------------  -----------------
       1       -0.081818152463    -0.000000000000     0.000000000000
       2        0.081818152463     0.000000000000     0.000000000000
       3       -0.014529406993    -0.000000000000     0.000000000000
       4        0.014529406993     0.000000000000     0.000000000000


*** tstop() called on atlantis at Tue Apr 19 00:38:55 2022
Module time:
	user time   =       0.27 seconds =       0.00 minutes
	system time =       0.00 seconds =       0.00 minutes
	total time  =          0 seconds =       0.00 minutes
Total time:
	user time   =       1.07 seconds =       0.02 minutes
	system time =       0.02 seconds =       0.00 minutes
	total time  =          1 seconds =       0.02 minutes

  Based on options and gradient (rms=3.39E-02), recommend projecting translations and not projecting rotations.
hessian() will perform analytic frequency computation.

*** tstart() called on atlantis
*** at Tue Apr 19 00:38:55 2022

   => Loading Basis Set <=

    Name: 6-311++G**
    Role: ORBITAL
    Keyword: BASIS
    atoms 1-2 entry C          line   119 file /home/akrom/software/anaconda3/envs/ffpenv/share/psi4/basis/6-311ppgss.gbs 
    atoms 3-4 entry H          line    42 file /home/akrom/software/anaconda3/envs/ffpenv/share/psi4/basis/6-311ppgss.gbs 


         ---------------------------------------------------------
                                   SCF
               by Justin Turney, Rob Parrish, Andy Simmonett
                          and Daniel G. A. Smith
                              RHF Reference
                        1 Threads,    500 MiB Core
         ---------------------------------------------------------

  ==> Geometry <==

    Molecular point group: d2h
    Full point group: D_inf_h

    Geometry (in Angstrom), charge = 0, multiplicity = 1:

       Center              X                  Y                   Z               Mass       
    ------------   -----------------  -----------------  -----------------  -----------------
         C           -0.614460000000    -0.000000000000     0.000000000000    12.000000000000
         C            0.614460000000     0.000000000000     0.000000000000    12.000000000000
         H           -1.689230000000    -0.000000000000     0.000000000000     1.007825032230
         H            1.689230000000     0.000000000000     0.000000000000     1.007825032230

  Running in d2h symmetry.

  Rotational constants: A = ************  B =      1.13802  C =      1.13802 [cm^-1]
  Rotational constants: A = ************  B =  34116.98697  C =  34116.98697 [MHz]
  Nuclear repulsion =   24.323218171379235

  Charge       = 0
  Multiplicity = 1
  Electrons    = 14
  Nalpha       = 7
  Nbeta        = 7

  ==> Algorithm <==

  SCF Algorithm Type is DF.
  DIIS enabled.
  MOM disabled.
  Fractional occupation disabled.
  Guess Type is SAD.
  Energy threshold   = 1.00e-08
  Density threshold  = 1.00e-08
  Integral threshold = 0.00e+00

  ==> Primary Basis <==

  Basis Set: 6-311++G**
    Blend: 6-311++G**
    Number of shells: 30
    Number of basis function: 58
    Number of Cartesian functions: 60
    Spherical Harmonics?: true
    Max angular momentum: 2

   => Loading Basis Set <=

    Name: (6-311++G** AUX)
    Role: JKFIT
    Keyword: DF_BASIS_SCF
    atoms 1-2 entry C          line   162 file /home/akrom/software/anaconda3/envs/ffpenv/share/psi4/basis/aug-cc-pvtz-jkfit.gbs 
    atoms 3-4 entry H          line    70 file /home/akrom/software/anaconda3/envs/ffpenv/share/psi4/basis/aug-cc-pvtz-jkfit.gbs 

  ==> Pre-Iterations <==

   -------------------------------------------------------
    Irrep   Nso     Nmo     Nalpha   Nbeta   Ndocc  Nsocc
   -------------------------------------------------------
     Ag        16      16       0       0       0       0
     B1g        6       6       0       0       0       0
     B2g        6       6       0       0       0       0
     B3g        1       1       0       0       0       0
     Au         1       1       0       0       0       0
     B1u        6       6       0       0       0       0
     B2u        6       6       0       0       0       0
     B3u       16      16       0       0       0       0
   -------------------------------------------------------
    Total      58      58       7       7       7       0
   -------------------------------------------------------

  ==> Integral Setup <==

  DFHelper Memory: AOs need 0.009 GiB; user supplied 0.366 GiB. Using in-core AOs.

  ==> MemDFJK: Density-Fitted J/K Matrices <==

    J tasked:                   Yes
    K tasked:                   Yes
    wK tasked:                   No
    OpenMP threads:               1
    Memory [MiB]:               375
    Algorithm:                 Core
    Schwarz Cutoff:           1E-12
    Mask sparsity (%):       0.0000
    Fitting Condition:        1E-10

   => Auxiliary Basis Set <=

  Basis Set: (6-311++G** AUX)
    Blend: AUG-CC-PVTZ-JKFIT
    Number of shells: 88
    Number of basis function: 300
    Number of Cartesian functions: 372
    Spherical Harmonics?: true
    Max angular momentum: 4

  Minimum eigenvalue in the overlap matrix is 1.6293470232E-05.
  Using Symmetric Orthogonalization.

  SCF Guess: Superposition of Atomic Densities via on-the-fly atomic UHF.

  ==> Iterations <==

                           Total Energy        Delta E     RMS |[F,P]|

   @DF-RHF iter SAD:   -75.84272093393847   -7.58427e+01   0.00000e+00 
   @DF-RHF iter   1:   -76.79386811477259   -9.51147e-01   1.10801e-02 DIIS
   @DF-RHF iter   2:   -76.83299096464675   -3.91228e-02   3.79812e-03 DIIS
   @DF-RHF iter   3:   -76.83776973876219   -4.77877e-03   4.40956e-04 DIIS
   @DF-RHF iter   4:   -76.83790504851815   -1.35310e-04   5.05218e-05 DIIS
   @DF-RHF iter   5:   -76.83790693058248   -1.88206e-06   9.74186e-06 DIIS
   @DF-RHF iter   6:   -76.83790701097544   -8.03930e-08   1.40130e-06 DIIS
   @DF-RHF iter   7:   -76.83790701275991   -1.78447e-09   2.54321e-07 DIIS
   @DF-RHF iter   8:   -76.83790701281679   -5.68718e-11   1.24960e-08 DIIS
   @DF-RHF iter   9:   -76.83790701281687   -8.52651e-14   1.60665e-09 DIIS
  Energy and wave function converged.


  ==> Post-Iterations <==

    Orbital Energies [Eh]
    ---------------------

    Doubly Occupied:                                                      

       1Ag   -11.254423     1B3u  -11.251179     2Ag    -1.025187  
       2B3u   -0.767826     3Ag    -0.678497     1B2u   -0.405957  
       1B1u   -0.405957  

    Virtual:                                                              

       4Ag     0.042175     3B3u    0.047037     1B2g    0.111235  
       1B1g    0.111235     2B2u    0.127578     2B1u    0.127578  
       5Ag     0.150120     4B3u    0.166752     6Ag     0.188272  
       5B3u    0.216898     2B2g    0.241732     2B1g    0.241732  
       6B3u    0.347550     7Ag     0.379772     7B3u    0.568197  
       8Ag     0.615192     3B1u    0.707919     3B2u    0.707919  
       3B1g    0.816277     3B2g    0.816277     9Ag     0.865669  
       8B3u    0.872633    10Ag     1.009323     9B3u    1.205499  
      10B3u    1.280156     4B1u    1.281095     4B2u    1.281095  
      11Ag     1.414292     1B3g    1.414292     4B1g    1.683001  
       4B2g    1.683001     1Au     1.836743    11B3u    1.836743  
      12Ag     2.014793     5B1u    2.102725     5B2u    2.102725  
      12B3u    2.448486     5B1g    2.780913     5B2g    2.780913  
      13Ag     2.858463    13B3u    2.927009     6B2u    3.121857  
       6B1u    3.121857    14Ag     3.313226     6B1g    3.345747  
       6B2g    3.345747    14B3u    3.693871    15Ag     3.716179  
      15B3u    4.141221    16Ag    24.694683    16B3u   26.203164  

    Final Occupation by Irrep:
             Ag   B1g   B2g   B3g    Au   B1u   B2u   B3u 
    DOCC [     3,    0,    0,    0,    0,    1,    1,    2 ]

  @DF-RHF Final Energy:   -76.83790701281687

   => Energetics <=

    Nuclear Repulsion Energy =             24.3232181713792350
    One-Electron Energy =                -150.7441975620579342
    Two-Electron Energy =                  49.5830723778618250
    Total Energy =                        -76.8379070128168706

Computation Completed


Properties will be evaluated at   0.000000,   0.000000,   0.000000 [a0]

Properties computed using the SCF density matrix

  Nuclear Dipole Moment: [e a0]
     X:     0.0000      Y:     0.0000      Z:     0.0000

  Electronic Dipole Moment: [e a0]
     X:     0.0000      Y:     0.0000      Z:     0.0000

  Dipole Moment: [e a0]
     X:     0.0000      Y:     0.0000      Z:     0.0000     Total:     0.0000

  Dipole Moment: [D]
     X:     0.0000      Y:     0.0000      Z:     0.0000     Total:     0.0000


*** tstop() called on atlantis at Tue Apr 19 00:38:55 2022
Module time:
	user time   =       0.39 seconds =       0.01 minutes
	system time =       0.00 seconds =       0.00 minutes
	total time  =          0 seconds =       0.00 minutes
Total time:
	user time   =       1.46 seconds =       0.02 minutes
	system time =       0.02 seconds =       0.00 minutes
	total time  =          1 seconds =       0.02 minutes

*** tstart() called on atlantis
*** at Tue Apr 19 00:38:55 2022


         ------------------------------------------------------------
                                   SCF HESS                          
                          Rob Parrish, Justin Turney,                
                       Andy Simmonett, and Alex Sokolov              
         ------------------------------------------------------------

  ==> Geometry <==

    Molecular point group: d2h
    Full point group: D_inf_h

    Geometry (in Angstrom), charge = 0, multiplicity = 1:

       Center              X                  Y                   Z               Mass       
    ------------   -----------------  -----------------  -----------------  -----------------
         C           -0.614460000000    -0.000000000000     0.000000000000    12.000000000000
         C            0.614460000000     0.000000000000     0.000000000000    12.000000000000
         H           -1.689230000000    -0.000000000000     0.000000000000     1.007825032230
         H            1.689230000000     0.000000000000     0.000000000000     1.007825032230

  Nuclear repulsion =   24.323218171379235

  ==> Basis Set <==

  Basis Set: 6-311++G**
    Blend: 6-311++G**
    Number of shells: 30
    Number of basis function: 58
    Number of Cartesian functions: 60
    Spherical Harmonics?: true
    Max angular momentum: 2

  ==> DFJKGrad: Density-Fitted SCF Gradients <==

    Gradient:                    2
    J tasked:                  Yes
    K tasked:                  Yes
    wK tasked:                  No
    OpenMP threads:              1
    Integrals threads:           1
    Memory [MiB]:              375
    Schwarz Cutoff:          0E+00
    Fitting Condition:       1E-10

   => Auxiliary Basis Set <=

  Basis Set: (6-311++G** AUX)
    Blend: AUG-CC-PVTZ-JKFIT
    Number of shells: 88
    Number of basis function: 300
    Number of Cartesian functions: 372
    Spherical Harmonics?: true
    Max angular momentum: 4

  DFHelper Memory: AOs need 0.009 GiB; user supplied 0.439 GiB. Using in-core AOs.

  ==> MemDFJK: Density-Fitted J/K Matrices <==

    J tasked:                   Yes
    K tasked:                   Yes
    wK tasked:                   No
    OpenMP threads:               1
    Memory [MiB]:               450
    Algorithm:                 Core
    Schwarz Cutoff:           1E-12
    Mask sparsity (%):       0.0000
    Fitting Condition:        1E-10

   => Auxiliary Basis Set <=

  Basis Set: (6-311++G** AUX)
    Blend: AUG-CC-PVTZ-JKFIT
    Number of shells: 88
    Number of basis function: 300
    Number of Cartesian functions: 372
    Spherical Harmonics?: true
    Max angular momentum: 4


         ------------------------------------------------------------
                                     CPHF                           
                                  Rob Parrish                       
         ------------------------------------------------------------

  ==> Geometry <==

    Molecular point group: d2h
    Full point group: D_inf_h

    Geometry (in Angstrom), charge = 0, multiplicity = 1:

       Center              X                  Y                   Z               Mass       
    ------------   -----------------  -----------------  -----------------  -----------------
         C           -0.614460000000    -0.000000000000     0.000000000000    12.000000000000
         C            0.614460000000     0.000000000000     0.000000000000    12.000000000000
         H           -1.689230000000    -0.000000000000     0.000000000000     1.007825032230
         H            1.689230000000     0.000000000000     0.000000000000     1.007825032230

  Nuclear repulsion =   24.323218171379235
  Reference energy  =  -76.837907012816871

  ==> Basis Set <==

  Basis Set: 6-311++G**
    Blend: 6-311++G**
    Number of shells: 30
    Number of basis function: 58
    Number of Cartesian functions: 60
    Spherical Harmonics?: true
    Max angular momentum: 2

  ==> CGRSolver (by Rob Parrish) <==

   Number of roots    =        12
   Preconditioning    =    JACOBI
   Convergence cutoff =     1E-06
   Maximum iterations =       100

  ==> CPHFRHamiltonian (by Rob Parrish) <== 

  ==> MemDFJK: Density-Fitted J/K Matrices <==

    J tasked:                   Yes
    K tasked:                   Yes
    wK tasked:                   No
    OpenMP threads:               1
    Memory [MiB]:               450
    Algorithm:                 Core
    Schwarz Cutoff:           1E-12
    Mask sparsity (%):       0.0000
    Fitting Condition:        1E-10

   => Auxiliary Basis Set <=

  Basis Set: (6-311++G** AUX)
    Blend: AUG-CC-PVTZ-JKFIT
    Number of shells: 88
    Number of basis function: 300
    Number of Cartesian functions: 372
    Spherical Harmonics?: true
    Max angular momentum: 4

  ==> CPHF Iterations <==

  => Iterations <=

             Iter  Converged  Remaining    Residual
  CGR           1          0         12   8.383E-02
  CGR           2          0         12   2.610E-02
  CGR           3          0         12   4.434E-03
  CGR           4          0         12   7.726E-04
  CGR           5          0         12   1.166E-04
  CGR           6          0         12   2.037E-05
  CGR           7          4          8   2.112E-06
  CGR           8         12          0   3.119E-07

    CGRSolver converged.


*** tstop() called on atlantis at Tue Apr 19 00:44:09 2022
Module time:
	user time   =     313.79 seconds =       5.23 minutes
	system time =       0.09 seconds =       0.00 minutes
	total time  =        314 seconds =       5.23 minutes
Total time:
	user time   =     315.25 seconds =       5.25 minutes
	system time =       0.11 seconds =       0.00 minutes
	total time  =        315 seconds =       5.25 minutes


  ==> Harmonic Vibrational Analysis <==

  non-mass-weighted Hessian:       Symmetric? True   Hermitian? True   Lin Dep Dim?  0 (0)
  projection of translations (True) and rotations (False) removed 3 degrees of freedom (5)
  total projector:                 Symmetric? True   Hermitian? True   Lin Dep Dim?  3 (3)
  mass-weighted Hessian:           Symmetric? True   Hermitian? True   Lin Dep Dim?  0 (0)
  pre-proj  low-frequency mode:    0.0000i [cm^-1]
  pre-proj  low-frequency mode:    0.0222  [cm^-1]
  pre-proj  low-frequency mode:    0.1043  [cm^-1]
  pre-proj  low-frequency mode:  375.1651  [cm^-1]
  pre-proj  low-frequency mode:  375.1651  [cm^-1]
  pre-proj  all modes:['0.0421i' '0.0222' '0.1043' '375.1651' '375.1651' '863.9847' '863.9847'
 '946.7725' '946.7725' '1956.0785' '3385.5280' '3474.7011']
  projected mass-weighted Hessian: Symmetric? True   Hermitian? True   Lin Dep Dim?  3 (3)
  post-proj low-frequency mode:    0.0001i [cm^-1] (TR)
  post-proj low-frequency mode:    0.0000i [cm^-1] (TR)
  post-proj low-frequency mode:    0.0000  [cm^-1] (TR)
  post-proj low-frequency mode:  375.1651  [cm^-1] (V)
  post-proj low-frequency mode:  375.1651  [cm^-1] (V)
  post-proj  all modes:['0.0001i' '0.0000i' '0.0000' '375.1651' '375.1651' '863.9847' '863.9847'
 '946.7725' '946.7725' '1956.0785' '3385.5280' '3474.7011']

  Note that "Vibration"s include 2 un-projected rotation-like modes.
  Vibration                       4                   5                   6           
  Freq [cm^-1]                 375.1651            375.1651            863.9847       
  Irrep                                                                               
  Reduced mass [u]              2.1648              2.1648              1.6297        
  Force const [mDyne/A]         0.1795              0.1795              0.7167        
  Turning point v=0 [a0]        0.3850              0.3850              0.2924        
  RMS dev v=0 [a0 u^1/2]        0.4006              0.4006              0.2640        
  IR activ [km/mol]             0.0000              0.0000              0.0000        
  Char temp [K]                539.7790            539.7790           1243.0816       
  ----------------------------------------------------------------------------------
      1   C                0.00  0.23 -0.00   -0.00  0.00  0.23   -0.00 -0.17  0.00   
      2   C                0.00 -0.23  0.00    0.00 -0.00 -0.23   -0.00  0.17 -0.00   
      3   H               -0.00  0.67 -0.00   -0.00  0.00  0.67   -0.00  0.69 -0.00   
      4   H               -0.00 -0.67  0.00   -0.00 -0.00 -0.67    0.00 -0.69  0.00   

  Vibration                       7                   8                   9           
  Freq [cm^-1]                 863.9847            946.7725            946.7725       
  Irrep                                              B2u                 B1u          
  Reduced mass [u]              1.6297              1.0848              1.0848        
  Force const [mDyne/A]         0.7167              0.5729              0.5729        
  Turning point v=0 [a0]        0.2924              0.3424              0.3424        
  RMS dev v=0 [a0 u^1/2]        0.2640              0.2522              0.2522        
  IR activ [km/mol]             0.0000             132.9279            132.9279       
  Char temp [K]               1243.0816           1362.1949           1362.1949       
  ----------------------------------------------------------------------------------
      1   C               -0.00 -0.00 -0.17    0.00 -0.06 -0.00    0.00  0.00 -0.06   
      2   C                0.00  0.00  0.17   -0.00 -0.06 -0.00   -0.00  0.00 -0.06   
      3   H               -0.00  0.00  0.69   -0.00  0.70  0.00    0.00 -0.00  0.70   
      4   H               -0.00 -0.00 -0.69   -0.00  0.70  0.00    0.00 -0.00  0.70   

  Vibration                       10                  11                  12          
  Freq [cm^-1]                1956.0785           3385.5280           3474.7011       
  Irrep                           Ag                 B3u                  Ag          
  Reduced mass [u]              4.0269              1.0848              1.2088        
  Force const [mDyne/A]         9.0780              7.3259              8.5991        
  Turning point v=0 [a0]        0.1236              0.1811              0.1693        
  RMS dev v=0 [a0 u^1/2]        0.1754              0.1333              0.1316        
  IR activ [km/mol]             0.0000             119.8709             0.0000        
  Char temp [K]               2814.3615           4871.0211           4999.3213       
  ----------------------------------------------------------------------------------
      1   C                0.37 -0.00  0.00   -0.06  0.00 -0.00   -0.10 -0.00 -0.00   
      2   C               -0.37  0.00 -0.00   -0.06 -0.00  0.00    0.10  0.00 -0.00   
      3   H                0.60 -0.00  0.00    0.70  0.00 -0.00    0.70  0.00  0.00   
      4   H               -0.60 -0.00 -0.00    0.70  0.00 -0.00   -0.70 -0.00  0.00   

  ==> Thermochemistry Components <==

  Entropy, S
    Electronic S            0.000 [cal/(mol K)]        0.000 [J/(mol K)]       0.00000000 [mEh/K] (multiplicity = 1)
    Translational S        35.704 [cal/(mol K)]      149.387 [J/(mol K)]       0.05689862 [mEh/K] (mol. weight = 26.0157 [u], P = 101325.00 [Pa])
    Rotational S           10.952 [cal/(mol K)]       45.824 [J/(mol K)]       0.01745345 [mEh/K] (symmetry no. = 2)
    Vibrational S           2.673 [cal/(mol K)]       11.183 [J/(mol K)]       0.00425930 [mEh/K]
  Total S                  49.329 [cal/(mol K)]      206.394 [J/(mol K)]       0.07861137 [mEh/K]
  Correction S              0.000 [cal/(mol K)]        0.000 [J/(mol K)]       0.00000000 [mEh/K]

  Constant volume heat capacity, Cv
    Electronic Cv           0.000 [cal/(mol K)]        0.000 [J/(mol K)]       0.00000000 [mEh/K]
    Translational Cv        2.981 [cal/(mol K)]       12.472 [J/(mol K)]       0.00475022 [mEh/K]
    Rotational Cv           1.987 [cal/(mol K)]        8.314 [J/(mol K)]       0.00316681 [mEh/K]
    Vibrational Cv          5.041 [cal/(mol K)]       21.090 [J/(mol K)]       0.00803293 [mEh/K]
  Total Cv                 10.009 [cal/(mol K)]       41.877 [J/(mol K)]       0.01594995 [mEh/K]
  Correction Cv             0.000 [cal/(mol K)]        0.000 [J/(mol K)]       0.00000000 [mEh/K]

  Constant pressure heat capacity, Cp
    Electronic Cp           0.000 [cal/(mol K)]        0.000 [J/(mol K)]       0.00000000 [mEh/K]
    Translational Cp        4.968 [cal/(mol K)]       20.786 [J/(mol K)]       0.00791703 [mEh/K]
    Rotational Cp           1.987 [cal/(mol K)]        8.314 [J/(mol K)]       0.00316681 [mEh/K]
    Vibrational Cp          5.041 [cal/(mol K)]       21.090 [J/(mol K)]       0.00803293 [mEh/K]
  Total Cp                 11.996 [cal/(mol K)]       50.191 [J/(mol K)]       0.01911676 [mEh/K]
  Correction Cp             0.000 [cal/(mol K)]        0.000 [J/(mol K)]       0.00000000 [mEh/K]

  ==> Thermochemistry Energy Analysis <==

  Raw electronic energy, E0
  Total E0, Electronic energy at well bottom at 0 [K]                  -76.83790701 [Eh]

  Zero-point energy, ZPE_vib = Sum_i nu_i / 2
    Electronic ZPE          0.000 [kcal/mol]        0.000 [kJ/mol]       0.00000000 [Eh]
    Translational ZPE       0.000 [kcal/mol]        0.000 [kJ/mol]       0.00000000 [Eh]
    Rotational ZPE          0.000 [kcal/mol]        0.000 [kJ/mol]       0.00000000 [Eh]
    Vibrational ZPE        18.853 [kcal/mol]       78.883 [kJ/mol]       0.03004482 [Eh]        6594.076 [cm^-1]
  Correction ZPE           18.853 [kcal/mol]       78.883 [kJ/mol]       0.03004482 [Eh]        6594.076 [cm^-1]
  Total ZPE, Electronic energy at 0 [K]                                -76.80786219 [Eh]

  Thermal Energy, E (includes ZPE)
    Electronic E            0.000 [kcal/mol]        0.000 [kJ/mol]       0.00000000 [Eh]
    Translational E         0.889 [kcal/mol]        3.718 [kJ/mol]       0.00141628 [Eh]
    Rotational E            0.592 [kcal/mol]        2.479 [kJ/mol]       0.00094418 [Eh]
    Vibrational E          19.408 [kcal/mol]       81.202 [kJ/mol]       0.03092823 [Eh]
  Correction E             20.889 [kcal/mol]       87.399 [kJ/mol]       0.03328869 [Eh]
  Total E, Electronic energy at  298.15 [K]                            -76.80461833 [Eh]

  Enthalpy, H_trans = E_trans + k_B * T
    Electronic H            0.000 [kcal/mol]        0.000 [kJ/mol]       0.00000000 [Eh]
    Translational H         1.481 [kcal/mol]        6.197 [kJ/mol]       0.00236046 [Eh]
    Rotational H            0.592 [kcal/mol]        2.479 [kJ/mol]       0.00094418 [Eh]
    Vibrational H          19.408 [kcal/mol]       81.202 [kJ/mol]       0.03092823 [Eh]
  Correction H             21.481 [kcal/mol]       89.878 [kJ/mol]       0.03423287 [Eh]
  Total H, Enthalpy at  298.15 [K]                                     -76.80367414 [Eh]

  Gibbs free energy, G = H - T * S
    Electronic G            0.000 [kcal/mol]        0.000 [kJ/mol]       0.00000000 [Eh]
    Translational G        -9.164 [kcal/mol]      -38.342 [kJ/mol]      -0.01460386 [Eh]
    Rotational G           -2.673 [kcal/mol]      -11.183 [kJ/mol]      -0.00425956 [Eh]
    Vibrational G          18.611 [kcal/mol]       77.868 [kJ/mol]       0.02965832 [Eh]
  Correction G              6.774 [kcal/mol]       28.342 [kJ/mol]       0.01079489 [Eh]
  Total G, Free enthalpy at  298.15 [K]                                -76.82711212 [Eh]

    Psi4 stopped on: Tuesday, 19 April 2022 12:44AM
    Psi4 wall time for execution: 0:05:15.51

*** Psi4 exiting successfully. Buy a developer a beer!
