
    -----------------------------------------------------------------------
          Psi4: An Open-Source Ab Initio Electronic Structure Package
                               Psi4 1.3.2 release

                         Git: Rev {HEAD} ecbda83 


    R. M. Parrish, L. A. Burns, D. G. A. Smith, A. C. Simmonett,
    A. E. DePrince III, E. G. Hohenstein, U. Bozkaya, A. Yu. Sokolov,
    R. Di Remigio, R. M. Richard, J. F. Gonthier, A. M. James,
    H. R. McAlexander, A. Kumar, M. Saitow, X. Wang, B. P. Pritchard,
    P. Verma, H. F. Schaefer III, K. Patkowski, R. A. King, E. F. Valeev,
    F. A. Evangelista, J. M. Turney, T. D. Crawford, and C. D. Sherrill,
    J. Chem. Theory Comput. 13(7) pp 3185--3197 (2017).
    (doi: 10.1021/acs.jctc.7b00174)


                         Additional Contributions by
    P. Kraus, H. Kruse, M. H. Lechner, M. C. Schieber, R. A. Shaw,
    A. Alenaizan, R. Galvelis, Z. L. Glick, S. Lehtola, and J. P. Misiewicz

    -----------------------------------------------------------------------


    Psi4 started on: Tuesday, 19 April 2022 02:25PM

    Process ID: 2205
    Host:       atlantis
    PSIDATADIR: /home/akrom/software/anaconda3/envs/ffpenv/share/psi4
    Memory:     500.0 MiB
    Threads:    1
    
  ==> Input File <==

--------------------------------------------------------------------------
set basis  6-31+G*
molecule {
0 1
   C        0.32153        0.81326        0.00000
   C       -0.86505       -0.12817        0.00000
   C        0.54353       -0.68508        0.00000
   H        0.53795        1.36069       -0.92039
   H        0.53795        1.36069        0.92039
   H       -1.44742       -0.21449        0.92034
   H       -1.44742       -0.21449       -0.92034
   H        0.90937       -1.14629       -0.92037
   H        0.90937       -1.14629        0.92037
}
energy('B3LYP')
frequencies('B3LYP')
--------------------------------------------------------------------------

*** tstart() called on atlantis
*** at Tue Apr 19 14:25:39 2022

   => Loading Basis Set <=

    Name: 6-31+G*
    Role: ORBITAL
    Keyword: BASIS
    atoms 1-3 entry C          line   119 file /home/akrom/software/anaconda3/envs/ffpenv/share/psi4/basis/6-31pgs.gbs 
    atoms 4-9 entry H          line    46 file /home/akrom/software/anaconda3/envs/ffpenv/share/psi4/basis/6-31pgs.gbs 


         ---------------------------------------------------------
                                   SCF
               by Justin Turney, Rob Parrish, Andy Simmonett
                          and Daniel G. A. Smith
                              RKS Reference
                        1 Threads,    500 MiB Core
         ---------------------------------------------------------

  ==> Geometry <==

    Molecular point group: cs
    Full point group: Cs

    Geometry (in Angstrom), charge = 0, multiplicity = 1:

       Center              X                  Y                   Z               Mass       
    ------------   -----------------  -----------------  -----------------  -----------------
         C            0.321531939855     0.813261460475     0.000000000000    12.000000000000
         C           -0.865048060145    -0.128168539525     0.000000000000    12.000000000000
         C            0.543531939855    -0.685078539525     0.000000000000    12.000000000000
         H            0.537951939855     1.360691460475    -0.920390000000     1.007825032230
         H            0.537951939855     1.360691460475     0.920390000000     1.007825032230
         H           -1.447418060145    -0.214488539525     0.920340000000     1.007825032230
         H           -1.447418060145    -0.214488539525    -0.920340000000     1.007825032230
         H            0.909371939855    -1.146288539525    -0.920370000000     1.007825032230
         H            0.909371939855    -1.146288539525     0.920370000000     1.007825032230

  Running in cs symmetry.

  Rotational constants: A =      0.66472  B =      0.66470  C =      0.41647 [cm^-1]
  Rotational constants: A =  19927.70596  B =  19927.20236  C =  12485.44714 [MHz]
  Nuclear repulsion =   75.281464809014025

  Charge       = 0
  Multiplicity = 1
  Electrons    = 24
  Nalpha       = 12
  Nbeta        = 12

  ==> Algorithm <==

  SCF Algorithm Type is DF.
  DIIS enabled.
  MOM disabled.
  Fractional occupation disabled.
  Guess Type is SAD.
  Energy threshold   = 1.00e-06
  Density threshold  = 1.00e-06
  Integral threshold = 0.00e+00

  ==> Primary Basis <==

  Basis Set: 6-31+G*
    Blend: 6-31+G*
    Number of shells: 36
    Number of basis function: 69
    Number of Cartesian functions: 69
    Spherical Harmonics?: false
    Max angular momentum: 2

  ==> DFT Potential <==

   => Composite Functional: B3LYP <= 

    B3LYP Hyb-GGA Exchange-Correlation Functional

    P. J. Stephens, F. J. Devlin, C. F. Chabalowski, and M. J. Frisch, J. Phys. Chem. 98, 11623 (1994)

    Deriv               =              1
    GGA                 =           TRUE
    Meta                =          FALSE

    Exchange Hybrid     =           TRUE
    MP2 Hybrid          =          FALSE

   => Exchange Functionals <=

    0.0800   Slater exchange
    0.7200         Becke 88

   => Exact (HF) Exchange <=

    0.2000               HF 

   => Correlation Functionals <=

    0.1900   Vosko, Wilk & Nusair (VWN5_RPA)
    0.8100   Lee, Yang & Parr

   => Molecular Quadrature <=

    Radial Scheme          =       TREUTLER
    Pruning Scheme         =           FLAT
    Nuclear Scheme         =       TREUTLER

    BS radius alpha        =              1
    Pruning alpha          =              1
    Radial Points          =             75
    Spherical Points       =            302
    Total Points           =         203850
    Total Blocks           =           1576
    Max Points             =            256
    Max Functions          =             69

   => Loading Basis Set <=

    Name: (6-31+G* AUX)
    Role: JKFIT
    Keyword: DF_BASIS_SCF
    atoms 1-3 entry C          line   194 file /home/akrom/software/anaconda3/envs/ffpenv/share/psi4/basis/heavy-aug-cc-pvdz-jkfit.gbs 
    atoms 4-9 entry H          line   116 file /home/akrom/software/anaconda3/envs/ffpenv/share/psi4/basis/heavy-aug-cc-pvdz-jkfit.gbs 

  ==> Pre-Iterations <==

   -------------------------------------------------------
    Irrep   Nso     Nmo     Nalpha   Nbeta   Ndocc  Nsocc
   -------------------------------------------------------
     A'        48      48       0       0       0       0
     A"        21      21       0       0       0       0
   -------------------------------------------------------
    Total      69      69      12      12      12       0
   -------------------------------------------------------

  ==> Integral Setup <==

  DFHelper Memory: AOs need 0.019 GiB; user supplied 0.019 GiB. Using in-core AOs.

  ==> MemDFJK: Density-Fitted J/K Matrices <==

    J tasked:                   Yes
    K tasked:                   Yes
    wK tasked:                   No
    OpenMP threads:               1
    Memory [MiB]:                19
    Algorithm:                 Core
    Schwarz Cutoff:           1E-12
    Mask sparsity (%):       0.0000
    Fitting Condition:        1E-10

   => Auxiliary Basis Set <=

  Basis Set: (6-31+G* AUX)
    Blend: HEAVY-AUG-CC-PVDZ-JKFIT
    Number of shells: 138
    Number of basis function: 453
    Number of Cartesian functions: 453
    Spherical Harmonics?: false
    Max angular momentum: 3

  Cached 100.0% of DFT collocation blocks in 0.379 [GiB].

  Minimum eigenvalue in the overlap matrix is 1.9505761385E-04.
  Using Symmetric Orthogonalization.

  SCF Guess: Superposition of Atomic Densities via on-the-fly atomic UHF.

  ==> Iterations <==

                           Total Energy        Delta E     RMS |[F,P]|

   @DF-RKS iter SAD:  -117.40410937710355   -1.17404e+02   0.00000e+00 
   @DF-RKS iter   1:  -117.47159997349704   -6.74906e-02   1.69595e-02 DIIS
   @DF-RKS iter   2:  -116.95351216891515    5.18088e-01   2.44904e-02 DIIS
   @DF-RKS iter   3:  -117.89902420962102   -9.45512e-01   8.98040e-04 DIIS
   @DF-RKS iter   4:  -117.90029764380358   -1.27343e-03   1.54844e-04 DIIS
   @DF-RKS iter   5:  -117.90032932533269   -3.16815e-05   2.43973e-05 DIIS
   @DF-RKS iter   6:  -117.90033022866264   -9.03330e-07   7.14952e-07 DIIS
  Energy and wave function converged.


  ==> Post-Iterations <==

    Orbital Energies [Eh]
    ---------------------

    Doubly Occupied:                                                      

       1Ap   -10.191078     2Ap   -10.190718     3Ap   -10.190715  
       4Ap    -0.847129     5Ap    -0.596730     6Ap    -0.596725  
       1App   -0.493445     7Ap    -0.464423     2App   -0.366015  
       3App   -0.366002     8Ap    -0.294482     9Ap    -0.294476  

    Virtual:                                                              

      10Ap     0.025789    11Ap     0.027592    12Ap     0.027594  
       4App    0.035733    13Ap     0.079092     5App    0.085562  
       6App    0.085565    14Ap     0.089559    15Ap     0.089561  
      16Ap     0.103436    17Ap     0.152657    18Ap     0.152662  
       7App    0.181806    19Ap     0.197629    20Ap     0.236595  
      21Ap     0.272223    22Ap     0.272237     8App    0.293617  
       9App    0.293633    23Ap     0.337138    24Ap     0.337141  
      25Ap     0.583066    26Ap     0.647515    27Ap     0.647531  
      10App    0.648064    28Ap     0.721252    29Ap     0.721259  
      30Ap     0.764608    11App    0.788376    12App    0.788426  
      31Ap     0.851810    13App    0.927091    32Ap     1.011184  
      14App    1.020763    15App    1.020784    33Ap     1.081728  
      34Ap     1.081740    35Ap     1.299008    36Ap     1.299012  
      37Ap     1.553424    16App    1.812085    17App    1.812107  
      38Ap     1.881332    39Ap     1.881372    18App    1.910198  
      19App    2.001660    40Ap     2.153544    41Ap     2.282014  
      42Ap     2.282029    20App    2.501444    21App    2.501483  
      43Ap     2.532350    44Ap     2.532353    45Ap     2.792080  
      46Ap     4.104220    47Ap     4.392302    48Ap     4.392306  

    Final Occupation by Irrep:
             Ap   App 
    DOCC [     9,    3 ]

  @DF-RKS Final Energy:  -117.90033022866264

   => Energetics <=

    Nuclear Repulsion Energy =             75.2814648090140253
    One-Electron Energy =                -305.8255009598914853
    Two-Electron Energy =                 127.5991198744173261
    DFT Exchange-Correlation Energy =     -14.9554139522025178
    Empirical Dispersion Energy =           0.0000000000000000
    VV10 Nonlocal Energy =                  0.0000000000000000
    Total Energy =                       -117.9003302286626393

Computation Completed


Properties will be evaluated at   0.000000,   0.000000,   0.000000 [a0]

Properties computed using the SCF density matrix

  Nuclear Dipole Moment: [e a0]
     X:    -0.0002      Y:    -0.0002      Z:     0.0000

  Electronic Dipole Moment: [e a0]
     X:     0.0002      Y:     0.0001      Z:     0.0000

  Dipole Moment: [e a0]
     X:    -0.0000      Y:    -0.0000      Z:     0.0000     Total:     0.0000

  Dipole Moment: [D]
     X:    -0.0001      Y:    -0.0001      Z:     0.0000     Total:     0.0001


*** tstop() called on atlantis at Tue Apr 19 14:25:43 2022
Module time:
	user time   =       3.39 seconds =       0.06 minutes
	system time =       0.10 seconds =       0.00 minutes
	total time  =          4 seconds =       0.07 minutes
Total time:
	user time   =       3.39 seconds =       0.06 minutes
	system time =       0.10 seconds =       0.00 minutes
	total time  =          4 seconds =       0.07 minutes
gradient() will perform analytic gradient computation.

*** tstart() called on atlantis
*** at Tue Apr 19 14:25:43 2022

   => Loading Basis Set <=

    Name: 6-31+G*
    Role: ORBITAL
    Keyword: BASIS
    atoms 1-3 entry C          line   119 file /home/akrom/software/anaconda3/envs/ffpenv/share/psi4/basis/6-31pgs.gbs 
    atoms 4-9 entry H          line    46 file /home/akrom/software/anaconda3/envs/ffpenv/share/psi4/basis/6-31pgs.gbs 


         ---------------------------------------------------------
                                   SCF
               by Justin Turney, Rob Parrish, Andy Simmonett
                          and Daniel G. A. Smith
                              RKS Reference
                        1 Threads,    500 MiB Core
         ---------------------------------------------------------

  ==> Geometry <==

    Molecular point group: cs
    Full point group: Cs

    Geometry (in Angstrom), charge = 0, multiplicity = 1:

       Center              X                  Y                   Z               Mass       
    ------------   -----------------  -----------------  -----------------  -----------------
         C            0.321531939855     0.813261460475     0.000000000000    12.000000000000
         C           -0.865048060145    -0.128168539525     0.000000000000    12.000000000000
         C            0.543531939855    -0.685078539525     0.000000000000    12.000000000000
         H            0.537951939855     1.360691460475    -0.920390000000     1.007825032230
         H            0.537951939855     1.360691460475     0.920390000000     1.007825032230
         H           -1.447418060145    -0.214488539525     0.920340000000     1.007825032230
         H           -1.447418060145    -0.214488539525    -0.920340000000     1.007825032230
         H            0.909371939855    -1.146288539525    -0.920370000000     1.007825032230
         H            0.909371939855    -1.146288539525     0.920370000000     1.007825032230

  Running in cs symmetry.

  Rotational constants: A =      0.66472  B =      0.66470  C =      0.41647 [cm^-1]
  Rotational constants: A =  19927.70596  B =  19927.20236  C =  12485.44714 [MHz]
  Nuclear repulsion =   75.281464809014025

  Charge       = 0
  Multiplicity = 1
  Electrons    = 24
  Nalpha       = 12
  Nbeta        = 12

  ==> Algorithm <==

  SCF Algorithm Type is DF.
  DIIS enabled.
  MOM disabled.
  Fractional occupation disabled.
  Guess Type is SAD.
  Energy threshold   = 1.00e-08
  Density threshold  = 1.00e-08
  Integral threshold = 0.00e+00

  ==> Primary Basis <==

  Basis Set: 6-31+G*
    Blend: 6-31+G*
    Number of shells: 36
    Number of basis function: 69
    Number of Cartesian functions: 69
    Spherical Harmonics?: false
    Max angular momentum: 2

  ==> DFT Potential <==

   => Composite Functional: B3LYP <= 

    B3LYP Hyb-GGA Exchange-Correlation Functional

    P. J. Stephens, F. J. Devlin, C. F. Chabalowski, and M. J. Frisch, J. Phys. Chem. 98, 11623 (1994)

    Deriv               =              1
    GGA                 =           TRUE
    Meta                =          FALSE

    Exchange Hybrid     =           TRUE
    MP2 Hybrid          =          FALSE

   => Exchange Functionals <=

    0.0800   Slater exchange
    0.7200         Becke 88

   => Exact (HF) Exchange <=

    0.2000               HF 

   => Correlation Functionals <=

    0.1900   Vosko, Wilk & Nusair (VWN5_RPA)
    0.8100   Lee, Yang & Parr

   => Molecular Quadrature <=

    Radial Scheme          =       TREUTLER
    Pruning Scheme         =           FLAT
    Nuclear Scheme         =       TREUTLER

    BS radius alpha        =              1
    Pruning alpha          =              1
    Radial Points          =             75
    Spherical Points       =            302
    Total Points           =         203850
    Total Blocks           =           1576
    Max Points             =            256
    Max Functions          =             69

   => Loading Basis Set <=

    Name: (6-31+G* AUX)
    Role: JKFIT
    Keyword: DF_BASIS_SCF
    atoms 1-3 entry C          line   194 file /home/akrom/software/anaconda3/envs/ffpenv/share/psi4/basis/heavy-aug-cc-pvdz-jkfit.gbs 
    atoms 4-9 entry H          line   116 file /home/akrom/software/anaconda3/envs/ffpenv/share/psi4/basis/heavy-aug-cc-pvdz-jkfit.gbs 

  ==> Pre-Iterations <==

   -------------------------------------------------------
    Irrep   Nso     Nmo     Nalpha   Nbeta   Ndocc  Nsocc
   -------------------------------------------------------
     A'        48      48       0       0       0       0
     A"        21      21       0       0       0       0
   -------------------------------------------------------
    Total      69      69      12      12      12       0
   -------------------------------------------------------

  ==> Integral Setup <==

  DFHelper Memory: AOs need 0.019 GiB; user supplied 0.019 GiB. Using in-core AOs.

  ==> MemDFJK: Density-Fitted J/K Matrices <==

    J tasked:                   Yes
    K tasked:                   Yes
    wK tasked:                   No
    OpenMP threads:               1
    Memory [MiB]:                19
    Algorithm:                 Core
    Schwarz Cutoff:           1E-12
    Mask sparsity (%):       0.0000
    Fitting Condition:        1E-10

   => Auxiliary Basis Set <=

  Basis Set: (6-31+G* AUX)
    Blend: HEAVY-AUG-CC-PVDZ-JKFIT
    Number of shells: 138
    Number of basis function: 453
    Number of Cartesian functions: 453
    Spherical Harmonics?: false
    Max angular momentum: 3

  Cached 100.0% of DFT collocation blocks in 0.379 [GiB].

  Minimum eigenvalue in the overlap matrix is 1.9505761385E-04.
  Using Symmetric Orthogonalization.

  SCF Guess: Superposition of Atomic Densities via on-the-fly atomic UHF.

  ==> Iterations <==

                           Total Energy        Delta E     RMS |[F,P]|

   @DF-RKS iter SAD:  -117.40410937729379   -1.17404e+02   0.00000e+00 
   @DF-RKS iter   1:  -117.47159997367373   -6.74906e-02   1.69595e-02 DIIS
   @DF-RKS iter   2:  -116.95351216878453    5.18088e-01   2.44904e-02 DIIS
   @DF-RKS iter   3:  -117.89902420978567   -9.45512e-01   8.98040e-04 DIIS
   @DF-RKS iter   4:  -117.90029764397035   -1.27343e-03   1.54844e-04 DIIS
   @DF-RKS iter   5:  -117.90032932549946   -3.16815e-05   2.43973e-05 DIIS
   @DF-RKS iter   6:  -117.90033022882969   -9.03330e-07   7.14952e-07 DIIS
   @DF-RKS iter   7:  -117.90033023131303   -2.48335e-09   7.26623e-08 DIIS
   @DF-RKS iter   8:  -117.90033023132183   -8.79652e-12   5.39254e-08 DIIS
   @DF-RKS iter   9:  -117.90033023132553   -3.69482e-12   5.35901e-09 DIIS
  Energy and wave function converged.


  ==> Post-Iterations <==

    Orbital Energies [Eh]
    ---------------------

    Doubly Occupied:                                                      

       1Ap   -10.191077     2Ap   -10.190717     3Ap   -10.190713  
       4Ap    -0.847129     5Ap    -0.596730     6Ap    -0.596725  
       1App   -0.493445     7Ap    -0.464422     2App   -0.366015  
       3App   -0.366002     8Ap    -0.294481     9Ap    -0.294475  

    Virtual:                                                              

      10Ap     0.025790    11Ap     0.027593    12Ap     0.027595  
       4App    0.035733    13Ap     0.079092     5App    0.085563  
       6App    0.085565    14Ap     0.089560    15Ap     0.089562  
      16Ap     0.103437    17Ap     0.152657    18Ap     0.152663  
       7App    0.181806    19Ap     0.197629    20Ap     0.236596  
      21Ap     0.272224    22Ap     0.272237     8App    0.293618  
       9App    0.293633    23Ap     0.337138    24Ap     0.337141  
      25Ap     0.583066    26Ap     0.647516    27Ap     0.647531  
      10App    0.648064    28Ap     0.721252    29Ap     0.721259  
      30Ap     0.764609    11App    0.788376    12App    0.788426  
      31Ap     0.851811    13App    0.927092    32Ap     1.011184  
      14App    1.020763    15App    1.020784    33Ap     1.081727  
      34Ap     1.081740    35Ap     1.299008    36Ap     1.299012  
      37Ap     1.553424    16App    1.812086    17App    1.812107  
      38Ap     1.881333    39Ap     1.881373    18App    1.910198  
      19App    2.001660    40Ap     2.153544    41Ap     2.282015  
      42Ap     2.282030    20App    2.501444    21App    2.501483  
      43Ap     2.532350    44Ap     2.532354    45Ap     2.792081  
      46Ap     4.104221    47Ap     4.392302    48Ap     4.392307  

    Final Occupation by Irrep:
             Ap   App 
    DOCC [     9,    3 ]

  @DF-RKS Final Energy:  -117.90033023132553

   => Energetics <=

    Nuclear Repulsion Energy =             75.2814648090140253
    One-Electron Energy =                -305.8256205494943742
    Two-Electron Energy =                 127.5992505529072503
    DFT Exchange-Correlation Energy =     -14.9554250437524452
    Empirical Dispersion Energy =           0.0000000000000000
    VV10 Nonlocal Energy =                  0.0000000000000000
    Total Energy =                       -117.9003302313255261

Computation Completed


Properties will be evaluated at   0.000000,   0.000000,   0.000000 [a0]

Properties computed using the SCF density matrix

  Nuclear Dipole Moment: [e a0]
     X:    -0.0002      Y:    -0.0002      Z:     0.0000

  Electronic Dipole Moment: [e a0]
     X:     0.0002      Y:     0.0001      Z:     0.0000

  Dipole Moment: [e a0]
     X:    -0.0000      Y:    -0.0000      Z:     0.0000     Total:     0.0000

  Dipole Moment: [D]
     X:    -0.0001      Y:    -0.0001      Z:     0.0000     Total:     0.0001


*** tstop() called on atlantis at Tue Apr 19 14:25:47 2022
Module time:
	user time   =       4.46 seconds =       0.07 minutes
	system time =       0.02 seconds =       0.00 minutes
	total time  =          4 seconds =       0.07 minutes
Total time:
	user time   =       7.85 seconds =       0.13 minutes
	system time =       0.12 seconds =       0.00 minutes
	total time  =          8 seconds =       0.13 minutes

*** tstart() called on atlantis
*** at Tue Apr 19 14:25:47 2022


         ------------------------------------------------------------
                                   SCF GRAD                          
                          Rob Parrish, Justin Turney,                
                       Andy Simmonett, and Alex Sokolov              
         ------------------------------------------------------------

  ==> Geometry <==

    Molecular point group: cs
    Full point group: Cs

    Geometry (in Angstrom), charge = 0, multiplicity = 1:

       Center              X                  Y                   Z               Mass       
    ------------   -----------------  -----------------  -----------------  -----------------
         C            0.321531939855     0.813261460475     0.000000000000    12.000000000000
         C           -0.865048060145    -0.128168539525     0.000000000000    12.000000000000
         C            0.543531939855    -0.685078539525     0.000000000000    12.000000000000
         H            0.537951939855     1.360691460475    -0.920390000000     1.007825032230
         H            0.537951939855     1.360691460475     0.920390000000     1.007825032230
         H           -1.447418060145    -0.214488539525     0.920340000000     1.007825032230
         H           -1.447418060145    -0.214488539525    -0.920340000000     1.007825032230
         H            0.909371939855    -1.146288539525    -0.920370000000     1.007825032230
         H            0.909371939855    -1.146288539525     0.920370000000     1.007825032230

  Nuclear repulsion =   75.281464809014025

  ==> Basis Set <==

  Basis Set: 6-31+G*
    Blend: 6-31+G*
    Number of shells: 36
    Number of basis function: 69
    Number of Cartesian functions: 69
    Spherical Harmonics?: false
    Max angular momentum: 2

  ==> DFJKGrad: Density-Fitted SCF Gradients <==

    Gradient:                    1
    J tasked:                  Yes
    K tasked:                  Yes
    wK tasked:                  No
    OpenMP threads:              1
    Integrals threads:           1
    Memory [MiB]:              375
    Schwarz Cutoff:          0E+00
    Fitting Condition:       1E-10

   => Auxiliary Basis Set <=

  Basis Set: (6-31+G* AUX)
    Blend: HEAVY-AUG-CC-PVDZ-JKFIT
    Number of shells: 138
    Number of basis function: 453
    Number of Cartesian functions: 453
    Spherical Harmonics?: false
    Max angular momentum: 3

  ==> DFT Potential <==

   => Composite Functional: B3LYP <= 

    B3LYP Hyb-GGA Exchange-Correlation Functional

    P. J. Stephens, F. J. Devlin, C. F. Chabalowski, and M. J. Frisch, J. Phys. Chem. 98, 11623 (1994)

    Deriv               =              1
    GGA                 =           TRUE
    Meta                =          FALSE

    Exchange Hybrid     =           TRUE
    MP2 Hybrid          =          FALSE

   => Exchange Functionals <=

    0.0800   Slater exchange
    0.7200         Becke 88

   => Exact (HF) Exchange <=

    0.2000               HF 

   => Correlation Functionals <=

    0.1900   Vosko, Wilk & Nusair (VWN5_RPA)
    0.8100   Lee, Yang & Parr

   => Molecular Quadrature <=

    Radial Scheme          =       TREUTLER
    Pruning Scheme         =           FLAT
    Nuclear Scheme         =       TREUTLER

    BS radius alpha        =              1
    Pruning alpha          =              1
    Radial Points          =             75
    Spherical Points       =            302
    Total Points           =         203850
    Total Blocks           =           1576
    Max Points             =            256
    Max Functions          =             69


  -Total Gradient:
     Atom            X                  Y                   Z
    ------   -----------------  -----------------  -----------------
       1        0.000148087828     0.000388552969     0.000000000000
       2       -0.000382480913    -0.000053265795     0.000000000000
       3        0.000255680167    -0.000311769739     0.000000000000
       4        0.000410994577     0.001043510189    -0.003799028671
       5        0.000410994577     0.001043510189     0.003799028671
       6       -0.001117771074    -0.000169084636     0.003789549135
       7       -0.001117771074    -0.000169084636    -0.003789549135
       8        0.000695468575    -0.000884301001    -0.003795437140
       9        0.000695468575    -0.000884301001     0.003795437140


*** tstop() called on atlantis at Tue Apr 19 14:25:48 2022
Module time:
	user time   =       1.10 seconds =       0.02 minutes
	system time =       0.01 seconds =       0.00 minutes
	total time  =          1 seconds =       0.02 minutes
Total time:
	user time   =       8.95 seconds =       0.15 minutes
	system time =       0.13 seconds =       0.00 minutes
	total time  =          9 seconds =       0.15 minutes

  Based on options and gradient (rms=1.87E-03), recommend projecting translations and projecting rotations.
hessian() will perform frequency computation by finite difference of analytic gradients.

         ----------------------------------------------------------
                                   FINDIF
                     R. A. King and Jonathon Misiewicz
         ---------------------------------------------------------

  Using finite-differences of gradients to determine vibrational frequencies and 
  normal modes.  Resulting frequencies are only valid at stationary points.
    Generating geometries for use with 3-point formula.
    Displacement size will be 5.00e-03.
    Number of atoms is 9.
    Number of irreps is 2.
    Number of SALCs is 21.
    Translations projected? 1. Rotations projected? 1.
    Index of SALCs per irrep:
     1 :  0  1  2  3  4  5  6  7  8  9  10  11 
     2 :  12  13  14  15  16  17  18  19  20 
    Number of SALCs per irrep:
     Irrep 1: 12
     Irrep 2: 9
    Number of geometries (including reference) is 34.
    Number of displacements per irrep:
      Irrep 1: 24
      Irrep 2: 9

  //>>>>>>>>>>>>>>>>>>>>>>>>>>>>>>>>>>>//
  //    Loading displacement 1 of 34   //
  //<<<<<<<<<<<<<<<<<<<<<<<<<<<<<<<<<<<//
gradient() will perform analytic gradient computation.

*** tstart() called on atlantis
*** at Tue Apr 19 14:25:48 2022

   => Loading Basis Set <=

    Name: 6-31+G*
    Role: ORBITAL
    Keyword: BASIS
    atoms 1-3 entry C          line   119 file /home/akrom/software/anaconda3/envs/ffpenv/share/psi4/basis/6-31pgs.gbs 
    atoms 4-9 entry H          line    46 file /home/akrom/software/anaconda3/envs/ffpenv/share/psi4/basis/6-31pgs.gbs 


         ---------------------------------------------------------
                                   SCF
               by Justin Turney, Rob Parrish, Andy Simmonett
                          and Daniel G. A. Smith
                              RKS Reference
                        1 Threads,    500 MiB Core
         ---------------------------------------------------------

  ==> Geometry <==

    Molecular point group: cs
    Full point group: Cs

    Geometry (in Angstrom), charge = 0, multiplicity = 1:

       Center              X                  Y                   Z               Mass       
    ------------   -----------------  -----------------  -----------------  -----------------
         C            0.321531939855     0.813261460475     0.000000000000    12.000000000000
         C           -0.865048060145    -0.128168539525     0.000000000000    12.000000000000
         C            0.543531939855    -0.685078539525     0.000000000000    12.000000000000
         H            0.537951939855     1.360691460475    -0.920390000000     1.007825032230
         H            0.537951939855     1.360691460475     0.920390000000     1.007825032230
         H           -1.447418060145    -0.214488539525     0.920340000000     1.007825032230
         H           -1.447418060145    -0.214488539525    -0.920340000000     1.007825032230
         H            0.909371939855    -1.146288539525    -0.920370000000     1.007825032230
         H            0.909371939855    -1.146288539525     0.920370000000     1.007825032230

  Running in cs symmetry.

  Rotational constants: A =      0.66472  B =      0.66470  C =      0.41647 [cm^-1]
  Rotational constants: A =  19927.70596  B =  19927.20236  C =  12485.44714 [MHz]
  Nuclear repulsion =   75.281464809014025

  Charge       = 0
  Multiplicity = 1
  Electrons    = 24
  Nalpha       = 12
  Nbeta        = 12

  ==> Algorithm <==

  SCF Algorithm Type is DF.
  DIIS enabled.
  MOM disabled.
  Fractional occupation disabled.
  Guess Type is SAD.
  Energy threshold   = 1.00e-08
  Density threshold  = 1.00e-08
  Integral threshold = 0.00e+00

  ==> Primary Basis <==

  Basis Set: 6-31+G*
    Blend: 6-31+G*
    Number of shells: 36
    Number of basis function: 69
    Number of Cartesian functions: 69
    Spherical Harmonics?: false
    Max angular momentum: 2

  ==> DFT Potential <==

   => Composite Functional: B3LYP <= 

    B3LYP Hyb-GGA Exchange-Correlation Functional

    P. J. Stephens, F. J. Devlin, C. F. Chabalowski, and M. J. Frisch, J. Phys. Chem. 98, 11623 (1994)

    Deriv               =              1
    GGA                 =           TRUE
    Meta                =          FALSE

    Exchange Hybrid     =           TRUE
    MP2 Hybrid          =          FALSE

   => Exchange Functionals <=

    0.0800   Slater exchange
    0.7200         Becke 88

   => Exact (HF) Exchange <=

    0.2000               HF 

   => Correlation Functionals <=

    0.1900   Vosko, Wilk & Nusair (VWN5_RPA)
    0.8100   Lee, Yang & Parr

   => Molecular Quadrature <=

    Radial Scheme          =       TREUTLER
    Pruning Scheme         =           FLAT
    Nuclear Scheme         =       TREUTLER

    BS radius alpha        =              1
    Pruning alpha          =              1
    Radial Points          =             75
    Spherical Points       =            302
    Total Points           =         203850
    Total Blocks           =           1576
    Max Points             =            256
    Max Functions          =             69

   => Loading Basis Set <=

    Name: (6-31+G* AUX)
    Role: JKFIT
    Keyword: DF_BASIS_SCF
    atoms 1-3 entry C          line   194 file /home/akrom/software/anaconda3/envs/ffpenv/share/psi4/basis/heavy-aug-cc-pvdz-jkfit.gbs 
    atoms 4-9 entry H          line   116 file /home/akrom/software/anaconda3/envs/ffpenv/share/psi4/basis/heavy-aug-cc-pvdz-jkfit.gbs 

  ==> Pre-Iterations <==

   -------------------------------------------------------
    Irrep   Nso     Nmo     Nalpha   Nbeta   Ndocc  Nsocc
   -------------------------------------------------------
     A'        48      48       0       0       0       0
     A"        21      21       0       0       0       0
   -------------------------------------------------------
    Total      69      69      12      12      12       0
   -------------------------------------------------------

  ==> Integral Setup <==

  DFHelper Memory: AOs need 0.019 GiB; user supplied 0.019 GiB. Using in-core AOs.

  ==> MemDFJK: Density-Fitted J/K Matrices <==

    J tasked:                   Yes
    K tasked:                   Yes
    wK tasked:                   No
    OpenMP threads:               1
    Memory [MiB]:                19
    Algorithm:                 Core
    Schwarz Cutoff:           1E-12
    Mask sparsity (%):       0.0000
    Fitting Condition:        1E-10

   => Auxiliary Basis Set <=

  Basis Set: (6-31+G* AUX)
    Blend: HEAVY-AUG-CC-PVDZ-JKFIT
    Number of shells: 138
    Number of basis function: 453
    Number of Cartesian functions: 453
    Spherical Harmonics?: false
    Max angular momentum: 3

  Cached 100.0% of DFT collocation blocks in 0.379 [GiB].

  Minimum eigenvalue in the overlap matrix is 1.9505761385E-04.
  Using Symmetric Orthogonalization.

  SCF Guess: Superposition of Atomic Densities via on-the-fly atomic UHF.

  ==> Iterations <==

                           Total Energy        Delta E     RMS |[F,P]|

   @DF-RKS iter SAD:  -117.40410937729364   -1.17404e+02   0.00000e+00 
   @DF-RKS iter   1:  -117.47159997367314   -6.74906e-02   1.69595e-02 DIIS
   @DF-RKS iter   2:  -116.95351216878112    5.18088e-01   2.44904e-02 DIIS
   @DF-RKS iter   3:  -117.89902420978480   -9.45512e-01   8.98040e-04 DIIS
   @DF-RKS iter   4:  -117.90029764396918   -1.27343e-03   1.54844e-04 DIIS
   @DF-RKS iter   5:  -117.90032932549840   -3.16815e-05   2.43973e-05 DIIS
   @DF-RKS iter   6:  -117.90033022882851   -9.03330e-07   7.14952e-07 DIIS
   @DF-RKS iter   7:  -117.90033023131187   -2.48336e-09   7.26623e-08 DIIS
   @DF-RKS iter   8:  -117.90033023132045   -8.58336e-12   5.39254e-08 DIIS
   @DF-RKS iter   9:  -117.90033023132446   -4.00746e-12   5.35901e-09 DIIS
  Energy and wave function converged.


  ==> Post-Iterations <==

    Orbital Energies [Eh]
    ---------------------

    Doubly Occupied:                                                      

       1Ap   -10.191077     2Ap   -10.190717     3Ap   -10.190713  
       4Ap    -0.847129     5Ap    -0.596730     6Ap    -0.596725  
       1App   -0.493445     7Ap    -0.464422     2App   -0.366015  
       3App   -0.366002     8Ap    -0.294481     9Ap    -0.294475  

    Virtual:                                                              

      10Ap     0.025790    11Ap     0.027593    12Ap     0.027595  
       4App    0.035733    13Ap     0.079092     5App    0.085563  
       6App    0.085565    14Ap     0.089560    15Ap     0.089562  
      16Ap     0.103437    17Ap     0.152657    18Ap     0.152663  
       7App    0.181806    19Ap     0.197629    20Ap     0.236596  
      21Ap     0.272224    22Ap     0.272237     8App    0.293618  
       9App    0.293633    23Ap     0.337138    24Ap     0.337141  
      25Ap     0.583066    26Ap     0.647516    27Ap     0.647531  
      10App    0.648064    28Ap     0.721252    29Ap     0.721259  
      30Ap     0.764609    11App    0.788376    12App    0.788426  
      31Ap     0.851811    13App    0.927092    32Ap     1.011184  
      14App    1.020763    15App    1.020784    33Ap     1.081727  
      34Ap     1.081740    35Ap     1.299008    36Ap     1.299012  
      37Ap     1.553424    16App    1.812086    17App    1.812107  
      38Ap     1.881333    39Ap     1.881373    18App    1.910198  
      19App    2.001660    40Ap     2.153544    41Ap     2.282015  
      42Ap     2.282030    20App    2.501444    21App    2.501483  
      43Ap     2.532350    44Ap     2.532354    45Ap     2.792081  
      46Ap     4.104221    47Ap     4.392302    48Ap     4.392307  

    Final Occupation by Irrep:
             Ap   App 
    DOCC [     9,    3 ]

  @DF-RKS Final Energy:  -117.90033023132446

   => Energetics <=

    Nuclear Repulsion Energy =             75.2814648090140253
    One-Electron Energy =                -305.8256205494916458
    Two-Electron Energy =                 127.5992505529052750
    DFT Exchange-Correlation Energy =     -14.9554250437521254
    Empirical Dispersion Energy =           0.0000000000000000
    VV10 Nonlocal Energy =                  0.0000000000000000
    Total Energy =                       -117.9003302313244603

Computation Completed


Properties will be evaluated at   0.000000,   0.000000,   0.000000 [a0]

Properties computed using the SCF density matrix

  Nuclear Dipole Moment: [e a0]
     X:    -0.0002      Y:    -0.0002      Z:     0.0000

  Electronic Dipole Moment: [e a0]
     X:     0.0002      Y:     0.0001      Z:     0.0000

  Dipole Moment: [e a0]
     X:    -0.0000      Y:    -0.0000      Z:     0.0000     Total:     0.0000

  Dipole Moment: [D]
     X:    -0.0001      Y:    -0.0001      Z:     0.0000     Total:     0.0001


*** tstop() called on atlantis at Tue Apr 19 14:25:53 2022
Module time:
	user time   =       4.45 seconds =       0.07 minutes
	system time =       0.04 seconds =       0.00 minutes
	total time  =          5 seconds =       0.08 minutes
Total time:
	user time   =      13.68 seconds =       0.23 minutes
	system time =       0.19 seconds =       0.00 minutes
	total time  =         14 seconds =       0.23 minutes

*** tstart() called on atlantis
*** at Tue Apr 19 14:25:53 2022


         ------------------------------------------------------------
                                   SCF GRAD                          
                          Rob Parrish, Justin Turney,                
                       Andy Simmonett, and Alex Sokolov              
         ------------------------------------------------------------

  ==> Geometry <==

    Molecular point group: cs
    Full point group: Cs

    Geometry (in Angstrom), charge = 0, multiplicity = 1:

       Center              X                  Y                   Z               Mass       
    ------------   -----------------  -----------------  -----------------  -----------------
         C            0.321531939855     0.813261460475     0.000000000000    12.000000000000
         C           -0.865048060145    -0.128168539525     0.000000000000    12.000000000000
         C            0.543531939855    -0.685078539525     0.000000000000    12.000000000000
         H            0.537951939855     1.360691460475    -0.920390000000     1.007825032230
         H            0.537951939855     1.360691460475     0.920390000000     1.007825032230
         H           -1.447418060145    -0.214488539525     0.920340000000     1.007825032230
         H           -1.447418060145    -0.214488539525    -0.920340000000     1.007825032230
         H            0.909371939855    -1.146288539525    -0.920370000000     1.007825032230
         H            0.909371939855    -1.146288539525     0.920370000000     1.007825032230

  Nuclear repulsion =   75.281464809014025

  ==> Basis Set <==

  Basis Set: 6-31+G*
    Blend: 6-31+G*
    Number of shells: 36
    Number of basis function: 69
    Number of Cartesian functions: 69
    Spherical Harmonics?: false
    Max angular momentum: 2

  ==> DFJKGrad: Density-Fitted SCF Gradients <==

    Gradient:                    1
    J tasked:                  Yes
    K tasked:                  Yes
    wK tasked:                  No
    OpenMP threads:              1
    Integrals threads:           1
    Memory [MiB]:              375
    Schwarz Cutoff:          0E+00
    Fitting Condition:       1E-10

   => Auxiliary Basis Set <=

  Basis Set: (6-31+G* AUX)
    Blend: HEAVY-AUG-CC-PVDZ-JKFIT
    Number of shells: 138
    Number of basis function: 453
    Number of Cartesian functions: 453
    Spherical Harmonics?: false
    Max angular momentum: 3

  ==> DFT Potential <==

   => Composite Functional: B3LYP <= 

    B3LYP Hyb-GGA Exchange-Correlation Functional

    P. J. Stephens, F. J. Devlin, C. F. Chabalowski, and M. J. Frisch, J. Phys. Chem. 98, 11623 (1994)

    Deriv               =              1
    GGA                 =           TRUE
    Meta                =          FALSE

    Exchange Hybrid     =           TRUE
    MP2 Hybrid          =          FALSE

   => Exchange Functionals <=

    0.0800   Slater exchange
    0.7200         Becke 88

   => Exact (HF) Exchange <=

    0.2000               HF 

   => Correlation Functionals <=

    0.1900   Vosko, Wilk & Nusair (VWN5_RPA)
    0.8100   Lee, Yang & Parr

   => Molecular Quadrature <=

    Radial Scheme          =       TREUTLER
    Pruning Scheme         =           FLAT
    Nuclear Scheme         =       TREUTLER

    BS radius alpha        =              1
    Pruning alpha          =              1
    Radial Points          =             75
    Spherical Points       =            302
    Total Points           =         203850
    Total Blocks           =           1576
    Max Points             =            256
    Max Functions          =             69


  -Total Gradient:
     Atom            X                  Y                   Z
    ------   -----------------  -----------------  -----------------
       1        0.000148067119     0.000388488886     0.000000000000
       2       -0.000382415990    -0.000053254264     0.000000000000
       3        0.000255648807    -0.000311721212     0.000000000000
       4        0.000411000119     0.001043529515    -0.003799072351
       5        0.000411000119     0.001043529515     0.003799072351
       6       -0.001117792070    -0.000169087851     0.003789594059
       7       -0.001117792070    -0.000169087851    -0.003789594059
       8        0.000695477603    -0.000884315099    -0.003795479659
       9        0.000695477603    -0.000884315099     0.003795479659


*** tstop() called on atlantis at Tue Apr 19 14:25:54 2022
Module time:
	user time   =       1.11 seconds =       0.02 minutes
	system time =       0.00 seconds =       0.00 minutes
	total time  =          1 seconds =       0.02 minutes
Total time:
	user time   =      14.79 seconds =       0.25 minutes
	system time =       0.19 seconds =       0.00 minutes
	total time  =         15 seconds =       0.25 minutes

  //>>>>>>>>>>>>>>>>>>>>>>>>>>>>>>>>>>>//
  //    Loading displacement 2 of 34   //
  //<<<<<<<<<<<<<<<<<<<<<<<<<<<<<<<<<<<//
gradient() will perform analytic gradient computation.

*** tstart() called on atlantis
*** at Tue Apr 19 14:25:54 2022

   => Loading Basis Set <=

    Name: 6-31+G*
    Role: ORBITAL
    Keyword: BASIS
    atoms 1-3 entry C          line   119 file /home/akrom/software/anaconda3/envs/ffpenv/share/psi4/basis/6-31pgs.gbs 
    atoms 4-9 entry H          line    46 file /home/akrom/software/anaconda3/envs/ffpenv/share/psi4/basis/6-31pgs.gbs 


         ---------------------------------------------------------
                                   SCF
               by Justin Turney, Rob Parrish, Andy Simmonett
                          and Daniel G. A. Smith
                              RKS Reference
                        1 Threads,    500 MiB Core
         ---------------------------------------------------------

  ==> Geometry <==

    Molecular point group: cs
    Full point group: Cs

    Geometry (in Angstrom), charge = 0, multiplicity = 1:

       Center              X                  Y                   Z               Mass       
    ------------   -----------------  -----------------  -----------------  -----------------
         C            0.320981935461     0.813179232929     0.000000000000    12.000000000000
         C           -0.864778117207    -0.127947314912     0.000000000000    12.000000000000
         C            0.543659460418    -0.685217540638     0.000000000000    12.000000000000
         H            0.538602639069     1.360553886373    -0.920390000000     1.007825032230
         H            0.538602639069     1.360553886373     0.920390000000     1.007825032230
         H           -1.447170192407    -0.214118381478     0.920340000000     1.007825032230
         H           -1.447170192407    -0.214118381478    -0.920340000000     1.007825032230
         H            0.909381512053    -1.146521099385    -0.920370000000     1.007825032230
         H            0.909381512053    -1.146521099385     0.920370000000     1.007825032230

  Running in cs symmetry.

  Rotational constants: A =      0.66511  B =      0.66452  C =      0.41655 [cm^-1]
  Rotational constants: A =  19939.46144  B =  19921.88173  C =  12487.97026 [MHz]
  Nuclear repulsion =   75.286659304380962

  Charge       = 0
  Multiplicity = 1
  Electrons    = 24
  Nalpha       = 12
  Nbeta        = 12

  ==> Algorithm <==

  SCF Algorithm Type is DF.
  DIIS enabled.
  MOM disabled.
  Fractional occupation disabled.
  Guess Type is SAD.
  Energy threshold   = 1.00e-08
  Density threshold  = 1.00e-08
  Integral threshold = 0.00e+00

  ==> Primary Basis <==

  Basis Set: 6-31+G*
    Blend: 6-31+G*
    Number of shells: 36
    Number of basis function: 69
    Number of Cartesian functions: 69
    Spherical Harmonics?: false
    Max angular momentum: 2

  ==> DFT Potential <==

   => Composite Functional: B3LYP <= 

    B3LYP Hyb-GGA Exchange-Correlation Functional

    P. J. Stephens, F. J. Devlin, C. F. Chabalowski, and M. J. Frisch, J. Phys. Chem. 98, 11623 (1994)

    Deriv               =              1
    GGA                 =           TRUE
    Meta                =          FALSE

    Exchange Hybrid     =           TRUE
    MP2 Hybrid          =          FALSE

   => Exchange Functionals <=

    0.0800   Slater exchange
    0.7200         Becke 88

   => Exact (HF) Exchange <=

    0.2000               HF 

   => Correlation Functionals <=

    0.1900   Vosko, Wilk & Nusair (VWN5_RPA)
    0.8100   Lee, Yang & Parr

   => Molecular Quadrature <=

    Radial Scheme          =       TREUTLER
    Pruning Scheme         =           FLAT
    Nuclear Scheme         =       TREUTLER

    BS radius alpha        =              1
    Pruning alpha          =              1
    Radial Points          =             75
    Spherical Points       =            302
    Total Points           =         203850
    Total Blocks           =           1568
    Max Points             =            256
    Max Functions          =             69

   => Loading Basis Set <=

    Name: (6-31+G* AUX)
    Role: JKFIT
    Keyword: DF_BASIS_SCF
    atoms 1-3 entry C          line   194 file /home/akrom/software/anaconda3/envs/ffpenv/share/psi4/basis/heavy-aug-cc-pvdz-jkfit.gbs 
    atoms 4-9 entry H          line   116 file /home/akrom/software/anaconda3/envs/ffpenv/share/psi4/basis/heavy-aug-cc-pvdz-jkfit.gbs 

  ==> Pre-Iterations <==

   -------------------------------------------------------
    Irrep   Nso     Nmo     Nalpha   Nbeta   Ndocc  Nsocc
   -------------------------------------------------------
     A'        48      48       0       0       0       0
     A"        21      21       0       0       0       0
   -------------------------------------------------------
    Total      69      69      12      12      12       0
   -------------------------------------------------------

  ==> Integral Setup <==

  DFHelper Memory: AOs need 0.019 GiB; user supplied 0.019 GiB. Using in-core AOs.

  ==> MemDFJK: Density-Fitted J/K Matrices <==

    J tasked:                   Yes
    K tasked:                   Yes
    wK tasked:                   No
    OpenMP threads:               1
    Memory [MiB]:                19
    Algorithm:                 Core
    Schwarz Cutoff:           1E-12
    Mask sparsity (%):       0.0000
    Fitting Condition:        1E-10

   => Auxiliary Basis Set <=

  Basis Set: (6-31+G* AUX)
    Blend: HEAVY-AUG-CC-PVDZ-JKFIT
    Number of shells: 138
    Number of basis function: 453
    Number of Cartesian functions: 453
    Spherical Harmonics?: false
    Max angular momentum: 3

  Cached 100.0% of DFT collocation blocks in 0.379 [GiB].

  Minimum eigenvalue in the overlap matrix is 1.9460384568E-04.
  Using Symmetric Orthogonalization.

  SCF Guess: Superposition of Atomic Densities via on-the-fly atomic UHF.

  ==> Iterations <==

                           Total Energy        Delta E     RMS |[F,P]|

   @DF-RKS iter SAD:  -117.40452810117070   -1.17405e+02   0.00000e+00 
   @DF-RKS iter   1:  -117.47138688619603   -6.68588e-02   1.69642e-02 DIIS
   @DF-RKS iter   2:  -116.95263000939761    5.18757e-01   2.45018e-02 DIIS
   @DF-RKS iter   3:  -117.89902565829995   -9.46396e-01   8.98109e-04 DIIS
   @DF-RKS iter   4:  -117.90029963593857   -1.27398e-03   1.54774e-04 DIIS
   @DF-RKS iter   5:  -117.90033128690851   -3.16510e-05   2.44361e-05 DIIS
   @DF-RKS iter   6:  -117.90033219078491   -9.03876e-07   1.39989e-06 DIIS
   @DF-RKS iter   7:  -117.90033219161742   -8.32515e-10   1.63585e-06 DIIS
   @DF-RKS iter   8:  -117.90033219523401   -3.61659e-09   5.86842e-08 DIIS
   @DF-RKS iter   9:  -117.90033219524035   -6.33804e-12   3.67673e-09 DIIS
  Energy and wave function converged.


  ==> Post-Iterations <==

    Orbital Energies [Eh]
    ---------------------

    Doubly Occupied:                                                      

       1Ap   -10.191069     2Ap   -10.190715     3Ap   -10.190696  
       4Ap    -0.847226     5Ap    -0.596748     6Ap    -0.596672  
       1App   -0.493452     7Ap    -0.464469     2App   -0.366012  
       3App   -0.365909     8Ap    -0.294700     9Ap    -0.294320  

    Virtual:                                                              

      10Ap     0.025788    11Ap     0.027593    12Ap     0.027597  
       4App    0.035717    13Ap     0.079097     5App    0.085564  
       6App    0.085570    14Ap     0.089545    15Ap     0.089571  
      16Ap     0.103470    17Ap     0.152654    18Ap     0.152661  
       7App    0.181759    19Ap     0.197685    20Ap     0.236589  
      21Ap     0.272152    22Ap     0.272451     8App    0.293484  
       9App    0.293726    23Ap     0.337138    24Ap     0.337212  
      25Ap     0.582994    26Ap     0.647392    27Ap     0.647643  
      10App    0.648119    28Ap     0.721213    29Ap     0.721421  
      30Ap     0.764638    11App    0.788149    12App    0.788624  
      31Ap     0.851773    13App    0.926958    32Ap     1.011168  
      14App    1.020565    15App    1.020877    33Ap     1.081693  
      34Ap     1.081753    35Ap     1.299075    36Ap     1.299127  
      37Ap     1.553401    16App    1.812046    17App    1.812103  
      38Ap     1.881452    39Ap     1.881659    18App    1.910047  
      19App    2.001843    40Ap     2.153653    41Ap     2.281673  
      42Ap     2.282579    20App    2.501139    21App    2.502117  
      43Ap     2.532319    44Ap     2.532443    45Ap     2.792310  
      46Ap     4.104336    47Ap     4.392193    48Ap     4.392477  

    Final Occupation by Irrep:
             Ap   App 
    DOCC [     9,    3 ]

  @DF-RKS Final Energy:  -117.90033219524035

   => Energetics <=

    Nuclear Repulsion Energy =             75.2866593043809615
    One-Electron Energy =                -305.8358551205876097
    Two-Electron Energy =                 127.6043600550556931
    DFT Exchange-Correlation Energy =     -14.9554964340894117
    Empirical Dispersion Energy =           0.0000000000000000
    VV10 Nonlocal Energy =                  0.0000000000000000
    Total Energy =                       -117.9003321952403525

Computation Completed


Properties will be evaluated at   0.000000,   0.000000,   0.000000 [a0]

Properties computed using the SCF density matrix

  Nuclear Dipole Moment: [e a0]
     X:     0.0015      Y:    -0.0002      Z:     0.0000

  Electronic Dipole Moment: [e a0]
     X:    -0.0017      Y:     0.0003      Z:     0.0000

  Dipole Moment: [e a0]
     X:    -0.0002      Y:     0.0002      Z:     0.0000     Total:     0.0002

  Dipole Moment: [D]
     X:    -0.0004      Y:     0.0004      Z:     0.0000     Total:     0.0006


*** tstop() called on atlantis at Tue Apr 19 14:25:59 2022
Module time:
	user time   =       4.47 seconds =       0.07 minutes
	system time =       0.02 seconds =       0.00 minutes
	total time  =          5 seconds =       0.08 minutes
Total time:
	user time   =      19.27 seconds =       0.32 minutes
	system time =       0.21 seconds =       0.00 minutes
	total time  =         20 seconds =       0.33 minutes

*** tstart() called on atlantis
*** at Tue Apr 19 14:25:59 2022


         ------------------------------------------------------------
                                   SCF GRAD                          
                          Rob Parrish, Justin Turney,                
                       Andy Simmonett, and Alex Sokolov              
         ------------------------------------------------------------

  ==> Geometry <==

    Molecular point group: cs
    Full point group: Cs

    Geometry (in Angstrom), charge = 0, multiplicity = 1:

       Center              X                  Y                   Z               Mass       
    ------------   -----------------  -----------------  -----------------  -----------------
         C            0.320981935461     0.813179232929     0.000000000000    12.000000000000
         C           -0.864778117207    -0.127947314912     0.000000000000    12.000000000000
         C            0.543659460418    -0.685217540638     0.000000000000    12.000000000000
         H            0.538602639069     1.360553886373    -0.920390000000     1.007825032230
         H            0.538602639069     1.360553886373     0.920390000000     1.007825032230
         H           -1.447170192407    -0.214118381478     0.920340000000     1.007825032230
         H           -1.447170192407    -0.214118381478    -0.920340000000     1.007825032230
         H            0.909381512053    -1.146521099385    -0.920370000000     1.007825032230
         H            0.909381512053    -1.146521099385     0.920370000000     1.007825032230

  Nuclear repulsion =   75.286659304380962

  ==> Basis Set <==

  Basis Set: 6-31+G*
    Blend: 6-31+G*
    Number of shells: 36
    Number of basis function: 69
    Number of Cartesian functions: 69
    Spherical Harmonics?: false
    Max angular momentum: 2

  ==> DFJKGrad: Density-Fitted SCF Gradients <==

    Gradient:                    1
    J tasked:                  Yes
    K tasked:                  Yes
    wK tasked:                  No
    OpenMP threads:              1
    Integrals threads:           1
    Memory [MiB]:              375
    Schwarz Cutoff:          0E+00
    Fitting Condition:       1E-10

   => Auxiliary Basis Set <=

  Basis Set: (6-31+G* AUX)
    Blend: HEAVY-AUG-CC-PVDZ-JKFIT
    Number of shells: 138
    Number of basis function: 453
    Number of Cartesian functions: 453
    Spherical Harmonics?: false
    Max angular momentum: 3

  ==> DFT Potential <==

   => Composite Functional: B3LYP <= 

    B3LYP Hyb-GGA Exchange-Correlation Functional

    P. J. Stephens, F. J. Devlin, C. F. Chabalowski, and M. J. Frisch, J. Phys. Chem. 98, 11623 (1994)

    Deriv               =              1
    GGA                 =           TRUE
    Meta                =          FALSE

    Exchange Hybrid     =           TRUE
    MP2 Hybrid          =          FALSE

   => Exchange Functionals <=

    0.0800   Slater exchange
    0.7200         Becke 88

   => Exact (HF) Exchange <=

    0.2000               HF 

   => Correlation Functionals <=

    0.1900   Vosko, Wilk & Nusair (VWN5_RPA)
    0.8100   Lee, Yang & Parr

   => Molecular Quadrature <=

    Radial Scheme          =       TREUTLER
    Pruning Scheme         =           FLAT
    Nuclear Scheme         =       TREUTLER

    BS radius alpha        =              1
    Pruning alpha          =              1
    Radial Points          =             75
    Spherical Points       =            302
    Total Points           =         203850
    Total Blocks           =           1568
    Max Points             =            256
    Max Functions          =             69


  -Total Gradient:
     Atom            X                  Y                   Z
    ------   -----------------  -----------------  -----------------
       1       -0.000386184499     0.000111149993     0.000000000000
       2       -0.000123207008     0.000090028139     0.000000000000
       3        0.000298081645    -0.000317339889     0.000000000000
       4        0.000507158236     0.001105084756    -0.003890243750
       5        0.000507158236     0.001105084756     0.003890243750
       6       -0.001098973161    -0.000144358826     0.003793767383
       7       -0.001098973161    -0.000144358826    -0.003793767383
       8        0.000695450014    -0.000905515077    -0.003791955088
       9        0.000695450014    -0.000905515077     0.003791955088


*** tstop() called on atlantis at Tue Apr 19 14:26:00 2022
Module time:
	user time   =       1.12 seconds =       0.02 minutes
	system time =       0.00 seconds =       0.00 minutes
	total time  =          1 seconds =       0.02 minutes
Total time:
	user time   =      20.39 seconds =       0.34 minutes
	system time =       0.21 seconds =       0.00 minutes
	total time  =         21 seconds =       0.35 minutes

  //>>>>>>>>>>>>>>>>>>>>>>>>>>>>>>>>>>>//
  //    Loading displacement 3 of 34   //
  //<<<<<<<<<<<<<<<<<<<<<<<<<<<<<<<<<<<//
gradient() will perform analytic gradient computation.

*** tstart() called on atlantis
*** at Tue Apr 19 14:26:00 2022

   => Loading Basis Set <=

    Name: 6-31+G*
    Role: ORBITAL
    Keyword: BASIS
    atoms 1-3 entry C          line   119 file /home/akrom/software/anaconda3/envs/ffpenv/share/psi4/basis/6-31pgs.gbs 
    atoms 4-9 entry H          line    46 file /home/akrom/software/anaconda3/envs/ffpenv/share/psi4/basis/6-31pgs.gbs 


         ---------------------------------------------------------
                                   SCF
               by Justin Turney, Rob Parrish, Andy Simmonett
                          and Daniel G. A. Smith
                              RKS Reference
                        1 Threads,    500 MiB Core
         ---------------------------------------------------------

  ==> Geometry <==

    Molecular point group: cs
    Full point group: Cs

    Geometry (in Angstrom), charge = 0, multiplicity = 1:

       Center              X                  Y                   Z               Mass       
    ------------   -----------------  -----------------  -----------------  -----------------
         C            0.322081944250     0.813343688021     0.000000000000    12.000000000000
         C           -0.865318003082    -0.128389764139     0.000000000000    12.000000000000
         C            0.543404419293    -0.684939538412     0.000000000000    12.000000000000
         H            0.537301240642     1.360829034576    -0.920390000000     1.007825032230
         H            0.537301240642     1.360829034576     0.920390000000     1.007825032230
         H           -1.447665927882    -0.214858697572     0.920340000000     1.007825032230
         H           -1.447665927882    -0.214858697572    -0.920340000000     1.007825032230
         H            0.909362367658    -1.146055979665    -0.920370000000     1.007825032230
         H            0.909362367658    -1.146055979665     0.920370000000     1.007825032230

  Running in cs symmetry.

  Rotational constants: A =      0.66489  B =      0.66431  C =      0.41639 [cm^-1]
  Rotational constants: A =  19932.94970  B =  19915.53021  C =  12482.92073 [MHz]
  Nuclear repulsion =   75.276267816162189

  Charge       = 0
  Multiplicity = 1
  Electrons    = 24
  Nalpha       = 12
  Nbeta        = 12

  ==> Algorithm <==

  SCF Algorithm Type is DF.
  DIIS enabled.
  MOM disabled.
  Fractional occupation disabled.
  Guess Type is SAD.
  Energy threshold   = 1.00e-08
  Density threshold  = 1.00e-08
  Integral threshold = 0.00e+00

  ==> Primary Basis <==

  Basis Set: 6-31+G*
    Blend: 6-31+G*
    Number of shells: 36
    Number of basis function: 69
    Number of Cartesian functions: 69
    Spherical Harmonics?: false
    Max angular momentum: 2

  ==> DFT Potential <==

   => Composite Functional: B3LYP <= 

    B3LYP Hyb-GGA Exchange-Correlation Functional

    P. J. Stephens, F. J. Devlin, C. F. Chabalowski, and M. J. Frisch, J. Phys. Chem. 98, 11623 (1994)

    Deriv               =              1
    GGA                 =           TRUE
    Meta                =          FALSE

    Exchange Hybrid     =           TRUE
    MP2 Hybrid          =          FALSE

   => Exchange Functionals <=

    0.0800   Slater exchange
    0.7200         Becke 88

   => Exact (HF) Exchange <=

    0.2000               HF 

   => Correlation Functionals <=

    0.1900   Vosko, Wilk & Nusair (VWN5_RPA)
    0.8100   Lee, Yang & Parr

   => Molecular Quadrature <=

    Radial Scheme          =       TREUTLER
    Pruning Scheme         =           FLAT
    Nuclear Scheme         =       TREUTLER

    BS radius alpha        =              1
    Pruning alpha          =              1
    Radial Points          =             75
    Spherical Points       =            302
    Total Points           =         203850
    Total Blocks           =           1573
    Max Points             =            256
    Max Functions          =             69

   => Loading Basis Set <=

    Name: (6-31+G* AUX)
    Role: JKFIT
    Keyword: DF_BASIS_SCF
    atoms 1-3 entry C          line   194 file /home/akrom/software/anaconda3/envs/ffpenv/share/psi4/basis/heavy-aug-cc-pvdz-jkfit.gbs 
    atoms 4-9 entry H          line   116 file /home/akrom/software/anaconda3/envs/ffpenv/share/psi4/basis/heavy-aug-cc-pvdz-jkfit.gbs 

  ==> Pre-Iterations <==

   -------------------------------------------------------
    Irrep   Nso     Nmo     Nalpha   Nbeta   Ndocc  Nsocc
   -------------------------------------------------------
     A'        48      48       0       0       0       0
     A"        21      21       0       0       0       0
   -------------------------------------------------------
    Total      69      69      12      12      12       0
   -------------------------------------------------------

  ==> Integral Setup <==

  DFHelper Memory: AOs need 0.019 GiB; user supplied 0.019 GiB. Using in-core AOs.

  ==> MemDFJK: Density-Fitted J/K Matrices <==

    J tasked:                   Yes
    K tasked:                   Yes
    wK tasked:                   No
    OpenMP threads:               1
    Memory [MiB]:                19
    Algorithm:                 Core
    Schwarz Cutoff:           1E-12
    Mask sparsity (%):       0.0000
    Fitting Condition:        1E-10

   => Auxiliary Basis Set <=

  Basis Set: (6-31+G* AUX)
    Blend: HEAVY-AUG-CC-PVDZ-JKFIT
    Number of shells: 138
    Number of basis function: 453
    Number of Cartesian functions: 453
    Spherical Harmonics?: false
    Max angular momentum: 3

  Cached 100.0% of DFT collocation blocks in 0.379 [GiB].

  Minimum eigenvalue in the overlap matrix is 1.9494032464E-04.
  Using Symmetric Orthogonalization.

  SCF Guess: Superposition of Atomic Densities via on-the-fly atomic UHF.

  ==> Iterations <==

                           Total Energy        Delta E     RMS |[F,P]|

   @DF-RKS iter SAD:  -117.40371914253097   -1.17404e+02   0.00000e+00 
   @DF-RKS iter   1:  -117.47182278215195   -6.81036e-02   1.69548e-02 DIIS
   @DF-RKS iter   2:  -116.95441474123689    5.17408e-01   2.44788e-02 DIIS
   @DF-RKS iter   3:  -117.89902872291027   -9.44614e-01   8.97952e-04 DIIS
   @DF-RKS iter   4:  -117.90030155669727   -1.27283e-03   1.54920e-04 DIIS
   @DF-RKS iter   5:  -117.90033326759044   -3.17109e-05   2.44142e-05 DIIS
   @DF-RKS iter   6:  -117.90033417006075   -9.02470e-07   1.41715e-06 DIIS
   @DF-RKS iter   7:  -117.90033417084013   -7.79380e-10   1.66153e-06 DIIS
   @DF-RKS iter   8:  -117.90033417457298   -3.73285e-09   5.81680e-08 DIIS
   @DF-RKS iter   9:  -117.90033417457919   -6.21014e-12   3.65829e-09 DIIS
  Energy and wave function converged.


  ==> Post-Iterations <==

    Orbital Energies [Eh]
    ---------------------

    Doubly Occupied:                                                      

       1Ap   -10.191089     2Ap   -10.190735     3Ap   -10.190718  
       4Ap    -0.847033     5Ap    -0.596786     6Ap    -0.596705  
       1App   -0.493440     7Ap    -0.464376     2App   -0.366113  
       3App   -0.365998     8Ap    -0.294636     9Ap    -0.294257  

    Virtual:                                                              

      10Ap     0.025792    11Ap     0.027589    12Ap     0.027594  
       4App    0.035752    13Ap     0.079091     5App    0.085557  
       6App    0.085564    14Ap     0.089549    15Ap     0.089577  
      16Ap     0.103403    17Ap     0.152656    18Ap     0.152664  
       7App    0.181853    19Ap     0.197573    20Ap     0.236606  
      21Ap     0.272016    22Ap     0.272305     8App    0.293516  
       9App    0.293769    23Ap     0.337071    24Ap     0.337139  
      25Ap     0.583131    26Ap     0.647396    27Ap     0.647649  
      10App    0.647984    28Ap     0.721090    29Ap     0.721295  
      30Ap     0.764580    11App    0.788144    12App    0.788662  
      31Ap     0.851833    13App    0.927217    32Ap     1.011202  
      14App    1.020657    15App    1.020992    33Ap     1.081721  
      34Ap     1.081765    35Ap     1.298886    36Ap     1.298954  
      37Ap     1.553440    16App    1.812074    17App    1.812141  
      38Ap     1.881022    39Ap     1.881277    18App    1.910338  
      19App    2.001479    40Ap     2.153428    41Ap     2.281472  
      42Ap     2.282362    20App    2.500831    21App    2.501763  
      43Ap     2.532260    44Ap     2.532389    45Ap     2.791851  
      46Ap     4.104096    47Ap     4.392135    48Ap     4.392413  

    Final Occupation by Irrep:
             Ap   App 
    DOCC [     9,    3 ]

  @DF-RKS Final Energy:  -117.90033417457919

   => Energetics <=

    Nuclear Repulsion Energy =             75.2762678161621892
    One-Electron Energy =                -305.8153694948073280
    Two-Electron Energy =                 127.5941220779604208
    DFT Exchange-Correlation Energy =     -14.9553545738944873
    Empirical Dispersion Energy =           0.0000000000000000
    VV10 Nonlocal Energy =                  0.0000000000000000
    Total Energy =                       -117.9003341745791857

Computation Completed


Properties will be evaluated at   0.000000,   0.000000,   0.000000 [a0]

Properties computed using the SCF density matrix

  Nuclear Dipole Moment: [e a0]
     X:    -0.0019      Y:    -0.0002      Z:     0.0000

  Electronic Dipole Moment: [e a0]
     X:     0.0020      Y:    -0.0001      Z:     0.0000

  Dipole Moment: [e a0]
     X:     0.0001      Y:    -0.0002      Z:     0.0000     Total:     0.0002

  Dipole Moment: [D]
     X:     0.0003      Y:    -0.0005      Z:     0.0000     Total:     0.0006


*** tstop() called on atlantis at Tue Apr 19 14:26:04 2022
Module time:
	user time   =       4.46 seconds =       0.07 minutes
	system time =       0.03 seconds =       0.00 minutes
	total time  =          4 seconds =       0.07 minutes
Total time:
	user time   =      24.85 seconds =       0.41 minutes
	system time =       0.25 seconds =       0.00 minutes
	total time  =         25 seconds =       0.42 minutes

*** tstart() called on atlantis
*** at Tue Apr 19 14:26:04 2022


         ------------------------------------------------------------
                                   SCF GRAD                          
                          Rob Parrish, Justin Turney,                
                       Andy Simmonett, and Alex Sokolov              
         ------------------------------------------------------------

  ==> Geometry <==

    Molecular point group: cs
    Full point group: Cs

    Geometry (in Angstrom), charge = 0, multiplicity = 1:

       Center              X                  Y                   Z               Mass       
    ------------   -----------------  -----------------  -----------------  -----------------
         C            0.322081944250     0.813343688021     0.000000000000    12.000000000000
         C           -0.865318003082    -0.128389764139     0.000000000000    12.000000000000
         C            0.543404419293    -0.684939538412     0.000000000000    12.000000000000
         H            0.537301240642     1.360829034576    -0.920390000000     1.007825032230
         H            0.537301240642     1.360829034576     0.920390000000     1.007825032230
         H           -1.447665927882    -0.214858697572     0.920340000000     1.007825032230
         H           -1.447665927882    -0.214858697572    -0.920340000000     1.007825032230
         H            0.909362367658    -1.146055979665    -0.920370000000     1.007825032230
         H            0.909362367658    -1.146055979665     0.920370000000     1.007825032230

  Nuclear repulsion =   75.276267816162189

  ==> Basis Set <==

  Basis Set: 6-31+G*
    Blend: 6-31+G*
    Number of shells: 36
    Number of basis function: 69
    Number of Cartesian functions: 69
    Spherical Harmonics?: false
    Max angular momentum: 2

  ==> DFJKGrad: Density-Fitted SCF Gradients <==

    Gradient:                    1
    J tasked:                  Yes
    K tasked:                  Yes
    wK tasked:                  No
    OpenMP threads:              1
    Integrals threads:           1
    Memory [MiB]:              375
    Schwarz Cutoff:          0E+00
    Fitting Condition:       1E-10

   => Auxiliary Basis Set <=

  Basis Set: (6-31+G* AUX)
    Blend: HEAVY-AUG-CC-PVDZ-JKFIT
    Number of shells: 138
    Number of basis function: 453
    Number of Cartesian functions: 453
    Spherical Harmonics?: false
    Max angular momentum: 3

  ==> DFT Potential <==

   => Composite Functional: B3LYP <= 

    B3LYP Hyb-GGA Exchange-Correlation Functional

    P. J. Stephens, F. J. Devlin, C. F. Chabalowski, and M. J. Frisch, J. Phys. Chem. 98, 11623 (1994)

    Deriv               =              1
    GGA                 =           TRUE
    Meta                =          FALSE

    Exchange Hybrid     =           TRUE
    MP2 Hybrid          =          FALSE

   => Exchange Functionals <=

    0.0800   Slater exchange
    0.7200         Becke 88

   => Exact (HF) Exchange <=

    0.2000               HF 

   => Correlation Functionals <=

    0.1900   Vosko, Wilk & Nusair (VWN5_RPA)
    0.8100   Lee, Yang & Parr

   => Molecular Quadrature <=

    Radial Scheme          =       TREUTLER
    Pruning Scheme         =           FLAT
    Nuclear Scheme         =       TREUTLER

    BS radius alpha        =              1
    Pruning alpha          =              1
    Radial Points          =             75
    Spherical Points       =            302
    Total Points           =         203850
    Total Blocks           =           1573
    Max Points             =            256
    Max Functions          =             69


  -Total Gradient:
     Atom            X                  Y                   Z
    ------   -----------------  -----------------  -----------------
       1        0.000692722075     0.000648574333     0.000000000000
       2       -0.000667669852    -0.000189997612     0.000000000000
       3        0.000225549083    -0.000311333713     0.000000000000
       4        0.000315984661     0.000981938207    -0.003709041992
       5        0.000315984661     0.000981938207     0.003709041992
       6       -0.001136715819    -0.000192243683     0.003784187976
       7       -0.001136715819    -0.000192243683    -0.003784187976
       8        0.000693826002    -0.000865574834    -0.003797170787
       9        0.000693826002    -0.000865574834     0.003797170787


*** tstop() called on atlantis at Tue Apr 19 14:26:05 2022
Module time:
	user time   =       1.12 seconds =       0.02 minutes
	system time =       0.00 seconds =       0.00 minutes
	total time  =          1 seconds =       0.02 minutes
Total time:
	user time   =      25.97 seconds =       0.43 minutes
	system time =       0.25 seconds =       0.00 minutes
	total time  =         26 seconds =       0.43 minutes

  //>>>>>>>>>>>>>>>>>>>>>>>>>>>>>>>>>>>//
  //    Loading displacement 4 of 34   //
  //<<<<<<<<<<<<<<<<<<<<<<<<<<<<<<<<<<<//
gradient() will perform analytic gradient computation.

*** tstart() called on atlantis
*** at Tue Apr 19 14:26:05 2022

   => Loading Basis Set <=

    Name: 6-31+G*
    Role: ORBITAL
    Keyword: BASIS
    atoms 1-3 entry C          line   119 file /home/akrom/software/anaconda3/envs/ffpenv/share/psi4/basis/6-31pgs.gbs 
    atoms 4-9 entry H          line    46 file /home/akrom/software/anaconda3/envs/ffpenv/share/psi4/basis/6-31pgs.gbs 


         ---------------------------------------------------------
                                   SCF
               by Justin Turney, Rob Parrish, Andy Simmonett
                          and Daniel G. A. Smith
                              RKS Reference
                        1 Threads,    500 MiB Core
         ---------------------------------------------------------

  ==> Geometry <==

    Molecular point group: cs
    Full point group: Cs

    Geometry (in Angstrom), charge = 0, multiplicity = 1:

       Center              X                  Y                   Z               Mass       
    ------------   -----------------  -----------------  -----------------  -----------------
         C            0.321531939855     0.812635159068     0.000000000000    12.000000000000
         C           -0.865072120902    -0.128008550426     0.000000000000    12.000000000000
         C            0.543576026536    -0.684746186637     0.000000000000    12.000000000000
         H            0.537745691682     1.361023130555    -0.920390000000     1.007825032230
         H            0.537745691682     1.361023130555     0.920390000000     1.007825032230
         H           -1.447431558178    -0.214399813329     0.920340000000     1.007825032230
         H           -1.447431558178    -0.214399813329    -0.920340000000     1.007825032230
         H            0.909472463446    -1.145911419873    -0.920370000000     1.007825032230
         H            0.909472463446    -1.145911419873     0.920370000000     1.007825032230

  Running in cs symmetry.

  Rotational constants: A =      0.66518  B =      0.66468  C =      0.41665 [cm^-1]
  Rotational constants: A =  19941.69418  B =  19926.66026  C =  12490.72376 [MHz]
  Nuclear repulsion =   75.292327113354389

  Charge       = 0
  Multiplicity = 1
  Electrons    = 24
  Nalpha       = 12
  Nbeta        = 12

  ==> Algorithm <==

  SCF Algorithm Type is DF.
  DIIS enabled.
  MOM disabled.
  Fractional occupation disabled.
  Guess Type is SAD.
  Energy threshold   = 1.00e-08
  Density threshold  = 1.00e-08
  Integral threshold = 0.00e+00

  ==> Primary Basis <==

  Basis Set: 6-31+G*
    Blend: 6-31+G*
    Number of shells: 36
    Number of basis function: 69
    Number of Cartesian functions: 69
    Spherical Harmonics?: false
    Max angular momentum: 2

  ==> DFT Potential <==

   => Composite Functional: B3LYP <= 

    B3LYP Hyb-GGA Exchange-Correlation Functional

    P. J. Stephens, F. J. Devlin, C. F. Chabalowski, and M. J. Frisch, J. Phys. Chem. 98, 11623 (1994)

    Deriv               =              1
    GGA                 =           TRUE
    Meta                =          FALSE

    Exchange Hybrid     =           TRUE
    MP2 Hybrid          =          FALSE

   => Exchange Functionals <=

    0.0800   Slater exchange
    0.7200         Becke 88

   => Exact (HF) Exchange <=

    0.2000               HF 

   => Correlation Functionals <=

    0.1900   Vosko, Wilk & Nusair (VWN5_RPA)
    0.8100   Lee, Yang & Parr

   => Molecular Quadrature <=

    Radial Scheme          =       TREUTLER
    Pruning Scheme         =           FLAT
    Nuclear Scheme         =       TREUTLER

    BS radius alpha        =              1
    Pruning alpha          =              1
    Radial Points          =             75
    Spherical Points       =            302
    Total Points           =         203850
    Total Blocks           =           1577
    Max Points             =            256
    Max Functions          =             69

   => Loading Basis Set <=

    Name: (6-31+G* AUX)
    Role: JKFIT
    Keyword: DF_BASIS_SCF
    atoms 1-3 entry C          line   194 file /home/akrom/software/anaconda3/envs/ffpenv/share/psi4/basis/heavy-aug-cc-pvdz-jkfit.gbs 
    atoms 4-9 entry H          line   116 file /home/akrom/software/anaconda3/envs/ffpenv/share/psi4/basis/heavy-aug-cc-pvdz-jkfit.gbs 

  ==> Pre-Iterations <==

   -------------------------------------------------------
    Irrep   Nso     Nmo     Nalpha   Nbeta   Ndocc  Nsocc
   -------------------------------------------------------
     A'        48      48       0       0       0       0
     A"        21      21       0       0       0       0
   -------------------------------------------------------
    Total      69      69      12      12      12       0
   -------------------------------------------------------

  ==> Integral Setup <==

  DFHelper Memory: AOs need 0.019 GiB; user supplied 0.019 GiB. Using in-core AOs.

  ==> MemDFJK: Density-Fitted J/K Matrices <==

    J tasked:                   Yes
    K tasked:                   Yes
    wK tasked:                   No
    OpenMP threads:               1
    Memory [MiB]:                19
    Algorithm:                 Core
    Schwarz Cutoff:           1E-12
    Mask sparsity (%):       0.0000
    Fitting Condition:        1E-10

   => Auxiliary Basis Set <=

  Basis Set: (6-31+G* AUX)
    Blend: HEAVY-AUG-CC-PVDZ-JKFIT
    Number of shells: 138
    Number of basis function: 453
    Number of Cartesian functions: 453
    Spherical Harmonics?: false
    Max angular momentum: 3

  Cached 100.0% of DFT collocation blocks in 0.380 [GiB].

  Minimum eigenvalue in the overlap matrix is 1.9447573854E-04.
  Using Symmetric Orthogonalization.

  SCF Guess: Superposition of Atomic Densities via on-the-fly atomic UHF.

  ==> Iterations <==

                           Total Energy        Delta E     RMS |[F,P]|

   @DF-RKS iter SAD:  -117.40496805693570   -1.17405e+02   0.00000e+00 
   @DF-RKS iter   1:  -117.47114919521711   -6.61811e-02   1.69693e-02 DIIS
   @DF-RKS iter   2:  -116.95163942467612    5.19510e-01   2.45145e-02 DIIS
   @DF-RKS iter   3:  -117.89902427019001   -9.47385e-01   8.98227e-04 DIIS
   @DF-RKS iter   4:  -117.90029896614351   -1.27470e-03   1.54699e-04 DIIS
   @DF-RKS iter   5:  -117.90033058566355   -3.16195e-05   2.44661e-05 DIIS
   @DF-RKS iter   6:  -117.90033149024418   -9.04581e-07   1.69523e-06 DIIS
   @DF-RKS iter   7:  -117.90033149055500   -3.10820e-10   1.99334e-06 DIIS
   @DF-RKS iter   8:  -117.90033149592831   -5.37331e-09   5.22193e-08 DIIS
   @DF-RKS iter   9:  -117.90033149593344   -5.13012e-12   3.59824e-09 DIIS
  Energy and wave function converged.


  ==> Post-Iterations <==

    Orbital Energies [Eh]
    ---------------------

    Doubly Occupied:                                                      

       1Ap   -10.191060     2Ap   -10.190710     3Ap   -10.190678  
       4Ap    -0.847332     5Ap    -0.596761     6Ap    -0.596622  
[...]
    MP2 Hybrid          =          FALSE

   => Exchange Functionals <=

    0.0800   Slater exchange
    0.7200         Becke 88

   => Exact (HF) Exchange <=

    0.2000               HF 

   => Correlation Functionals <=

    0.1900   Vosko, Wilk & Nusair (VWN5_RPA)
    0.8100   Lee, Yang & Parr

   => Molecular Quadrature <=

    Radial Scheme          =       TREUTLER
    Pruning Scheme         =           FLAT
    Nuclear Scheme         =       TREUTLER

    BS radius alpha        =              1
    Pruning alpha          =              1
    Radial Points          =             75
    Spherical Points       =            302
    Total Points           =         203850
    Total Blocks           =           1569
    Max Points             =            256
    Max Functions          =             69


  -Total Gradient:
     Atom            X                  Y                   Z
    ------   -----------------  -----------------  -----------------
       1        0.000147624642     0.000388696824     0.000003933662
       2       -0.000382919201    -0.000053308158     0.000439401709
       3        0.000256682182    -0.000314454540    -0.001232130036
       4        0.000407979577     0.001037129071    -0.003800265473
       5        0.000414227378     0.001049888082     0.003798062095
       6       -0.000943182615    -0.000165787326     0.003511453700
       7       -0.001291819287    -0.000172382081    -0.004067280283
       8        0.000335154140    -0.000525386140    -0.003119548921
       9        0.001055086325    -0.001240804651     0.004466518715


*** tstop() called on atlantis at Tue Apr 19 14:29:01 2022
Module time:
	user time   =       1.10 seconds =       0.02 minutes
	system time =       0.00 seconds =       0.00 minutes
	total time  =          1 seconds =       0.02 minutes
Total time:
	user time   =     199.26 seconds =       3.32 minutes
	system time =       1.35 seconds =       0.02 minutes
	total time  =        202 seconds =       3.37 minutes

         ----------------------------------------------------------
                                   FINDIF
                     R. A. King and Jonathon Misiewicz
         ---------------------------------------------------------

  Computing second-derivative from gradients using projected, 
  symmetry-adapted, cartesian coordinates.

  34 gradients passed in, including the reference geometry.
  Generating complete list of displacements from unique ones.

    Operation 2 takes plus displacements of irrep A" to minus ones.

-------------------------------------------------------------


  ==> Harmonic Vibrational Analysis <==

  non-mass-weighted Hessian:       Symmetric? True   Hermitian? True   Lin Dep Dim?  6 (0)
  projection of translations (True) and rotations (True) removed 6 degrees of freedom (6)
  total projector:                 Symmetric? True   Hermitian? True   Lin Dep Dim?  6 (6)
  mass-weighted Hessian:           Symmetric? True   Hermitian? True   Lin Dep Dim?  6 (0)
  pre-proj  low-frequency mode:    0.0000i [cm^-1]
  pre-proj  low-frequency mode:    0.0000i [cm^-1]
  pre-proj  low-frequency mode:    0.0000i [cm^-1]
  pre-proj  low-frequency mode:    0.0000  [cm^-1]
  pre-proj  low-frequency mode:    0.0000  [cm^-1]
  pre-proj  low-frequency mode:    0.0000  [cm^-1]
  pre-proj  all modes:['0.0000i' '0.0000i' '0.0000i' '0.0000' '0.0000' '0.0000' '776.7233'
 '776.8931' '875.6882' '876.7239' '894.4183' '1072.0107' '1075.0730'
 '1103.1104' '1167.7362' '1210.1457' '1231.6035' '1231.7254' '1495.0090'
 '1495.3121' '1542.2688' '3089.0743' '3089.3133' '3097.0478' '3163.5087'
 '3163.5322' '3185.1084']
  projected mass-weighted Hessian: Symmetric? True   Hermitian? True   Lin Dep Dim?  6 (6)
  post-proj low-frequency mode:    0.0000i [cm^-1] (TR)
  post-proj low-frequency mode:    0.0000  [cm^-1] (TR)
  post-proj low-frequency mode:    0.0000  [cm^-1] (TR)
  post-proj low-frequency mode:    0.0000  [cm^-1] (TR)
  post-proj low-frequency mode:    0.0000  [cm^-1] (TR)
  post-proj low-frequency mode:    0.0001  [cm^-1] (TR)
  post-proj  all modes:['0.0000i' '0.0000' '0.0000' '0.0000' '0.0000' '0.0001' '776.7233'
 '776.8931' '875.6882' '876.7239' '894.4183' '1072.0107' '1075.0730'
 '1103.1104' '1167.7362' '1210.1457' '1231.6035' '1231.7254' '1495.0090'
 '1495.3121' '1542.2688' '3089.0743' '3089.3133' '3097.0478' '3163.5087'
 '3163.5322' '3185.1084']

  Vibration                       7                   8                   9           
  Freq [cm^-1]                 776.7233            776.8931            875.6882       
  Irrep                          App                 App                  Ap          
  Reduced mass [u]              1.0208              1.0208              3.9665        
  Force const [mDyne/A]         0.3628              0.3630              1.7921        
  Turning point v=0 [a0]        0.3897              0.3896              0.1862        
  RMS dev v=0 [a0 u^1/2]        0.2784              0.2784              0.2622        
  Char temp [K]               1117.5320           1117.7762           1259.9203       
  ----------------------------------------------------------------------------------
      1   C               -0.00 -0.00  0.03    0.00  0.00 -0.00   -0.20  0.21  0.00   
      2   C               -0.00  0.00 -0.01    0.00 -0.00 -0.02    0.30  0.08  0.00   
      3   C               -0.00 -0.00 -0.01   -0.00 -0.00  0.02   -0.07 -0.29  0.00   
      4   H               -0.10 -0.30 -0.18    0.42 -0.15  0.01   -0.32  0.24 -0.01   
      5   H                0.10  0.30 -0.18   -0.42  0.15  0.01   -0.32  0.24  0.01   
      6   H                0.22 -0.35  0.09    0.23  0.27  0.15    0.25  0.09 -0.03   
      7   H               -0.22  0.35  0.09   -0.23 -0.27  0.15    0.25  0.09  0.03   
      8   H                0.40  0.13  0.08   -0.01  0.35 -0.16   -0.17 -0.33 -0.02   
      9   H               -0.40 -0.13  0.08    0.01 -0.35 -0.16   -0.17 -0.33  0.02   

  Vibration                       10                  11                  12          
  Freq [cm^-1]                 876.7239            894.4183           1072.0107       
  Irrep                           Ap                 App                  Ap          
  Reduced mass [u]              3.9797              1.0442              1.2386        
  Force const [mDyne/A]         1.8023              0.4921              0.8387        
  Turning point v=0 [a0]        0.1858              0.3591              0.3011        
  RMS dev v=0 [a0 u^1/2]        0.2620              0.2594              0.2370        
  Char temp [K]               1261.4105           1286.8687           1542.3847       
  ----------------------------------------------------------------------------------
      1   C               -0.21 -0.22 -0.00    0.00  0.00 -0.03    0.05  0.00 -0.00   
      2   C               -0.08  0.28 -0.00    0.00 -0.00 -0.03    0.02 -0.11  0.00   
      3   C                0.29 -0.09 -0.00   -0.00 -0.00 -0.03   -0.07 -0.03 -0.00   
      4   H               -0.24 -0.16  0.03    0.13  0.33  0.20   -0.20  0.08 -0.01   
      5   H               -0.24 -0.16 -0.03   -0.13 -0.33  0.20   -0.20  0.08  0.01   
      6   H               -0.09  0.41  0.00    0.35  0.05  0.20   -0.08  0.56 -0.00   
      7   H               -0.09  0.41 -0.00   -0.35 -0.05  0.20   -0.08  0.56  0.00   
      8   H                0.32 -0.01 -0.03    0.22 -0.28  0.20    0.28  0.22  0.01   
      9   H                0.32 -0.01  0.03   -0.22  0.28  0.20    0.28  0.22 -0.01   

  Vibration                       13                  14                  15          
  Freq [cm^-1]                1075.0730           1103.1104           1167.7362       
  Irrep                           Ap                  Ap                 App          
  Reduced mass [u]              1.2408              1.4254              1.0078        
  Force const [mDyne/A]         0.8449              1.0219              0.8097        
  Turning point v=0 [a0]        0.3004              0.2767              0.3199        
  RMS dev v=0 [a0 u^1/2]        0.2366              0.2336              0.2271        
  Char temp [K]               1546.7907           1587.1302           1680.1124       
  ----------------------------------------------------------------------------------
      1   C               -0.10  0.05  0.00   -0.10  0.04  0.00    0.00  0.00 -0.00   
      2   C                0.02  0.02  0.00    0.02 -0.11 -0.00   -0.00 -0.00  0.00   
      3   C               -0.06 -0.07  0.00    0.09  0.07  0.00    0.00 -0.00 -0.00   
      4   H                0.50 -0.20 -0.01    0.36 -0.14  0.00   -0.38  0.15  0.00   
      5   H                0.50 -0.20  0.01    0.36 -0.14 -0.00    0.38 -0.15  0.00   
      6   H                0.01 -0.07 -0.02   -0.06  0.40 -0.00   -0.06  0.40 -0.00   
      7   H                0.01 -0.07  0.02   -0.06  0.40  0.00    0.06 -0.40 -0.00   
      8   H                0.35  0.28 -0.01   -0.32 -0.25  0.00    0.32  0.25  0.00   
      9   H                0.35  0.28  0.01   -0.32 -0.25 -0.00   -0.32 -0.25  0.00   

  Vibration                       16                  17                  18          
  Freq [cm^-1]                1210.1457           1231.6035           1231.7254       
  Irrep                           Ap                 App                 App          
  Reduced mass [u]              2.8527              1.4518              1.4517        
  Force const [mDyne/A]         2.4614              1.2974              1.2976        
  Turning point v=0 [a0]        0.1868              0.2595              0.2595        
  RMS dev v=0 [a0 u^1/2]        0.2230              0.2211              0.2211        
  Char temp [K]               1741.1303           1772.0032           1772.1786       
  ----------------------------------------------------------------------------------
      1   C               -0.09 -0.22  0.00    0.00  0.00  0.16   -0.00  0.00 -0.02   
      2   C                0.23  0.03  0.00   -0.00  0.00 -0.07   -0.00 -0.00  0.15   
      3   C               -0.15  0.19 -0.00    0.00 -0.00 -0.10    0.00 -0.00 -0.13   
      4   H               -0.14 -0.34 -0.06   -0.11 -0.39 -0.09    0.37 -0.10  0.01   
      5   H               -0.14 -0.34  0.06    0.11  0.39 -0.09   -0.37  0.10  0.01   
      6   H                0.36  0.06  0.06    0.11  0.37  0.04   -0.39  0.10 -0.08   
      7   H                0.36  0.06 -0.06   -0.11 -0.37  0.04    0.39 -0.10 -0.08   
      8   H               -0.23  0.28 -0.06   -0.10 -0.38  0.05    0.38 -0.12  0.07   
      9   H               -0.23  0.28  0.06    0.10  0.38  0.05   -0.38  0.12  0.07   

  Vibration                       19                  20                  21          
  Freq [cm^-1]                1495.0090           1495.3121           1542.2688       
  Irrep                           Ap                  Ap                  Ap          
  Reduced mass [u]              1.0885              1.0890              1.2896        
  Force const [mDyne/A]         1.4334              1.4347              1.8073        
  Turning point v=0 [a0]        0.2720              0.2719              0.2460        
  RMS dev v=0 [a0 u^1/2]        0.2007              0.2006              0.1976        
  Char temp [K]               2150.9851           2151.4213           2218.9815       
  ----------------------------------------------------------------------------------
      1   C               -0.01  0.01  0.00   -0.03 -0.06  0.00   -0.03 -0.09  0.00   
      2   C               -0.06 -0.00  0.00   -0.04 -0.02 -0.00    0.09  0.01 -0.00   
      3   C               -0.04  0.05 -0.00    0.01 -0.03  0.00   -0.06  0.07  0.00   
      4   H               -0.01 -0.06 -0.04    0.17  0.43  0.33    0.12  0.29  0.25   
      5   H               -0.01 -0.06  0.04    0.17  0.43 -0.33    0.12  0.29 -0.25   
      6   H                0.37  0.05  0.26    0.28  0.05  0.20   -0.31 -0.05 -0.25   
      7   H                0.37  0.05 -0.26    0.28  0.05 -0.20   -0.31 -0.05  0.25   
      8   H                0.28 -0.34  0.31   -0.10  0.15 -0.13    0.19 -0.24  0.25   
      9   H                0.28 -0.34 -0.31   -0.10  0.15  0.13    0.19 -0.24 -0.25   

  Vibration                       22                  23                  24          
  Freq [cm^-1]                3089.0743           3089.3133           3097.0478       
  Irrep                           Ap                  Ap                  Ap          
  Reduced mass [u]              1.0498              1.0499              1.0617        
  Force const [mDyne/A]         5.9024              5.9039              6.0001        
  Turning point v=0 [a0]        0.1927              0.1927              0.1914        
  RMS dev v=0 [a0 u^1/2]        0.1396              0.1396              0.1394        
  Char temp [K]               4444.4901           4444.8340           4455.9622       
  ----------------------------------------------------------------------------------
      1   C                0.01  0.02  0.00    0.02  0.04  0.00   -0.01 -0.04 -0.00   
      2   C                0.05  0.01  0.00    0.01  0.00  0.00    0.04  0.01  0.00   
      3   C                0.02 -0.02 -0.00   -0.03  0.03 -0.00   -0.02  0.03 -0.00   
      4   H               -0.05 -0.11  0.20   -0.10 -0.26  0.45    0.08  0.19 -0.34   
      5   H               -0.05 -0.11 -0.20   -0.10 -0.26 -0.45    0.08  0.19  0.34   
      6   H               -0.29 -0.04  0.48   -0.03 -0.01  0.06   -0.21 -0.03  0.36   
      7   H               -0.29 -0.04 -0.48   -0.03 -0.01 -0.06   -0.21 -0.03 -0.36   
      8   H               -0.11  0.14  0.30    0.15 -0.19 -0.39    0.13 -0.16 -0.35   
      9   H               -0.11  0.14 -0.30    0.15 -0.19  0.39    0.13 -0.16  0.35   

  Vibration                       25                  26                  27          
  Freq [cm^-1]                3163.5087           3163.5322           3185.1084       
  Irrep                          App                 App                 App          
  Reduced mass [u]              1.1202              1.1202              1.1160        
  Force const [mDyne/A]         6.6051              6.6052              6.6707        
  Turning point v=0 [a0]        0.1843              0.1843              0.1840        
  RMS dev v=0 [a0 u^1/2]        0.1379              0.1379              0.1375        
  Char temp [K]               4551.5847           4551.6185           4582.6618       
  ----------------------------------------------------------------------------------
      1   C               -0.00 -0.00  0.05   -0.00 -0.00  0.06    0.00  0.00 -0.06   
      2   C                0.00  0.00 -0.08   -0.00 -0.00  0.02   -0.00  0.00 -0.06   
      3   C               -0.00  0.00  0.03    0.00 -0.00 -0.08   -0.00  0.00 -0.06   
      4   H                0.07  0.19 -0.32    0.09  0.21 -0.36   -0.08 -0.21  0.34   
      5   H               -0.07 -0.19 -0.32   -0.09 -0.21 -0.36    0.08  0.21  0.34   
      6   H               -0.30 -0.04  0.48    0.06  0.01 -0.10   -0.22 -0.03  0.34   
      7   H                0.30  0.04  0.48   -0.06 -0.01 -0.10    0.22  0.03  0.34   
      8   H                0.06 -0.08 -0.15   -0.18  0.23  0.46   -0.14  0.17  0.34   
      9   H               -0.06  0.08 -0.15    0.18 -0.23  0.46    0.14 -0.17  0.34   

  ==> Thermochemistry Components <==

  Entropy, S
    Electronic S            0.000 [cal/(mol K)]        0.000 [J/(mol K)]       0.00000000 [mEh/K] (multiplicity = 1)
    Translational S        37.135 [cal/(mol K)]      155.375 [J/(mol K)]       0.05917914 [mEh/K] (mol. weight = 42.0470 [u], P = 101325.00 [Pa])
    Rotational S           21.699 [cal/(mol K)]       90.789 [J/(mol K)]       0.03457982 [mEh/K] (symmetry no. = 1)
    Vibrational S           1.298 [cal/(mol K)]        5.429 [J/(mol K)]       0.00206779 [mEh/K]
  Total S                  60.132 [cal/(mol K)]      251.593 [J/(mol K)]       0.09582675 [mEh/K]
  Correction S              0.000 [cal/(mol K)]        0.000 [J/(mol K)]       0.00000000 [mEh/K]

  Constant volume heat capacity, Cv
    Electronic Cv           0.000 [cal/(mol K)]        0.000 [J/(mol K)]       0.00000000 [mEh/K]
    Translational Cv        2.981 [cal/(mol K)]       12.472 [J/(mol K)]       0.00475022 [mEh/K]
    Rotational Cv           2.981 [cal/(mol K)]       12.472 [J/(mol K)]       0.00475022 [mEh/K]
    Vibrational Cv          4.851 [cal/(mol K)]       20.297 [J/(mol K)]       0.00773060 [mEh/K]
  Total Cv                 10.813 [cal/(mol K)]       45.240 [J/(mol K)]       0.01723104 [mEh/K]
  Correction Cv             0.000 [cal/(mol K)]        0.000 [J/(mol K)]       0.00000000 [mEh/K]

  Constant pressure heat capacity, Cp
    Electronic Cp           0.000 [cal/(mol K)]        0.000 [J/(mol K)]       0.00000000 [mEh/K]
    Translational Cp        4.968 [cal/(mol K)]       20.786 [J/(mol K)]       0.00791703 [mEh/K]
    Rotational Cp           2.981 [cal/(mol K)]       12.472 [J/(mol K)]       0.00475022 [mEh/K]
    Vibrational Cp          4.851 [cal/(mol K)]       20.297 [J/(mol K)]       0.00773060 [mEh/K]
  Total Cp                 12.800 [cal/(mol K)]       53.555 [J/(mol K)]       0.02039785 [mEh/K]
  Correction Cp             0.000 [cal/(mol K)]        0.000 [J/(mol K)]       0.00000000 [mEh/K]

  ==> Thermochemistry Energy Analysis <==

  Raw electronic energy, E0
  Total E0, Electronic energy at well bottom at 0 [K]                 -117.90033023 [Eh]

  Zero-point energy, ZPE_vib = Sum_i nu_i / 2
    Electronic ZPE          0.000 [kcal/mol]        0.000 [kJ/mol]       0.00000000 [Eh]
    Translational ZPE       0.000 [kcal/mol]        0.000 [kJ/mol]       0.00000000 [Eh]
    Rotational ZPE          0.000 [kcal/mol]        0.000 [kJ/mol]       0.00000000 [Eh]
    Vibrational ZPE        50.910 [kcal/mol]      213.007 [kJ/mol]       0.08113017 [Eh]       17806.013 [cm^-1]
  Correction ZPE           50.910 [kcal/mol]      213.007 [kJ/mol]       0.08113017 [Eh]       17806.013 [cm^-1]
  Total ZPE, Electronic energy at 0 [K]                               -117.81920007 [Eh]

  Thermal Energy, E (includes ZPE)
    Electronic E            0.000 [kcal/mol]        0.000 [kJ/mol]       0.00000000 [Eh]
    Translational E         0.889 [kcal/mol]        3.718 [kJ/mol]       0.00141628 [Eh]
    Rotational E            0.889 [kcal/mol]        3.718 [kJ/mol]       0.00141628 [Eh]
    Vibrational E          51.225 [kcal/mol]      214.327 [kJ/mol]       0.08163296 [Eh]
  Correction E             53.003 [kcal/mol]      221.764 [kJ/mol]       0.08446551 [Eh]
  Total E, Electronic energy at  298.15 [K]                           -117.81586472 [Eh]

  Enthalpy, H_trans = E_trans + k_B * T
    Electronic H            0.000 [kcal/mol]        0.000 [kJ/mol]       0.00000000 [Eh]
    Translational H         1.481 [kcal/mol]        6.197 [kJ/mol]       0.00236046 [Eh]
    Rotational H            0.889 [kcal/mol]        3.718 [kJ/mol]       0.00141628 [Eh]
    Vibrational H          51.225 [kcal/mol]      214.327 [kJ/mol]       0.08163296 [Eh]
  Correction H             53.595 [kcal/mol]      224.243 [kJ/mol]       0.08540969 [Eh]
  Total H, Enthalpy at  298.15 [K]                                    -117.81492054 [Eh]

  Gibbs free energy, G = H - T * S
    Electronic G            0.000 [kcal/mol]        0.000 [kJ/mol]       0.00000000 [Eh]
    Translational G        -9.591 [kcal/mol]      -40.128 [kJ/mol]      -0.01528380 [Eh]
    Rotational G           -5.581 [kcal/mol]      -23.350 [kJ/mol]      -0.00889370 [Eh]
    Vibrational G          50.839 [kcal/mol]      212.709 [kJ/mol]       0.08101644 [Eh]
  Correction G             35.667 [kcal/mol]      149.231 [kJ/mol]       0.05683895 [Eh]
  Total G, Free enthalpy at  298.15 [K]                               -117.84349128 [Eh]

    Psi4 stopped on: Tuesday, 19 April 2022 02:29PM
    Psi4 wall time for execution: 0:03:21.67

*** Psi4 exiting successfully. Buy a developer a beer!
