
    -----------------------------------------------------------------------
          Psi4: An Open-Source Ab Initio Electronic Structure Package
                               Psi4 1.3.2 release

                         Git: Rev {HEAD} ecbda83 


    R. M. Parrish, L. A. Burns, D. G. A. Smith, A. C. Simmonett,
    A. E. DePrince III, E. G. Hohenstein, U. Bozkaya, A. Yu. Sokolov,
    R. Di Remigio, R. M. Richard, J. F. Gonthier, A. M. James,
    H. R. McAlexander, A. Kumar, M. Saitow, X. Wang, B. P. Pritchard,
    P. Verma, H. F. Schaefer III, K. Patkowski, R. A. King, E. F. Valeev,
    F. A. Evangelista, J. M. Turney, T. D. Crawford, and C. D. Sherrill,
    J. Chem. Theory Comput. 13(7) pp 3185--3197 (2017).
    (doi: 10.1021/acs.jctc.7b00174)


                         Additional Contributions by
    P. Kraus, H. Kruse, M. H. Lechner, M. C. Schieber, R. A. Shaw,
    A. Alenaizan, R. Galvelis, Z. L. Glick, S. Lehtola, and J. P. Misiewicz

    -----------------------------------------------------------------------


    Psi4 started on: Tuesday, 19 April 2022 02:23AM

    Process ID: 26081
    Host:       atlantis
    PSIDATADIR: /home/akrom/software/anaconda3/envs/ffpenv/share/psi4
    Memory:     500.0 MiB
    Threads:    1
    
  ==> Input File <==

--------------------------------------------------------------------------
set basis  aug-cc-pVTZ
molecule {
0 1
   C        0.32153        0.81326        0.00000
   C       -0.86505       -0.12817        0.00000
   C        0.54353       -0.68508        0.00000
   H        0.53795        1.36069       -0.92039
   H        0.53795        1.36069        0.92039
   H       -1.44742       -0.21449        0.92034
   H       -1.44742       -0.21449       -0.92034
   H        0.90937       -1.14629       -0.92037
   H        0.90937       -1.14629        0.92037
}
energy('MP2')
frequencies('MP2')
--------------------------------------------------------------------------
    SCF Algorithm Type (re)set to DF.

*** tstart() called on atlantis
*** at Tue Apr 19 02:23:23 2022

   => Loading Basis Set <=

    Name: AUG-CC-PVTZ
    Role: ORBITAL
    Keyword: BASIS
    atoms 1-3 entry C          line   235 file /home/akrom/software/anaconda3/envs/ffpenv/share/psi4/basis/aug-cc-pvtz.gbs 
    atoms 4-9 entry H          line    36 file /home/akrom/software/anaconda3/envs/ffpenv/share/psi4/basis/aug-cc-pvtz.gbs 


         ---------------------------------------------------------
                                   SCF
               by Justin Turney, Rob Parrish, Andy Simmonett
                          and Daniel G. A. Smith
                              RHF Reference
                        1 Threads,    500 MiB Core
         ---------------------------------------------------------

  ==> Geometry <==

    Molecular point group: cs
    Full point group: Cs

    Geometry (in Angstrom), charge = 0, multiplicity = 1:

       Center              X                  Y                   Z               Mass       
    ------------   -----------------  -----------------  -----------------  -----------------
         C            0.321531939855     0.813261460475     0.000000000000    12.000000000000
         C           -0.865048060145    -0.128168539525     0.000000000000    12.000000000000
         C            0.543531939855    -0.685078539525     0.000000000000    12.000000000000
         H            0.537951939855     1.360691460475    -0.920390000000     1.007825032230
         H            0.537951939855     1.360691460475     0.920390000000     1.007825032230
         H           -1.447418060145    -0.214488539525     0.920340000000     1.007825032230
         H           -1.447418060145    -0.214488539525    -0.920340000000     1.007825032230
         H            0.909371939855    -1.146288539525    -0.920370000000     1.007825032230
         H            0.909371939855    -1.146288539525     0.920370000000     1.007825032230

  Running in cs symmetry.

  Rotational constants: A =      0.66472  B =      0.66470  C =      0.41647 [cm^-1]
  Rotational constants: A =  19927.70596  B =  19927.20236  C =  12485.44714 [MHz]
  Nuclear repulsion =   75.281464809014025

  Charge       = 0
  Multiplicity = 1
  Electrons    = 24
  Nalpha       = 12
  Nbeta        = 12

  ==> Algorithm <==

  SCF Algorithm Type is DF.
  DIIS enabled.
  MOM disabled.
  Fractional occupation disabled.
  Guess Type is SAD.
  Energy threshold   = 1.00e-08
  Density threshold  = 1.00e-08
  Integral threshold = 0.00e+00

  ==> Primary Basis <==

  Basis Set: AUG-CC-PVTZ
    Blend: AUG-CC-PVTZ
    Number of shells: 96
    Number of basis function: 276
    Number of Cartesian functions: 315
    Spherical Harmonics?: true
    Max angular momentum: 3

   => Loading Basis Set <=

    Name: (AUG-CC-PVTZ AUX)
    Role: JKFIT
    Keyword: DF_BASIS_SCF
    atoms 1-3 entry C          line   162 file /home/akrom/software/anaconda3/envs/ffpenv/share/psi4/basis/aug-cc-pvtz-jkfit.gbs 
    atoms 4-9 entry H          line    70 file /home/akrom/software/anaconda3/envs/ffpenv/share/psi4/basis/aug-cc-pvtz-jkfit.gbs 

  ==> Pre-Iterations <==

   -------------------------------------------------------
    Irrep   Nso     Nmo     Nalpha   Nbeta   Ndocc  Nsocc
   -------------------------------------------------------
     A'       159     159       0       0       0       0
     A"       117     117       0       0       0       0
   -------------------------------------------------------
    Total     276     276      12      12      12       0
   -------------------------------------------------------

  ==> Integral Setup <==

  DFHelper Memory: AOs need 0.352 GiB; user supplied 0.366 GiB. Using in-core AOs.

  ==> MemDFJK: Density-Fitted J/K Matrices <==

    J tasked:                   Yes
    K tasked:                   Yes
    wK tasked:                   No
    OpenMP threads:               1
    Memory [MiB]:               375
    Algorithm:                 Core
    Schwarz Cutoff:           1E-12
    Mask sparsity (%):       0.0000
    Fitting Condition:        1E-10

   => Auxiliary Basis Set <=

  Basis Set: (AUG-CC-PVTZ AUX)
    Blend: AUG-CC-PVTZ-JKFIT
    Number of shells: 174
    Number of basis function: 588
    Number of Cartesian functions: 723
    Spherical Harmonics?: true
    Max angular momentum: 4

  Minimum eigenvalue in the overlap matrix is 1.6775936804E-05.
  Using Symmetric Orthogonalization.

  SCF Guess: Superposition of Atomic Densities via on-the-fly atomic UHF.

  ==> Iterations <==

                           Total Energy        Delta E     RMS |[F,P]|

   @DF-RHF iter SAD:  -116.63825761173405   -1.16638e+02   0.00000e+00 
   @DF-RHF iter   1:  -116.97228224781502   -3.34025e-01   2.36326e-03 DIIS
   @DF-RHF iter   2:  -117.07068785226095   -9.84056e-02   1.20228e-03 DIIS
   @DF-RHF iter   3:  -117.09885193790538   -2.81641e-02   1.77075e-04 DIIS
   @DF-RHF iter   4:  -117.10006241879684   -1.21048e-03   2.41270e-05 DIIS
   @DF-RHF iter   5:  -117.10009568865709   -3.32699e-05   5.70773e-06 DIIS
   @DF-RHF iter   6:  -117.10009766218013   -1.97352e-06   9.93098e-07 DIIS
   @DF-RHF iter   7:  -117.10009772942450   -6.72444e-08   1.57084e-07 DIIS
   @DF-RHF iter   8:  -117.10009773087330   -1.44880e-09   1.91127e-08 DIIS
   @DF-RHF iter   9:  -117.10009773089266   -1.93552e-11   3.43042e-09 DIIS
  Energy and wave function converged.


  ==> Post-Iterations <==

    Orbital Energies [Eh]
    ---------------------

    Doubly Occupied:                                                      

       1Ap   -11.227512     2Ap   -11.226536     3Ap   -11.226531  
       4Ap    -1.124705     5Ap    -0.813984     6Ap    -0.813979  
       1App   -0.662781     7Ap    -0.621912     2App   -0.510215  
       3App   -0.510199     8Ap    -0.417243     9Ap    -0.417235  

    Virtual:                                                              

      10Ap     0.033134     4App    0.040405    11Ap     0.042026  
      12Ap     0.042026     5App    0.061726     6App    0.061728  
      13Ap     0.097999    14Ap     0.098262    15Ap     0.098263  
      16Ap     0.124942    17Ap     0.124945    18Ap     0.133147  
       7App    0.141768    19Ap     0.148368     8App    0.165648  
       9App    0.165651    20Ap     0.183917    21Ap     0.183920  
      22Ap     0.247723    10App    0.249935    11App    0.249937  
      12App    0.260030    23Ap     0.278890    24Ap     0.290251  
      25Ap     0.293337    26Ap     0.293339    27Ap     0.325653  
      28Ap     0.325660    13App    0.343065    14App    0.344642  
      29Ap     0.355373    30Ap     0.355374    15App    0.374611  
      16App    0.374617    17App    0.387785    18App    0.387789  
      31Ap     0.404556    19App    0.414012    32Ap     0.416095  
      33Ap     0.416099    34Ap     0.438012    35Ap     0.438018  
      36Ap     0.438109    37Ap     0.451730    20App    0.480969  
      21App    0.507736    22App    0.507740    38Ap     0.509663  
      39Ap     0.512741    23App    0.514292    24App    0.514297  
      40Ap     0.522487    41Ap     0.522495    42Ap     0.541986  
      43Ap     0.541991    44Ap     0.604898    45Ap     0.604908  
      25App    0.608707    26App    0.608732    46Ap     0.649264  
      27App    0.668408    28App    0.693857    47Ap     0.748856  
      48Ap     0.748860    29App    0.791090    30App    0.791097  
      31App    0.826803    49Ap     0.851287    50Ap     0.882258  
      51Ap     0.882258    52Ap     0.884105    32App    0.893643  
      33App    0.893646    53Ap     0.929780    54Ap     0.932436  
      55Ap     0.932448    56Ap     0.948323    57Ap     0.955281  
      58Ap     0.955286    34App    0.982327    35App    0.982335  
      36App    0.995278    37App    1.009046    59Ap     1.012074  
      60Ap     1.012094    38App    1.041870    61Ap     1.065412  
      62Ap     1.065418    39App    1.095283    40App    1.095286  
      41App    1.104195    42App    1.104196    63Ap     1.111847  
      64Ap     1.124699    65Ap     1.164834    66Ap     1.164848  
      67Ap     1.173879    68Ap     1.227248    69Ap     1.227251  
      43App    1.234932    44App    1.234943    70Ap     1.246921  
      45App    1.306518    46App    1.306526    47App    1.362369  
      48App    1.375102    49App    1.377191    71Ap     1.390631  
      72Ap     1.390661    50App    1.393560    51App    1.393568  
      73Ap     1.435672    74Ap     1.525602    75Ap     1.525615  
      76Ap     1.550183    77Ap     1.550191    52App    1.551452  
      53App    1.571428    54App    1.571460    78Ap     1.579990  
      79Ap     1.648184    80Ap     1.648186    81Ap     1.676815  
      55App    1.678412    56App    1.716617    82Ap     1.746461  
      83Ap     1.753433    84Ap     1.753441    57App    1.836066  
      58App    1.836080    59App    1.863409    60App    1.863426  
      85Ap     1.875414    86Ap     1.887476    87Ap     1.908135  
      88Ap     1.908143    61App    1.948259    89Ap     1.953646  
      90Ap     1.953672    62App    2.016652    63App    2.016659  
      91Ap     2.032364    92Ap     2.053638    93Ap     2.053646  
      94Ap     2.087275    64App    2.104336    65App    2.141781  
      95Ap     2.208593    96Ap     2.208641    66App    2.235738  
      67App    2.235812    68App    2.331522    69App    2.331554  
      70App    2.384815    97Ap     2.387078    98Ap     2.387113  
      71App    2.477849    72App    2.477871    99Ap     2.550256  
     100Ap     2.553277   101Ap     2.612767   102Ap     2.612834  
      73App    2.955654   103Ap     3.096109   104Ap     3.189948  
     105Ap     3.189997    74App    3.306647    75App    3.306691  
     106Ap     3.349981   107Ap     3.405901   108Ap     3.405953  
     109Ap     3.431896    76App    3.471661   110Ap     3.549098  
      77App    3.611016    78App    3.626218    79App    3.626242  
     111Ap     3.630888   112Ap     3.630902   113Ap     3.669049  
     114Ap     3.669074   115Ap     3.687289    80App    3.724625  
      81App    3.724661    82App    3.730761   116Ap     3.810608  
     117Ap     3.825750   118Ap     3.825769    83App    3.881910  
      84App    3.881928    85App    3.909624   119Ap     3.959553  
      86App    4.010709   120Ap     4.022519   121Ap     4.022534  
      87App    4.064888    88App    4.064915   122Ap     4.123318  
     123Ap     4.123346    89App    4.139407    90App    4.139428  
      91App    4.194684   124Ap     4.199527   125Ap     4.299634  
     126Ap     4.313824   127Ap     4.313841   128Ap     4.355757  
     129Ap     4.355782    92App    4.360740    93App    4.360800  
      94App    4.420030    95App    4.483189    96App    4.483202  
     130Ap     4.529039   131Ap     4.676884   132Ap     4.753223  
     133Ap     4.753242    97App    4.799291    98App    4.799303  
     134Ap     4.839061   135Ap     4.852638   136Ap     4.852695  
      99App    4.881157   100App    4.881191   137Ap     4.922680  
     138Ap     4.922688   101App    4.972373   139Ap     4.982708  
     140Ap     4.982747   102App    5.167749   103App    5.171310  
     141Ap     5.179708   142Ap     5.179724   143Ap     5.223197  
     144Ap     5.295144   104App    5.357554   105App    5.357594  
     145Ap     5.439897   146Ap     5.439947   106App    5.523372  
     107App    5.523398   108App    5.577858   147Ap     5.646508  
     148Ap     5.665545   149Ap     5.665594   150Ap     5.668994  
     109App    5.688718   110App    5.726066   111App    5.913291  
     112App    5.913328   151Ap     6.008482   152Ap     6.119791  
     153Ap     6.314476   154Ap     6.314508   155Ap     6.413122  
     156Ap     6.413171   113App    6.496629   114App    6.500653  
     115App    6.500772   116App    6.768226   117App    6.768272  
     157Ap    16.543141   158Ap    17.105397   159Ap    17.105680  

    Final Occupation by Irrep:
             Ap   App 
    DOCC [     9,    3 ]

  @DF-RHF Final Energy:  -117.10009773089266

   => Energetics <=

    Nuclear Repulsion Energy =             75.2814648090140253
    One-Electron Energy =                -305.6174573869014921
    Two-Electron Energy =                 113.2358948469947961
    Total Energy =                       -117.1000977308926565

Computation Completed


Properties will be evaluated at   0.000000,   0.000000,   0.000000 [a0]

Properties computed using the SCF density matrix

  Nuclear Dipole Moment: [e a0]
     X:    -0.0002      Y:    -0.0002      Z:     0.0000

  Electronic Dipole Moment: [e a0]
     X:     0.0002      Y:     0.0001      Z:     0.0000

  Dipole Moment: [e a0]
     X:    -0.0000      Y:    -0.0000      Z:     0.0000     Total:     0.0000

  Dipole Moment: [D]
     X:    -0.0001      Y:    -0.0001      Z:     0.0000     Total:     0.0001


*** tstop() called on atlantis at Tue Apr 19 02:23:27 2022
Module time:
	user time   =       3.29 seconds =       0.05 minutes
	system time =       0.09 seconds =       0.00 minutes
	total time  =          4 seconds =       0.07 minutes
Total time:
	user time   =       3.29 seconds =       0.05 minutes
	system time =       0.09 seconds =       0.00 minutes
	total time  =          4 seconds =       0.07 minutes

*** tstart() called on atlantis
*** at Tue Apr 19 02:23:27 2022


  //>>>>>>>>>>>>>>>>>>>>>>>>>>>>>>>>>>>//
  //               DFMP2               //
  //<<<<<<<<<<<<<<<<<<<<<<<<<<<<<<<<<<<//

   => Loading Basis Set <=

    Name: (AUG-CC-PVTZ AUX)
    Role: RIFIT
    Keyword: DF_BASIS_MP2
    atoms 1-3 entry C          line   148 file /home/akrom/software/anaconda3/envs/ffpenv/share/psi4/basis/aug-cc-pvtz-ri.gbs 
    atoms 4-9 entry H          line    30 file /home/akrom/software/anaconda3/envs/ffpenv/share/psi4/basis/aug-cc-pvtz-ri.gbs 

	 --------------------------------------------------------
	                          DF-MP2                         
	      2nd-Order Density-Fitted Moller-Plesset Theory     
	              RMP2 Wavefunction,   1 Threads             
	                                                         
	        Rob Parrish, Justin Turney, Andy Simmonett,      
	           Ed Hohenstein, and C. David Sherrill          
	 --------------------------------------------------------

   => Auxiliary Basis Set <=

  Basis Set: (AUG-CC-PVTZ AUX)
    Blend: AUG-CC-PVTZ-RI
    Number of shells: 168
    Number of basis function: 594
    Number of Cartesian functions: 738
    Spherical Harmonics?: true
    Max angular momentum: 4

	 --------------------------------------------------------
	                 NBF =   276, NAUX =   594
	 --------------------------------------------------------
	   CLASS    FOCC     OCC    AOCC    AVIR     VIR    FVIR
	   PAIRS       0      12      12     264     264       0
	 --------------------------------------------------------

	-----------------------------------------------------------
	 ==================> DF-MP2 Energies <==================== 
	-----------------------------------------------------------
	 Reference Energy          =    -117.1000977308926565 [Eh]
	 Singles Energy            =      -0.0000000000000000 [Eh]
	 Same-Spin Energy          =      -0.1241003955007585 [Eh]
	 Opposite-Spin Energy      =      -0.4551472392110460 [Eh]
	 Correlation Energy        =      -0.5792476347118045 [Eh]
	 Total Energy              =    -117.6793453656044619 [Eh]
	-----------------------------------------------------------
	 ================> DF-SCS-MP2 Energies <================== 
	-----------------------------------------------------------
	 SCS Same-Spin Scale       =       0.3333333333333333 [-]
	 SCS Opposite-Spin Scale   =       1.2000000000000000 [-]
	 SCS Same-Spin Energy      =      -0.0413667985002528 [Eh]
	 SCS Opposite-Spin Energy  =      -0.5461766870532552 [Eh]
	 SCS Correlation Energy    =      -0.5875434855535080 [Eh]
	 SCS Total Energy          =    -117.6876412164461669 [Eh]
	-----------------------------------------------------------


*** tstop() called on atlantis at Tue Apr 19 02:23:28 2022
Module time:
	user time   =       1.22 seconds =       0.02 minutes
	system time =       0.10 seconds =       0.00 minutes
	total time  =          1 seconds =       0.02 minutes
Total time:
	user time   =       4.51 seconds =       0.08 minutes
	system time =       0.19 seconds =       0.00 minutes
	total time  =          5 seconds =       0.08 minutes
gradient() will perform analytic gradient computation.
    SCF Algorithm Type (re)set to DF.

*** tstart() called on atlantis
*** at Tue Apr 19 02:23:28 2022

   => Loading Basis Set <=

    Name: AUG-CC-PVTZ
    Role: ORBITAL
    Keyword: BASIS
    atoms 1-3 entry C          line   235 file /home/akrom/software/anaconda3/envs/ffpenv/share/psi4/basis/aug-cc-pvtz.gbs 
    atoms 4-9 entry H          line    36 file /home/akrom/software/anaconda3/envs/ffpenv/share/psi4/basis/aug-cc-pvtz.gbs 


         ---------------------------------------------------------
                                   SCF
               by Justin Turney, Rob Parrish, Andy Simmonett
                          and Daniel G. A. Smith
                              RHF Reference
                        1 Threads,    500 MiB Core
         ---------------------------------------------------------

  ==> Geometry <==

    Molecular point group: cs
    Full point group: Cs

    Geometry (in Angstrom), charge = 0, multiplicity = 1:

       Center              X                  Y                   Z               Mass       
    ------------   -----------------  -----------------  -----------------  -----------------
         C            0.321531939855     0.813261460475     0.000000000000    12.000000000000
         C           -0.865048060145    -0.128168539525     0.000000000000    12.000000000000
         C            0.543531939855    -0.685078539525     0.000000000000    12.000000000000
         H            0.537951939855     1.360691460475    -0.920390000000     1.007825032230
         H            0.537951939855     1.360691460475     0.920390000000     1.007825032230
         H           -1.447418060145    -0.214488539525     0.920340000000     1.007825032230
         H           -1.447418060145    -0.214488539525    -0.920340000000     1.007825032230
         H            0.909371939855    -1.146288539525    -0.920370000000     1.007825032230
         H            0.909371939855    -1.146288539525     0.920370000000     1.007825032230

  Running in cs symmetry.

  Rotational constants: A =      0.66472  B =      0.66470  C =      0.41647 [cm^-1]
  Rotational constants: A =  19927.70596  B =  19927.20236  C =  12485.44714 [MHz]
  Nuclear repulsion =   75.281464809014025

  Charge       = 0
  Multiplicity = 1
  Electrons    = 24
  Nalpha       = 12
  Nbeta        = 12

  ==> Algorithm <==

  SCF Algorithm Type is DF.
  DIIS enabled.
  MOM disabled.
  Fractional occupation disabled.
  Guess Type is SAD.
  Energy threshold   = 1.00e-10
  Density threshold  = 1.00e-10
  Integral threshold = 0.00e+00

  ==> Primary Basis <==

  Basis Set: AUG-CC-PVTZ
    Blend: AUG-CC-PVTZ
    Number of shells: 96
    Number of basis function: 276
    Number of Cartesian functions: 315
    Spherical Harmonics?: true
    Max angular momentum: 3

   => Loading Basis Set <=

    Name: (AUG-CC-PVTZ AUX)
    Role: JKFIT
    Keyword: DF_BASIS_SCF
    atoms 1-3 entry C          line   162 file /home/akrom/software/anaconda3/envs/ffpenv/share/psi4/basis/aug-cc-pvtz-jkfit.gbs 
    atoms 4-9 entry H          line    70 file /home/akrom/software/anaconda3/envs/ffpenv/share/psi4/basis/aug-cc-pvtz-jkfit.gbs 

  ==> Pre-Iterations <==

   -------------------------------------------------------
    Irrep   Nso     Nmo     Nalpha   Nbeta   Ndocc  Nsocc
   -------------------------------------------------------
     A'       159     159       0       0       0       0
     A"       117     117       0       0       0       0
   -------------------------------------------------------
    Total     276     276      12      12      12       0
   -------------------------------------------------------

  ==> Integral Setup <==

  DFHelper Memory: AOs need 0.352 GiB; user supplied 0.366 GiB. Using in-core AOs.

  ==> MemDFJK: Density-Fitted J/K Matrices <==

    J tasked:                   Yes
    K tasked:                   Yes
    wK tasked:                   No
    OpenMP threads:               1
    Memory [MiB]:               375
    Algorithm:                 Core
    Schwarz Cutoff:           1E-12
    Mask sparsity (%):       0.0000
    Fitting Condition:        1E-10

   => Auxiliary Basis Set <=

  Basis Set: (AUG-CC-PVTZ AUX)
    Blend: AUG-CC-PVTZ-JKFIT
    Number of shells: 174
    Number of basis function: 588
    Number of Cartesian functions: 723
    Spherical Harmonics?: true
    Max angular momentum: 4

  Minimum eigenvalue in the overlap matrix is 1.6775936804E-05.
  Using Symmetric Orthogonalization.

  SCF Guess: Superposition of Atomic Densities via on-the-fly atomic UHF.

  ==> Iterations <==

                           Total Energy        Delta E     RMS |[F,P]|

   @DF-RHF iter SAD:  -116.63825761170119   -1.16638e+02   0.00000e+00 
   @DF-RHF iter   1:  -116.97228224778000   -3.34025e-01   2.36326e-03 DIIS
   @DF-RHF iter   2:  -117.07068785222660   -9.84056e-02   1.20228e-03 DIIS
   @DF-RHF iter   3:  -117.09885193787083   -2.81641e-02   1.77075e-04 DIIS
   @DF-RHF iter   4:  -117.10006241876243   -1.21048e-03   2.41270e-05 DIIS
   @DF-RHF iter   5:  -117.10009568862158   -3.32699e-05   5.70773e-06 DIIS
   @DF-RHF iter   6:  -117.10009766214387   -1.97352e-06   9.93098e-07 DIIS
   @DF-RHF iter   7:  -117.10009772938926   -6.72454e-08   1.57084e-07 DIIS
   @DF-RHF iter   8:  -117.10009773083843   -1.44917e-09   1.91127e-08 DIIS
   @DF-RHF iter   9:  -117.10009773085719   -1.87583e-11   3.43042e-09 DIIS
   @DF-RHF iter  10:  -117.10009773085822   -1.03739e-12   5.93511e-10 DIIS
   @DF-RHF iter  11:  -117.10009773085811    1.13687e-13   1.89215e-10 DIIS
   @DF-RHF iter  12:  -117.10009773085862   -5.11591e-13   2.48786e-11 DIIS
  Energy and wave function converged.


  ==> Post-Iterations <==

    Orbital Energies [Eh]
    ---------------------

    Doubly Occupied:                                                      

       1Ap   -11.227512     2Ap   -11.226536     3Ap   -11.226531  
       4Ap    -1.124705     5Ap    -0.813984     6Ap    -0.813979  
       1App   -0.662781     7Ap    -0.621912     2App   -0.510215  
       3App   -0.510199     8Ap    -0.417243     9Ap    -0.417235  

    Virtual:                                                              

      10Ap     0.033134     4App    0.040405    11Ap     0.042026  
      12Ap     0.042026     5App    0.061726     6App    0.061728  
      13Ap     0.097999    14Ap     0.098262    15Ap     0.098263  
      16Ap     0.124942    17Ap     0.124945    18Ap     0.133147  
       7App    0.141768    19Ap     0.148368     8App    0.165648  
       9App    0.165651    20Ap     0.183917    21Ap     0.183920  
      22Ap     0.247723    10App    0.249935    11App    0.249937  
      12App    0.260030    23Ap     0.278890    24Ap     0.290251  
      25Ap     0.293337    26Ap     0.293339    27Ap     0.325654  
      28Ap     0.325660    13App    0.343065    14App    0.344642  
      29Ap     0.355373    30Ap     0.355374    15App    0.374611  
      16App    0.374617    17App    0.387785    18App    0.387789  
      31Ap     0.404556    19App    0.414012    32Ap     0.416095  
      33Ap     0.416099    34Ap     0.438012    35Ap     0.438018  
      36Ap     0.438109    37Ap     0.451730    20App    0.480969  
      21App    0.507736    22App    0.507740    38Ap     0.509663  
      39Ap     0.512741    23App    0.514292    24App    0.514297  
      40Ap     0.522487    41Ap     0.522495    42Ap     0.541986  
      43Ap     0.541991    44Ap     0.604898    45Ap     0.604908  
      25App    0.608708    26App    0.608732    46Ap     0.649264  
      27App    0.668408    28App    0.693857    47Ap     0.748856  
      48Ap     0.748860    29App    0.791090    30App    0.791097  
      31App    0.826803    49Ap     0.851287    50Ap     0.882258  
      51Ap     0.882258    52Ap     0.884105    32App    0.893643  
      33App    0.893646    53Ap     0.929780    54Ap     0.932436  
      55Ap     0.932448    56Ap     0.948323    57Ap     0.955281  
      58Ap     0.955286    34App    0.982327    35App    0.982335  
      36App    0.995278    37App    1.009046    59Ap     1.012074  
      60Ap     1.012094    38App    1.041870    61Ap     1.065412  
      62Ap     1.065418    39App    1.095283    40App    1.095286  
      41App    1.104195    42App    1.104196    63Ap     1.111847  
      64Ap     1.124699    65Ap     1.164834    66Ap     1.164848  
      67Ap     1.173879    68Ap     1.227248    69Ap     1.227251  
      43App    1.234932    44App    1.234943    70Ap     1.246921  
      45App    1.306518    46App    1.306526    47App    1.362369  
      48App    1.375102    49App    1.377191    71Ap     1.390631  
      72Ap     1.390661    50App    1.393560    51App    1.393568  
      73Ap     1.435672    74Ap     1.525602    75Ap     1.525615  
      76Ap     1.550183    77Ap     1.550191    52App    1.551452  
      53App    1.571428    54App    1.571460    78Ap     1.579990  
      79Ap     1.648184    80Ap     1.648186    81Ap     1.676815  
      55App    1.678412    56App    1.716617    82Ap     1.746461  
      83Ap     1.753433    84Ap     1.753441    57App    1.836066  
      58App    1.836080    59App    1.863409    60App    1.863426  
      85Ap     1.875414    86Ap     1.887476    87Ap     1.908135  
      88Ap     1.908143    61App    1.948259    89Ap     1.953646  
      90Ap     1.953672    62App    2.016652    63App    2.016659  
      91Ap     2.032364    92Ap     2.053638    93Ap     2.053646  
      94Ap     2.087275    64App    2.104336    65App    2.141781  
      95Ap     2.208593    96Ap     2.208641    66App    2.235738  
      67App    2.235812    68App    2.331522    69App    2.331554  
      70App    2.384815    97Ap     2.387078    98Ap     2.387113  
      71App    2.477849    72App    2.477871    99Ap     2.550256  
     100Ap     2.553277   101Ap     2.612767   102Ap     2.612834  
      73App    2.955654   103Ap     3.096109   104Ap     3.189948  
     105Ap     3.189997    74App    3.306647    75App    3.306691  
     106Ap     3.349981   107Ap     3.405901   108Ap     3.405954  
     109Ap     3.431896    76App    3.471661   110Ap     3.549098  
      77App    3.611016    78App    3.626218    79App    3.626242  
     111Ap     3.630888   112Ap     3.630902   113Ap     3.669049  
     114Ap     3.669074   115Ap     3.687289    80App    3.724625  
      81App    3.724661    82App    3.730761   116Ap     3.810608  
     117Ap     3.825750   118Ap     3.825769    83App    3.881910  
      84App    3.881928    85App    3.909624   119Ap     3.959553  
      86App    4.010709   120Ap     4.022519   121Ap     4.022534  
      87App    4.064888    88App    4.064915   122Ap     4.123318  
     123Ap     4.123346    89App    4.139407    90App    4.139428  
      91App    4.194684   124Ap     4.199527   125Ap     4.299634  
     126Ap     4.313824   127Ap     4.313841   128Ap     4.355757  
     129Ap     4.355782    92App    4.360740    93App    4.360800  
      94App    4.420030    95App    4.483189    96App    4.483202  
     130Ap     4.529039   131Ap     4.676884   132Ap     4.753223  
     133Ap     4.753242    97App    4.799291    98App    4.799303  
     134Ap     4.839061   135Ap     4.852638   136Ap     4.852695  
      99App    4.881157   100App    4.881191   137Ap     4.922680  
     138Ap     4.922688   101App    4.972373   139Ap     4.982708  
     140Ap     4.982747   102App    5.167749   103App    5.171310  
     141Ap     5.179708   142Ap     5.179724   143Ap     5.223197  
     144Ap     5.295144   104App    5.357554   105App    5.357594  
     145Ap     5.439897   146Ap     5.439947   106App    5.523372  
     107App    5.523398   108App    5.577858   147Ap     5.646508  
     148Ap     5.665545   149Ap     5.665594   150Ap     5.668994  
     109App    5.688718   110App    5.726066   111App    5.913291  
     112App    5.913328   151Ap     6.008482   152Ap     6.119791  
     153Ap     6.314476   154Ap     6.314508   155Ap     6.413122  
     156Ap     6.413171   113App    6.496629   114App    6.500653  
     115App    6.500772   116App    6.768226   117App    6.768272  
     157Ap    16.543141   158Ap    17.105397   159Ap    17.105680  

    Final Occupation by Irrep:
             Ap   App 
    DOCC [     9,    3 ]

  @DF-RHF Final Energy:  -117.10009773085862

   => Energetics <=

    Nuclear Repulsion Energy =             75.2814648090140253
    One-Electron Energy =                -305.6174587050575155
    Two-Electron Energy =                 113.2358961651848546
    Total Energy =                       -117.1000977308586215

Computation Completed


Properties will be evaluated at   0.000000,   0.000000,   0.000000 [a0]

Properties computed using the SCF density matrix

  Nuclear Dipole Moment: [e a0]
     X:    -0.0002      Y:    -0.0002      Z:     0.0000

  Electronic Dipole Moment: [e a0]
     X:     0.0002      Y:     0.0001      Z:     0.0000

  Dipole Moment: [e a0]
     X:    -0.0000      Y:    -0.0000      Z:     0.0000     Total:     0.0000

  Dipole Moment: [D]
     X:    -0.0001      Y:    -0.0001      Z:     0.0000     Total:     0.0001


*** tstop() called on atlantis at Tue Apr 19 02:23:32 2022
Module time:
	user time   =       3.58 seconds =       0.06 minutes
	system time =       0.09 seconds =       0.00 minutes
	total time  =          4 seconds =       0.07 minutes
Total time:
	user time   =       8.09 seconds =       0.13 minutes
	system time =       0.28 seconds =       0.00 minutes
	total time  =          9 seconds =       0.15 minutes

*** tstart() called on atlantis
*** at Tue Apr 19 02:23:32 2022


  //>>>>>>>>>>>>>>>>>>>>>>>>>>>>>>>>>>>//
  //               DFMP2               //
  //<<<<<<<<<<<<<<<<<<<<<<<<<<<<<<<<<<<//

   => Loading Basis Set <=

    Name: (AUG-CC-PVTZ AUX)
    Role: RIFIT
    Keyword: DF_BASIS_MP2
    atoms 1-3 entry C          line   148 file /home/akrom/software/anaconda3/envs/ffpenv/share/psi4/basis/aug-cc-pvtz-ri.gbs 
    atoms 4-9 entry H          line    30 file /home/akrom/software/anaconda3/envs/ffpenv/share/psi4/basis/aug-cc-pvtz-ri.gbs 

	 --------------------------------------------------------
	                          DF-MP2                         
	      2nd-Order Density-Fitted Moller-Plesset Theory     
	              RMP2 Wavefunction,   1 Threads             
	                                                         
	        Rob Parrish, Justin Turney, Andy Simmonett,      
	           Ed Hohenstein, and C. David Sherrill          
	 --------------------------------------------------------

   => Auxiliary Basis Set <=

  Basis Set: (AUG-CC-PVTZ AUX)
    Blend: AUG-CC-PVTZ-RI
    Number of shells: 168
    Number of basis function: 594
    Number of Cartesian functions: 738
    Spherical Harmonics?: true
    Max angular momentum: 4

	 --------------------------------------------------------
	                 NBF =   276, NAUX =   594
	 --------------------------------------------------------
	   CLASS    FOCC     OCC    AOCC    AVIR     VIR    FVIR
	   PAIRS       0      12      12     264     264       0
	 --------------------------------------------------------

  DFHelper Memory: AOs need 0.352 GiB; user supplied 0.366 GiB. Using in-core AOs.


         ------------------------------------------------------------
                                     CPHF                           
                                  Rob Parrish                       
         ------------------------------------------------------------

  ==> Geometry <==

    Molecular point group: cs
    Full point group: Cs

    Geometry (in Angstrom), charge = 0, multiplicity = 1:

       Center              X                  Y                   Z               Mass       
    ------------   -----------------  -----------------  -----------------  -----------------
         C            0.321531939855     0.813261460475     0.000000000000    12.000000000000
         C           -0.865048060145    -0.128168539525     0.000000000000    12.000000000000
         C            0.543531939855    -0.685078539525     0.000000000000    12.000000000000
         H            0.537951939855     1.360691460475    -0.920390000000     1.007825032230
         H            0.537951939855     1.360691460475     0.920390000000     1.007825032230
         H           -1.447418060145    -0.214488539525     0.920340000000     1.007825032230
         H           -1.447418060145    -0.214488539525    -0.920340000000     1.007825032230
         H            0.909371939855    -1.146288539525    -0.920370000000     1.007825032230
         H            0.909371939855    -1.146288539525     0.920370000000     1.007825032230

  Nuclear repulsion =   75.281464809014025
  Reference energy  = -117.100097730858622

  ==> Basis Set <==

  Basis Set: AUG-CC-PVTZ
    Blend: AUG-CC-PVTZ
    Number of shells: 96
    Number of basis function: 276
    Number of Cartesian functions: 315
    Spherical Harmonics?: true
    Max angular momentum: 3

  ==> CGRSolver (by Rob Parrish) <==

   Number of roots    =         1
   Preconditioning    =    JACOBI
   Convergence cutoff =     1E-06
   Maximum iterations =       100

  ==> CPHFRHamiltonian (by Rob Parrish) <== 

  ==> MemDFJK: Density-Fitted J/K Matrices <==

    J tasked:                   Yes
    K tasked:                   Yes
    wK tasked:                   No
    OpenMP threads:               1
    Memory [MiB]:               375
    Algorithm:                 Core
    Schwarz Cutoff:           1E-12
    Mask sparsity (%):       0.0000
    Fitting Condition:        1E-10

   => Auxiliary Basis Set <=

  Basis Set: (AUG-CC-PVTZ AUX)
    Blend: AUG-CC-PVTZ-JKFIT
    Number of shells: 174
    Number of basis function: 588
    Number of Cartesian functions: 723
    Spherical Harmonics?: true
    Max angular momentum: 4

  ==> CPHF Iterations <==

  => Iterations <=

             Iter  Converged  Remaining    Residual
  CGR           1          0          1   8.772E-02
  CGR           2          0          1   1.539E-02
  CGR           3          0          1   3.668E-03
  CGR           4          0          1   5.906E-04
  CGR           5          0          1   8.002E-05
  CGR           6          0          1   7.264E-06
  CGR           7          1          0   9.284E-07

    CGRSolver converged.

  ==> DFCorrGrad: Density-Fitted Correlated Gradients <==

    OpenMP threads:              1
    Integrals threads:           1
    Memory [GiB]:            0.366
    Schwarz Cutoff:          0E+00
    Fitting Condition:       1E-10

   => Auxiliary Basis Set <=

  Basis Set: (AUG-CC-PVTZ AUX)
    Blend: AUG-CC-PVTZ-JKFIT
    Number of shells: 174
    Number of basis function: 588
    Number of Cartesian functions: 723
    Spherical Harmonics?: true
    Max angular momentum: 4

	-----------------------------------------------------------
	 ==================> DF-MP2 Energies <==================== 
	-----------------------------------------------------------
	 Reference Energy          =    -117.1000977308586215 [Eh]
	 Singles Energy            =      -0.0000000000000000 [Eh]
	 Same-Spin Energy          =      -0.1241003944864593 [Eh]
	 Opposite-Spin Energy      =      -0.4551472348571465 [Eh]
	 Correlation Energy        =      -0.5792476293436059 [Eh]
	 Total Energy              =    -117.6793453602022339 [Eh]
	-----------------------------------------------------------
	 ================> DF-SCS-MP2 Energies <================== 
	-----------------------------------------------------------
	 SCS Same-Spin Scale       =       0.3333333333333333 [-]
	 SCS Opposite-Spin Scale   =       1.2000000000000000 [-]
	 SCS Same-Spin Energy      =      -0.0413667981621531 [Eh]
	 SCS Opposite-Spin Energy  =      -0.5461766818285758 [Eh]
	 SCS Correlation Energy    =      -0.5875434799907289 [Eh]
	 SCS Total Energy          =    -117.6876412108493497 [Eh]
	-----------------------------------------------------------


  -Total Gradient:
     Atom            X                  Y                   Z
    ------   -----------------  -----------------  -----------------
       1        0.000431049241     0.001091306036     0.000000000000
       2       -0.001135719738    -0.000165125137     0.000000000000
       3        0.000727078116    -0.000907030348     0.000000000000
       4        0.002440828684     0.006177068412    -0.009209647323
       5        0.002440828684     0.006177068412     0.009209647323
       6       -0.006578726308    -0.000977401404     0.009200023520
       7       -0.006578726308    -0.000977401404    -0.009200023520
       8        0.004126693815    -0.005209242283    -0.009205932426
       9        0.004126693815    -0.005209242283     0.009205932426


*** tstop() called on atlantis at Tue Apr 19 02:23:51 2022
Module time:
	user time   =      18.41 seconds =       0.31 minutes
	system time =       0.69 seconds =       0.01 minutes
	total time  =         19 seconds =       0.32 minutes
Total time:
	user time   =      26.50 seconds =       0.44 minutes
	system time =       0.97 seconds =       0.02 minutes
	total time  =         28 seconds =       0.47 minutes

  Based on options and gradient (rms=5.37E-03), recommend projecting translations and projecting rotations.
hessian() will perform frequency computation by finite difference of analytic gradients.

         ----------------------------------------------------------
                                   FINDIF
                     R. A. King and Jonathon Misiewicz
         ---------------------------------------------------------

  Using finite-differences of gradients to determine vibrational frequencies and 
  normal modes.  Resulting frequencies are only valid at stationary points.
    Generating geometries for use with 3-point formula.
    Displacement size will be 5.00e-03.
    Number of atoms is 9.
    Number of irreps is 2.
    Number of SALCs is 21.
    Translations projected? 1. Rotations projected? 1.
    Index of SALCs per irrep:
     1 :  0  1  2  3  4  5  6  7  8  9  10  11 
     2 :  12  13  14  15  16  17  18  19  20 
    Number of SALCs per irrep:
     Irrep 1: 12
     Irrep 2: 9
    Number of geometries (including reference) is 34.
    Number of displacements per irrep:
      Irrep 1: 24
      Irrep 2: 9

  //>>>>>>>>>>>>>>>>>>>>>>>>>>>>>>>>>>>//
  //    Loading displacement 1 of 34   //
  //<<<<<<<<<<<<<<<<<<<<<<<<<<<<<<<<<<<//
gradient() will perform analytic gradient computation.
    SCF Algorithm Type (re)set to DF.

*** tstart() called on atlantis
*** at Tue Apr 19 02:23:51 2022

   => Loading Basis Set <=

    Name: AUG-CC-PVTZ
    Role: ORBITAL
    Keyword: BASIS
    atoms 1-3 entry C          line   235 file /home/akrom/software/anaconda3/envs/ffpenv/share/psi4/basis/aug-cc-pvtz.gbs 
    atoms 4-9 entry H          line    36 file /home/akrom/software/anaconda3/envs/ffpenv/share/psi4/basis/aug-cc-pvtz.gbs 


         ---------------------------------------------------------
                                   SCF
               by Justin Turney, Rob Parrish, Andy Simmonett
                          and Daniel G. A. Smith
                              RHF Reference
                        1 Threads,    500 MiB Core
         ---------------------------------------------------------

  ==> Geometry <==

    Molecular point group: cs
    Full point group: Cs

    Geometry (in Angstrom), charge = 0, multiplicity = 1:

       Center              X                  Y                   Z               Mass       
    ------------   -----------------  -----------------  -----------------  -----------------
         C            0.321531939855     0.813261460475     0.000000000000    12.000000000000
         C           -0.865048060145    -0.128168539525     0.000000000000    12.000000000000
         C            0.543531939855    -0.685078539525     0.000000000000    12.000000000000
         H            0.537951939855     1.360691460475    -0.920390000000     1.007825032230
         H            0.537951939855     1.360691460475     0.920390000000     1.007825032230
         H           -1.447418060145    -0.214488539525     0.920340000000     1.007825032230
         H           -1.447418060145    -0.214488539525    -0.920340000000     1.007825032230
         H            0.909371939855    -1.146288539525    -0.920370000000     1.007825032230
         H            0.909371939855    -1.146288539525     0.920370000000     1.007825032230

  Running in cs symmetry.

  Rotational constants: A =      0.66472  B =      0.66470  C =      0.41647 [cm^-1]
  Rotational constants: A =  19927.70596  B =  19927.20236  C =  12485.44714 [MHz]
  Nuclear repulsion =   75.281464809014025

  Charge       = 0
  Multiplicity = 1
  Electrons    = 24
  Nalpha       = 12
  Nbeta        = 12

  ==> Algorithm <==

  SCF Algorithm Type is DF.
  DIIS enabled.
  MOM disabled.
  Fractional occupation disabled.
  Guess Type is SAD.
  Energy threshold   = 1.00e-10
  Density threshold  = 1.00e-10
  Integral threshold = 0.00e+00

  ==> Primary Basis <==

  Basis Set: AUG-CC-PVTZ
    Blend: AUG-CC-PVTZ
    Number of shells: 96
    Number of basis function: 276
    Number of Cartesian functions: 315
    Spherical Harmonics?: true
    Max angular momentum: 3

   => Loading Basis Set <=

    Name: (AUG-CC-PVTZ AUX)
    Role: JKFIT
    Keyword: DF_BASIS_SCF
    atoms 1-3 entry C          line   162 file /home/akrom/software/anaconda3/envs/ffpenv/share/psi4/basis/aug-cc-pvtz-jkfit.gbs 
    atoms 4-9 entry H          line    70 file /home/akrom/software/anaconda3/envs/ffpenv/share/psi4/basis/aug-cc-pvtz-jkfit.gbs 

  ==> Pre-Iterations <==

   -------------------------------------------------------
    Irrep   Nso     Nmo     Nalpha   Nbeta   Ndocc  Nsocc
   -------------------------------------------------------
     A'       159     159       0       0       0       0
     A"       117     117       0       0       0       0
   -------------------------------------------------------
    Total     276     276      12      12      12       0
   -------------------------------------------------------

  ==> Integral Setup <==

  DFHelper Memory: AOs need 0.352 GiB; user supplied 0.366 GiB. Using in-core AOs.

  ==> MemDFJK: Density-Fitted J/K Matrices <==

    J tasked:                   Yes
    K tasked:                   Yes
    wK tasked:                   No
    OpenMP threads:               1
    Memory [MiB]:               375
    Algorithm:                 Core
    Schwarz Cutoff:           1E-12
    Mask sparsity (%):       0.0000
    Fitting Condition:        1E-10

   => Auxiliary Basis Set <=

  Basis Set: (AUG-CC-PVTZ AUX)
    Blend: AUG-CC-PVTZ-JKFIT
    Number of shells: 174
    Number of basis function: 588
    Number of Cartesian functions: 723
    Spherical Harmonics?: true
    Max angular momentum: 4

  Minimum eigenvalue in the overlap matrix is 1.6775936804E-05.
  Using Symmetric Orthogonalization.

  SCF Guess: Superposition of Atomic Densities via on-the-fly atomic UHF.

  ==> Iterations <==

                           Total Energy        Delta E     RMS |[F,P]|

   @DF-RHF iter SAD:  -116.63825761170119   -1.16638e+02   0.00000e+00 
   @DF-RHF iter   1:  -116.97228224778000   -3.34025e-01   2.36326e-03 DIIS
   @DF-RHF iter   2:  -117.07068785222660   -9.84056e-02   1.20228e-03 DIIS
   @DF-RHF iter   3:  -117.09885193787083   -2.81641e-02   1.77075e-04 DIIS
   @DF-RHF iter   4:  -117.10006241876243   -1.21048e-03   2.41270e-05 DIIS
   @DF-RHF iter   5:  -117.10009568862158   -3.32699e-05   5.70773e-06 DIIS
   @DF-RHF iter   6:  -117.10009766214387   -1.97352e-06   9.93098e-07 DIIS
   @DF-RHF iter   7:  -117.10009772938926   -6.72454e-08   1.57084e-07 DIIS
   @DF-RHF iter   8:  -117.10009773083843   -1.44917e-09   1.91127e-08 DIIS
   @DF-RHF iter   9:  -117.10009773085719   -1.87583e-11   3.43042e-09 DIIS
   @DF-RHF iter  10:  -117.10009773085822   -1.03739e-12   5.93511e-10 DIIS
   @DF-RHF iter  11:  -117.10009773085811    1.13687e-13   1.89215e-10 DIIS
   @DF-RHF iter  12:  -117.10009773085862   -5.11591e-13   2.48786e-11 DIIS
  Energy and wave function converged.


  ==> Post-Iterations <==

    Orbital Energies [Eh]
    ---------------------

    Doubly Occupied:                                                      

       1Ap   -11.227512     2Ap   -11.226536     3Ap   -11.226531  
       4Ap    -1.124705     5Ap    -0.813984     6Ap    -0.813979  
       1App   -0.662781     7Ap    -0.621912     2App   -0.510215  
       3App   -0.510199     8Ap    -0.417243     9Ap    -0.417235  

    Virtual:                                                              

      10Ap     0.033134     4App    0.040405    11Ap     0.042026  
      12Ap     0.042026     5App    0.061726     6App    0.061728  
      13Ap     0.097999    14Ap     0.098262    15Ap     0.098263  
      16Ap     0.124942    17Ap     0.124945    18Ap     0.133147  
       7App    0.141768    19Ap     0.148368     8App    0.165648  
       9App    0.165651    20Ap     0.183917    21Ap     0.183920  
      22Ap     0.247723    10App    0.249935    11App    0.249937  
      12App    0.260030    23Ap     0.278890    24Ap     0.290251  
      25Ap     0.293337    26Ap     0.293339    27Ap     0.325654  
      28Ap     0.325660    13App    0.343065    14App    0.344642  
      29Ap     0.355373    30Ap     0.355374    15App    0.374611  
      16App    0.374617    17App    0.387785    18App    0.387789  
      31Ap     0.404556    19App    0.414012    32Ap     0.416095  
      33Ap     0.416099    34Ap     0.438012    35Ap     0.438018  
      36Ap     0.438109    37Ap     0.451730    20App    0.480969  
      21App    0.507736    22App    0.507740    38Ap     0.509663  
      39Ap     0.512741    23App    0.514292    24App    0.514297  
      40Ap     0.522487    41Ap     0.522495    42Ap     0.541986  
      43Ap     0.541991    44Ap     0.604898    45Ap     0.604908  
      25App    0.608708    26App    0.608732    46Ap     0.649264  
      27App    0.668408    28App    0.693857    47Ap     0.748856  
      48Ap     0.748860    29App    0.791090    30App    0.791097  
      31App    0.826803    49Ap     0.851287    50Ap     0.882258  
      51Ap     0.882258    52Ap     0.884105    32App    0.893643  
      33App    0.893646    53Ap     0.929780    54Ap     0.932436  
      55Ap     0.932448    56Ap     0.948323    57Ap     0.955281  
      58Ap     0.955286    34App    0.982327    35App    0.982335  
      36App    0.995278    37App    1.009046    59Ap     1.012074  
      60Ap     1.012094    38App    1.041870    61Ap     1.065412  
      62Ap     1.065418    39App    1.095283    40App    1.095286  
      41App    1.104195    42App    1.104196    63Ap     1.111847  
      64Ap     1.124699    65Ap     1.164834    66Ap     1.164848  
      67Ap     1.173879    68Ap     1.227248    69Ap     1.227251  
      43App    1.234932    44App    1.234943    70Ap     1.246921  
      45App    1.306518    46App    1.306526    47App    1.362369  
      48App    1.375102    49App    1.377191    71Ap     1.390631  
      72Ap     1.390661    50App    1.393560    51App    1.393568  
      73Ap     1.435672    74Ap     1.525602    75Ap     1.525615  
      76Ap     1.550183    77Ap     1.550191    52App    1.551452  
      53App    1.571428    54App    1.571460    78Ap     1.579990  
      79Ap     1.648184    80Ap     1.648186    81Ap     1.676815  
      55App    1.678412    56App    1.716617    82Ap     1.746461  
      83Ap     1.753433    84Ap     1.753441    57App    1.836066  
      58App    1.836080    59App    1.863409    60App    1.863426  
      85Ap     1.875414    86Ap     1.887476    87Ap     1.908135  
      88Ap     1.908143    61App    1.948259    89Ap     1.953646  
      90Ap     1.953672    62App    2.016652    63App    2.016659  
      91Ap     2.032364    92Ap     2.053638    93Ap     2.053646  
      94Ap     2.087275    64App    2.104336    65App    2.141781  
      95Ap     2.208593    96Ap     2.208641    66App    2.235738  
      67App    2.235812    68App    2.331522    69App    2.331554  
      70App    2.384815    97Ap     2.387078    98Ap     2.387113  
      71App    2.477849    72App    2.477871    99Ap     2.550256  
     100Ap     2.553277   101Ap     2.612767   102Ap     2.612834  
      73App    2.955654   103Ap     3.096109   104Ap     3.189948  
     105Ap     3.189997    74App    3.306647    75App    3.306691  
     106Ap     3.349981   107Ap     3.405901   108Ap     3.405954  
     109Ap     3.431896    76App    3.471661   110Ap     3.549098  
      77App    3.611016    78App    3.626218    79App    3.626242  
     111Ap     3.630888   112Ap     3.630902   113Ap     3.669049  
     114Ap     3.669074   115Ap     3.687289    80App    3.724625  
      81App    3.724661    82App    3.730761   116Ap     3.810608  
     117Ap     3.825750   118Ap     3.825769    83App    3.881910  
      84App    3.881928    85App    3.909624   119Ap     3.959553  
      86App    4.010709   120Ap     4.022519   121Ap     4.022534  
      87App    4.064888    88App    4.064915   122Ap     4.123318  
     123Ap     4.123346    89App    4.139407    90App    4.139428  
      91App    4.194684   124Ap     4.199527   125Ap     4.299634  
     126Ap     4.313824   127Ap     4.313841   128Ap     4.355757  
     129Ap     4.355782    92App    4.360740    93App    4.360800  
      94App    4.420030    95App    4.483189    96App    4.483202  
     130Ap     4.529039   131Ap     4.676884   132Ap     4.753223  
     133Ap     4.753242    97App    4.799291    98App    4.799303  
     134Ap     4.839061   135Ap     4.852638   136Ap     4.852695  
      99App    4.881157   100App    4.881191   137Ap     4.922680  
     138Ap     4.922688   101App    4.972373   139Ap     4.982708  
     140Ap     4.982747   102App    5.167749   103App    5.171310  
     141Ap     5.179708   142Ap     5.179724   143Ap     5.223197  
     144Ap     5.295144   104App    5.357554   105App    5.357594  
     145Ap     5.439897   146Ap     5.439947   106App    5.523372  
     107App    5.523398   108App    5.577858   147Ap     5.646508  
     148Ap     5.665545   149Ap     5.665594   150Ap     5.668994  
     109App    5.688718   110App    5.726066   111App    5.913291  
     112App    5.913328   151Ap     6.008482   152Ap     6.119791  
     153Ap     6.314476   154Ap     6.314508   155Ap     6.413122  
     156Ap     6.413171   113App    6.496629   114App    6.500653  
     115App    6.500772   116App    6.768226   117App    6.768272  
     157Ap    16.543141   158Ap    17.105397   159Ap    17.105680  

    Final Occupation by Irrep:
             Ap   App 
    DOCC [     9,    3 ]

  @DF-RHF Final Energy:  -117.10009773085862

   => Energetics <=

    Nuclear Repulsion Energy =             75.2814648090140253
    One-Electron Energy =                -305.6174587050575155
    Two-Electron Energy =                 113.2358961651848546
    Total Energy =                       -117.1000977308586215

Computation Completed


Properties will be evaluated at   0.000000,   0.000000,   0.000000 [a0]

Properties computed using the SCF density matrix

  Nuclear Dipole Moment: [e a0]
     X:    -0.0002      Y:    -0.0002      Z:     0.0000

  Electronic Dipole Moment: [e a0]
     X:     0.0002      Y:     0.0001      Z:     0.0000

  Dipole Moment: [e a0]
     X:    -0.0000      Y:    -0.0000      Z:     0.0000     Total:     0.0000

  Dipole Moment: [D]
     X:    -0.0001      Y:    -0.0001      Z:     0.0000     Total:     0.0001


*** tstop() called on atlantis at Tue Apr 19 02:23:55 2022
Module time:
	user time   =       3.58 seconds =       0.06 minutes
	system time =       0.09 seconds =       0.00 minutes
	total time  =          4 seconds =       0.07 minutes
Total time:
	user time   =      30.35 seconds =       0.51 minutes
	system time =       1.08 seconds =       0.02 minutes
	total time  =         32 seconds =       0.53 minutes

*** tstart() called on atlantis
*** at Tue Apr 19 02:23:55 2022


  //>>>>>>>>>>>>>>>>>>>>>>>>>>>>>>>>>>>//
  //               DFMP2               //
  //<<<<<<<<<<<<<<<<<<<<<<<<<<<<<<<<<<<//

   => Loading Basis Set <=

    Name: (AUG-CC-PVTZ AUX)
    Role: RIFIT
    Keyword: DF_BASIS_MP2
    atoms 1-3 entry C          line   148 file /home/akrom/software/anaconda3/envs/ffpenv/share/psi4/basis/aug-cc-pvtz-ri.gbs 
    atoms 4-9 entry H          line    30 file /home/akrom/software/anaconda3/envs/ffpenv/share/psi4/basis/aug-cc-pvtz-ri.gbs 

	 --------------------------------------------------------
	                          DF-MP2                         
	      2nd-Order Density-Fitted Moller-Plesset Theory     
	              RMP2 Wavefunction,   1 Threads             
	                                                         
	        Rob Parrish, Justin Turney, Andy Simmonett,      
	           Ed Hohenstein, and C. David Sherrill          
	 --------------------------------------------------------

   => Auxiliary Basis Set <=

  Basis Set: (AUG-CC-PVTZ AUX)
    Blend: AUG-CC-PVTZ-RI
    Number of shells: 168
    Number of basis function: 594
    Number of Cartesian functions: 738
    Spherical Harmonics?: true
    Max angular momentum: 4

	 --------------------------------------------------------
	                 NBF =   276, NAUX =   594
	 --------------------------------------------------------
	   CLASS    FOCC     OCC    AOCC    AVIR     VIR    FVIR
	   PAIRS       0      12      12     264     264       0
	 --------------------------------------------------------

  DFHelper Memory: AOs need 0.352 GiB; user supplied 0.366 GiB. Using in-core AOs.


         ------------------------------------------------------------
                                     CPHF                           
                                  Rob Parrish                       
         ------------------------------------------------------------

  ==> Geometry <==

    Molecular point group: cs
    Full point group: Cs

    Geometry (in Angstrom), charge = 0, multiplicity = 1:

       Center              X                  Y                   Z               Mass       
    ------------   -----------------  -----------------  -----------------  -----------------
         C            0.321531939855     0.813261460475     0.000000000000    12.000000000000
         C           -0.865048060145    -0.128168539525     0.000000000000    12.000000000000
         C            0.543531939855    -0.685078539525     0.000000000000    12.000000000000
         H            0.537951939855     1.360691460475    -0.920390000000     1.007825032230
         H            0.537951939855     1.360691460475     0.920390000000     1.007825032230
         H           -1.447418060145    -0.214488539525     0.920340000000     1.007825032230
         H           -1.447418060145    -0.214488539525    -0.920340000000     1.007825032230
         H            0.909371939855    -1.146288539525    -0.920370000000     1.007825032230
         H            0.909371939855    -1.146288539525     0.920370000000     1.007825032230

  Nuclear repulsion =   75.281464809014025
  Reference energy  = -117.100097730858622

  ==> Basis Set <==

  Basis Set: AUG-CC-PVTZ
    Blend: AUG-CC-PVTZ
    Number of shells: 96
    Number of basis function: 276
    Number of Cartesian functions: 315
    Spherical Harmonics?: true
    Max angular momentum: 3

  ==> CGRSolver (by Rob Parrish) <==

   Number of roots    =         1
   Preconditioning    =    JACOBI
   Convergence cutoff =     1E-06
   Maximum iterations =       100

  ==> CPHFRHamiltonian (by Rob Parrish) <== 

  ==> MemDFJK: Density-Fitted J/K Matrices <==

    J tasked:                   Yes
    K tasked:                   Yes
    wK tasked:                   No
    OpenMP threads:               1
    Memory [MiB]:               375
    Algorithm:                 Core
    Schwarz Cutoff:           1E-12
    Mask sparsity (%):       0.0000
    Fitting Condition:        1E-10

   => Auxiliary Basis Set <=

  Basis Set: (AUG-CC-PVTZ AUX)
    Blend: AUG-CC-PVTZ-JKFIT
    Number of shells: 174
    Number of basis function: 588
    Number of Cartesian functions: 723
    Spherical Harmonics?: true
    Max angular momentum: 4

  ==> CPHF Iterations <==

  => Iterations <=

             Iter  Converged  Remaining    Residual
  CGR           1          0          1   8.772E-02
  CGR           2          0          1   1.539E-02
  CGR           3          0          1   3.668E-03
  CGR           4          0          1   5.906E-04
  CGR           5          0          1   8.002E-05
  CGR           6          0          1   7.264E-06
  CGR           7          1          0   9.284E-07

    CGRSolver converged.

  ==> DFCorrGrad: Density-Fitted Correlated Gradients <==

    OpenMP threads:              1
    Integrals threads:           1
    Memory [GiB]:            0.366
    Schwarz Cutoff:          0E+00
    Fitting Condition:       1E-10

   => Auxiliary Basis Set <=

  Basis Set: (AUG-CC-PVTZ AUX)
    Blend: AUG-CC-PVTZ-JKFIT
    Number of shells: 174
    Number of basis function: 588
    Number of Cartesian functions: 723
    Spherical Harmonics?: true
    Max angular momentum: 4

	-----------------------------------------------------------
	 ==================> DF-MP2 Energies <==================== 
	-----------------------------------------------------------
	 Reference Energy          =    -117.1000977308586215 [Eh]
	 Singles Energy            =      -0.0000000000000000 [Eh]
	 Same-Spin Energy          =      -0.1241003944864593 [Eh]
	 Opposite-Spin Energy      =      -0.4551472348571465 [Eh]
	 Correlation Energy        =      -0.5792476293436059 [Eh]
	 Total Energy              =    -117.6793453602022339 [Eh]
	-----------------------------------------------------------
	 ================> DF-SCS-MP2 Energies <================== 
	-----------------------------------------------------------
	 SCS Same-Spin Scale       =       0.3333333333333333 [-]
	 SCS Opposite-Spin Scale   =       1.2000000000000000 [-]
	 SCS Same-Spin Energy      =      -0.0413667981621531 [Eh]
	 SCS Opposite-Spin Energy  =      -0.5461766818285758 [Eh]
	 SCS Correlation Energy    =      -0.5875434799907289 [Eh]
	 SCS Total Energy          =    -117.6876412108493497 [Eh]
	-----------------------------------------------------------


  -Total Gradient:
     Atom            X                  Y                   Z
    ------   -----------------  -----------------  -----------------
       1        0.000431049241     0.001091306036     0.000000000000
       2       -0.001135719738    -0.000165125137     0.000000000000
       3        0.000727078116    -0.000907030348     0.000000000000
       4        0.002440828684     0.006177068412    -0.009209647323
       5        0.002440828684     0.006177068412     0.009209647323
       6       -0.006578726308    -0.000977401404     0.009200023520
       7       -0.006578726308    -0.000977401404    -0.009200023520
       8        0.004126693815    -0.005209242283    -0.009205932426
       9        0.004126693815    -0.005209242283     0.009205932426


*** tstop() called on atlantis at Tue Apr 19 02:24:14 2022
Module time:
	user time   =      18.46 seconds =       0.31 minutes
	system time =       0.65 seconds =       0.01 minutes
	total time  =         19 seconds =       0.32 minutes
Total time:
	user time   =      48.81 seconds =       0.81 minutes
	system time =       1.73 seconds =       0.03 minutes
	total time  =         51 seconds =       0.85 minutes

  //>>>>>>>>>>>>>>>>>>>>>>>>>>>>>>>>>>>//
  //    Loading displacement 2 of 34   //
  //<<<<<<<<<<<<<<<<<<<<<<<<<<<<<<<<<<<//
gradient() will perform analytic gradient computation.
    SCF Algorithm Type (re)set to DF.

*** tstart() called on atlantis
*** at Tue Apr 19 02:24:14 2022

   => Loading Basis Set <=

    Name: AUG-CC-PVTZ
    Role: ORBITAL
    Keyword: BASIS
    atoms 1-3 entry C          line   235 file /home/akrom/software/anaconda3/envs/ffpenv/share/psi4/basis/aug-cc-pvtz.gbs 
    atoms 4-9 entry H          line    36 file /home/akrom/software/anaconda3/envs/ffpenv/share/psi4/basis/aug-cc-pvtz.gbs 


         ---------------------------------------------------------
                                   SCF
               by Justin Turney, Rob Parrish, Andy Simmonett
                          and Daniel G. A. Smith
                              RHF Reference
                        1 Threads,    500 MiB Core
         ---------------------------------------------------------

  ==> Geometry <==

    Molecular point group: cs
    Full point group: Cs

    Geometry (in Angstrom), charge = 0, multiplicity = 1:

       Center              X                  Y                   Z               Mass       
    ------------   -----------------  -----------------  -----------------  -----------------
         C            0.320981935461     0.813179232929     0.000000000000    12.000000000000
         C           -0.864778117207    -0.127947314912     0.000000000000    12.000000000000
         C            0.543659460418    -0.685217540638     0.000000000000    12.000000000000
         H            0.538602639069     1.360553886373    -0.920390000000     1.007825032230
         H            0.538602639069     1.360553886373     0.920390000000     1.007825032230
         H           -1.447170192407    -0.214118381478     0.920340000000     1.007825032230
         H           -1.447170192407    -0.214118381478    -0.920340000000     1.007825032230
         H            0.909381512053    -1.146521099385    -0.920370000000     1.007825032230
         H            0.909381512053    -1.146521099385     0.920370000000     1.007825032230

  Running in cs symmetry.

  Rotational constants: A =      0.66511  B =      0.66452  C =      0.41655 [cm^-1]
  Rotational constants: A =  19939.46144  B =  19921.88173  C =  12487.97026 [MHz]
  Nuclear repulsion =   75.286659304380962

  Charge       = 0
  Multiplicity = 1
  Electrons    = 24
  Nalpha       = 12
  Nbeta        = 12

  ==> Algorithm <==

  SCF Algorithm Type is DF.
  DIIS enabled.
  MOM disabled.
  Fractional occupation disabled.
  Guess Type is SAD.
  Energy threshold   = 1.00e-10
  Density threshold  = 1.00e-10
  Integral threshold = 0.00e+00

  ==> Primary Basis <==

  Basis Set: AUG-CC-PVTZ
    Blend: AUG-CC-PVTZ
    Number of shells: 96
    Number of basis function: 276
    Number of Cartesian functions: 315
    Spherical Harmonics?: true
    Max angular momentum: 3

   => Loading Basis Set <=

    Name: (AUG-CC-PVTZ AUX)
    Role: JKFIT
    Keyword: DF_BASIS_SCF
    atoms 1-3 entry C          line   162 file /home/akrom/software/anaconda3/envs/ffpenv/share/psi4/basis/aug-cc-pvtz-jkfit.gbs 
    atoms 4-9 entry H          line    70 file /home/akrom/software/anaconda3/envs/ffpenv/share/psi4/basis/aug-cc-pvtz-jkfit.gbs 

  ==> Pre-Iterations <==

   -------------------------------------------------------
    Irrep   Nso     Nmo     Nalpha   Nbeta   Ndocc  Nsocc
   -------------------------------------------------------
     A'       159     159       0       0       0       0
     A"       117     117       0       0       0       0
   -------------------------------------------------------
    Total     276     276      12      12      12       0
   -------------------------------------------------------

  ==> Integral Setup <==

  DFHelper Memory: AOs need 0.352 GiB; user supplied 0.366 GiB. Using in-core AOs.

  ==> MemDFJK: Density-Fitted J/K Matrices <==

    J tasked:                   Yes
    K tasked:                   Yes
    wK tasked:                   No
    OpenMP threads:               1
    Memory [MiB]:               375
    Algorithm:                 Core
    Schwarz Cutoff:           1E-12
    Mask sparsity (%):       0.0000
    Fitting Condition:        1E-10

   => Auxiliary Basis Set <=

  Basis Set: (AUG-CC-PVTZ AUX)
    Blend: AUG-CC-PVTZ-JKFIT
    Number of shells: 174
    Number of basis function: 588
    Number of Cartesian functions: 723
    Spherical Harmonics?: true
    Max angular momentum: 4

  Minimum eigenvalue in the overlap matrix is 1.6736544044E-05.
  Using Symmetric Orthogonalization.

  SCF Guess: Superposition of Atomic Densities via on-the-fly atomic UHF.

  ==> Iterations <==

                           Total Energy        Delta E     RMS |[F,P]|

   @DF-RHF iter SAD:  -116.63888722293532   -1.16639e+02   0.00000e+00 
   @DF-RHF iter   1:  -116.97221360259437   -3.33326e-01   2.36404e-03 DIIS
   @DF-RHF iter   2:  -117.07065824355431   -9.84446e-02   1.20298e-03 DIIS
   @DF-RHF iter   3:  -117.09885360735011   -2.81954e-02   1.77099e-04 DIIS
   @DF-RHF iter   4:  -117.10006458209777   -1.21097e-03   2.41319e-05 DIIS
   @DF-RHF iter   5:  -117.10009786754799   -3.32855e-05   5.70843e-06 DIIS
   @DF-RHF iter   6:  -117.10009984173091   -1.97418e-06   9.93239e-07 DIIS
   @DF-RHF iter   7:  -117.10009990895087   -6.72200e-08   1.58577e-07 DIIS
   @DF-RHF iter   8:  -117.10009991040175   -1.45089e-09   2.74108e-08 DIIS
   @DF-RHF iter   9:  -117.10009991042665   -2.48974e-11   9.74150e-09 DIIS
   @DF-RHF iter  10:  -117.10009991042918   -2.52953e-12   1.64818e-09 DIIS
   @DF-RHF iter  11:  -117.10009991043023   -1.05160e-12   2.42399e-10 DIIS
   @DF-RHF iter  12:  -117.10009991043056   -3.26850e-13   2.33749e-11 DIIS
  Energy and wave function converged.


  ==> Post-Iterations <==

    Orbital Energies [Eh]
    ---------------------

    Doubly Occupied:                                                      

       1Ap   -11.227498     2Ap   -11.226532     3Ap   -11.226504  
       4Ap    -1.124821     5Ap    -0.814012     6Ap    -0.813907  
       1App   -0.662783     7Ap    -0.621975     2App   -0.510209  
       3App   -0.510078     8Ap    -0.417537     9Ap    -0.417040  

    Virtual:                                                              

      10Ap     0.033134     4App    0.040404    11Ap     0.042022  
      12Ap     0.042028     5App    0.061722     6App    0.061734  
      13Ap     0.097999    14Ap     0.098243    15Ap     0.098275  
      16Ap     0.124929    17Ap     0.124960    18Ap     0.133149  
       7App    0.141762    19Ap     0.148369     8App    0.165633  
       9App    0.165665    20Ap     0.183919    21Ap     0.183935  
      22Ap     0.247738    10App    0.249926    11App    0.249945  
      12App    0.260018    23Ap     0.278939    24Ap     0.290236  
      25Ap     0.293288    26Ap     0.293384    27Ap     0.325649  
      28Ap     0.325669    13App    0.343063    14App    0.344627  
      29Ap     0.355376    30Ap     0.355387    15App    0.374612  
      16App    0.374628    17App    0.387781    18App    0.387797  
      31Ap     0.404556    19App    0.413998    32Ap     0.416083  
      33Ap     0.416113    34Ap     0.438012    35Ap     0.438023  
      36Ap     0.438115    37Ap     0.451771    20App    0.480995  
      21App    0.507714    22App    0.507761    38Ap     0.509674  
      39Ap     0.512799    23App    0.514241    24App    0.514334  
      40Ap     0.522479    41Ap     0.522553    42Ap     0.541917  
      43Ap     0.542140    44Ap     0.604908    45Ap     0.604970  
      25App    0.608610    26App    0.608827    46Ap     0.649233  
      27App    0.668347    28App    0.693878    47Ap     0.748825  
      48Ap     0.748892    29App    0.791027    30App    0.791135  
      31App    0.826785    49Ap     0.851294    50Ap     0.882229  
      51Ap     0.882344    52Ap     0.884128    32App    0.893607  
      33App    0.893698    53Ap     0.929769    54Ap     0.932404  
      55Ap     0.932446    56Ap     0.948358    57Ap     0.955240  
      58Ap     0.955376    34App    0.982222    35App    0.982410  
      36App    0.995284    37App    1.009084    59Ap     1.012026  
      60Ap     1.012155    38App    1.041907    61Ap     1.065382  
      62Ap     1.065514    39App    1.095246    40App    1.095302  
      41App    1.104186    42App    1.104205    63Ap     1.111827  
      64Ap     1.124715    65Ap     1.164845    66Ap     1.164866  
      67Ap     1.173826    68Ap     1.227207    69Ap     1.227279  
      43App    1.234923    44App    1.234985    70Ap     1.246899  
      45App    1.306505    46App    1.306568    47App    1.362383  
      48App    1.375073    49App    1.377195    71Ap     1.390525  
      72Ap     1.390697    50App    1.393431    51App    1.393653  
      73Ap     1.435726    74Ap     1.525650    75Ap     1.525662  
      76Ap     1.550232    77Ap     1.550296    52App    1.551462  
      53App    1.571406    54App    1.571541    78Ap     1.580032  
      79Ap     1.648188    80Ap     1.648193    81Ap     1.676808  
      55App    1.678374    56App    1.716653    82Ap     1.746462  
      83Ap     1.753438    84Ap     1.753471    57App    1.835985  
      58App    1.836168    59App    1.863310    60App    1.863500  
      85Ap     1.875511    86Ap     1.887612    87Ap     1.908109  
      88Ap     1.908157    61App    1.948273    89Ap     1.953535  
      90Ap     1.953827    62App    2.016550    63App    2.016701  
      91Ap     2.032391    92Ap     2.053691    93Ap     2.053752  
      94Ap     2.087170    64App    2.104360    65App    2.141859  
      95Ap     2.208418    96Ap     2.208737    66App    2.235539  
      67App    2.236015    68App    2.331481    69App    2.331825  
      70App    2.384843    97Ap     2.386918    98Ap     2.387349  
      71App    2.477776    72App    2.477901    99Ap     2.550233  
     100Ap     2.553344   101Ap     2.612573   102Ap     2.613344  
      73App    2.955590   103Ap     3.096108   104Ap     3.189913  
     105Ap     3.190045    74App    3.306483    75App    3.307006  
     106Ap     3.350282   107Ap     3.405614   108Ap     3.406327  
     109Ap     3.431925    76App    3.471642   110Ap     3.549215  
      77App    3.610915    78App    3.626190    79App    3.626440  
     111Ap     3.630949   112Ap     3.631143   113Ap     3.669112  
     114Ap     3.669388   115Ap     3.687295    80App    3.724470  
      81App    3.724851    82App    3.730795   116Ap     3.810747  
     117Ap     3.825723   118Ap     3.825799    83App    3.881699  
      84App    3.882059    85App    3.909604   119Ap     3.959684  
      86App    4.010637   120Ap     4.022503   121Ap     4.022692  
      87App    4.064680    88App    4.065059   122Ap     4.123042  
     123Ap     4.123671    89App    4.139212    90App    4.139774  
      91App    4.194650   124Ap     4.199637   125Ap     4.299640  
     126Ap     4.313816   127Ap     4.313916   128Ap     4.355617  
     129Ap     4.356095    92App    4.360800    93App    4.360921  
      94App    4.420172    95App    4.482853    96App    4.483613  
     130Ap     4.529123   131Ap     4.677027   132Ap     4.753132  
     133Ap     4.753427    97App    4.799204    98App    4.799344  
     134Ap     4.839042   135Ap     4.852501   136Ap     4.852740  
      99App    4.880878   100App    4.881483   137Ap     4.922556  
     138Ap     4.922820   101App    4.972428   139Ap     4.982605  
     140Ap     4.982731   102App    5.167754   103App    5.171359  
     141Ap     5.179586   142Ap     5.179692   143Ap     5.223160  
     144Ap     5.295218   104App    5.357457   105App    5.357651  
     145Ap     5.439555   146Ap     5.440667   106App    5.523237  
     107App    5.523425   108App    5.577721   147Ap     5.646916  
     148Ap     5.665286   149Ap     5.665888   150Ap     5.668913  
     109App    5.688600   110App    5.726161   111App    5.913079  
     112App    5.913370   151Ap     6.008295   152Ap     6.119930  
     153Ap     6.314002   154Ap     6.314612   155Ap     6.412994  
     156Ap     6.414141   113App    6.496638   114App    6.499841  
     115App    6.501500   116App    6.768132   117App    6.768625  
     157Ap    16.541761   158Ap    17.105078   159Ap    17.108035  

    Final Occupation by Irrep:
             Ap   App 
    DOCC [     9,    3 ]

  @DF-RHF Final Energy:  -117.10009991043056

   => Energetics <=

    Nuclear Repulsion Energy =             75.2866593043809615
    One-Electron Energy =                -305.6277262579725971
    Two-Electron Energy =                 113.2409670431610635
    Total Energy =                       -117.1000999104305578

Computation Completed


Properties will be evaluated at   0.000000,   0.000000,   0.000000 [a0]

Properties computed using the SCF density matrix

  Nuclear Dipole Moment: [e a0]
     X:     0.0015      Y:    -0.0002      Z:     0.0000

  Electronic Dipole Moment: [e a0]
     X:    -0.0018      Y:     0.0004      Z:     0.0000

  Dipole Moment: [e a0]
     X:    -0.0003      Y:     0.0002      Z:     0.0000     Total:     0.0004

  Dipole Moment: [D]
     X:    -0.0007      Y:     0.0006      Z:     0.0000     Total:     0.0009


*** tstop() called on atlantis at Tue Apr 19 02:24:18 2022
Module time:
	user time   =       3.57 seconds =       0.06 minutes
	system time =       0.08 seconds =       0.00 minutes
	total time  =          4 seconds =       0.07 minutes
Total time:
	user time   =      52.38 seconds =       0.87 minutes
	system time =       1.82 seconds =       0.03 minutes
	total time  =         55 seconds =       0.92 minutes

*** tstart() called on atlantis
*** at Tue Apr 19 02:24:18 2022


  //>>>>>>>>>>>>>>>>>>>>>>>>>>>>>>>>>>>//
  //               DFMP2               //
  //<<<<<<<<<<<<<<<<<<<<<<<<<<<<<<<<<<<//

   => Loading Basis Set <=

    Name: (AUG-CC-PVTZ AUX)
    Role: RIFIT
    Keyword: DF_BASIS_MP2
    atoms 1-3 entry C          line   148 file /home/akrom/software/anaconda3/envs/ffpenv/share/psi4/basis/aug-cc-pvtz-ri.gbs 
    atoms 4-9 entry H          line    30 file /home/akrom/software/anaconda3/envs/ffpenv/share/psi4/basis/aug-cc-pvtz-ri.gbs 

	 --------------------------------------------------------
	                          DF-MP2                         
	      2nd-Order Density-Fitted Moller-Plesset Theory     
	              RMP2 Wavefunction,   1 Threads             
	                                                         
	        Rob Parrish, Justin Turney, Andy Simmonett,      
	           Ed Hohenstein, and C. David Sherrill          
	 --------------------------------------------------------

   => Auxiliary Basis Set <=

  Basis Set: (AUG-CC-PVTZ AUX)
    Blend: AUG-CC-PVTZ-RI
    Number of shells: 168
    Number of basis function: 594
    Number of Cartesian functions: 738
    Spherical Harmonics?: true
    Max angular momentum: 4

	 --------------------------------------------------------
	                 NBF =   276, NAUX =   594
	 --------------------------------------------------------
	   CLASS    FOCC     OCC    AOCC    AVIR     VIR    FVIR
	   PAIRS       0      12      12     264     264       0
	 --------------------------------------------------------

  DFHelper Memory: AOs need 0.352 GiB; user supplied 0.366 GiB. Using in-core AOs.


         ------------------------------------------------------------
                                     CPHF                           
                                  Rob Parrish                       
         ------------------------------------------------------------

  ==> Geometry <==

    Molecular point group: cs
    Full point group: Cs

    Geometry (in Angstrom), charge = 0, multiplicity = 1:

       Center              X                  Y                   Z               Mass       
    ------------   -----------------  -----------------  -----------------  -----------------
         C            0.320981935461     0.813179232929     0.000000000000    12.000000000000
         C           -0.864778117207    -0.127947314912     0.000000000000    12.000000000000
         C            0.543659460418    -0.685217540638     0.000000000000    12.000000000000
         H            0.538602639069     1.360553886373    -0.920390000000     1.007825032230
         H            0.538602639069     1.360553886373     0.920390000000     1.007825032230
         H           -1.447170192407    -0.214118381478     0.920340000000     1.007825032230
         H           -1.447170192407    -0.214118381478    -0.920340000000     1.007825032230
         H            0.909381512053    -1.146521099385    -0.920370000000     1.007825032230
         H            0.909381512053    -1.146521099385     0.920370000000     1.007825032230

  Nuclear repulsion =   75.286659304380962
  Reference energy  = -117.100099910430558

  ==> Basis Set <==

  Basis Set: AUG-CC-PVTZ
    Blend: AUG-CC-PVTZ
    Number of shells: 96
    Number of basis function: 276
    Number of Cartesian functions: 315
    Spherical Harmonics?: true
    Max angular momentum: 3

  ==> CGRSolver (by Rob Parrish) <==

   Number of roots    =         1
   Preconditioning    =    JACOBI
   Convergence cutoff =     1E-06
   Maximum iterations =       100

  ==> CPHFRHamiltonian (by Rob Parrish) <== 

  ==> MemDFJK: Density-Fitted J/K Matrices <==

    J tasked:                   Yes
    K tasked:                   Yes
    wK tasked:                   No
    OpenMP threads:               1
    Memory [MiB]:               375
    Algorithm:                 Core
    Schwarz Cutoff:           1E-12
    Mask sparsity (%):       0.0000
    Fitting Condition:        1E-10

   => Auxiliary Basis Set <=

  Basis Set: (AUG-CC-PVTZ AUX)
    Blend: AUG-CC-PVTZ-JKFIT
    Number of shells: 174
    Number of basis function: 588
    Number of Cartesian functions: 723
    Spherical Harmonics?: true
    Max angular momentum: 4

[...]
	 Opposite-Spin Energy      =      -0.4551473377762368 [Eh]
	 Correlation Energy        =      -0.5792477435095160 [Eh]
	 Total Energy              =    -117.6793428916210473 [Eh]
	-----------------------------------------------------------
	 ================> DF-SCS-MP2 Energies <================== 
	-----------------------------------------------------------
	 SCS Same-Spin Scale       =       0.3333333333333333 [-]
	 SCS Opposite-Spin Scale   =       1.2000000000000000 [-]
	 SCS Same-Spin Energy      =      -0.0413668019110931 [Eh]
	 SCS Opposite-Spin Energy  =      -0.5461768053314842 [Eh]
	 SCS Correlation Energy    =      -0.5875436072425773 [Eh]
	 SCS Total Energy          =    -117.6876387553541150 [Eh]
	-----------------------------------------------------------


  -Total Gradient:
     Atom            X                  Y                   Z
    ------   -----------------  -----------------  -----------------
       1        0.000431058195     0.001091372061     0.000007772239
       2       -0.001136196893    -0.000165336169     0.000425517602
       3        0.000727640979    -0.000909325867    -0.001188318028
       4        0.002438323370     0.006170478727    -0.009211093695
       5        0.002443332430     0.006183655110     0.009208184181
       6       -0.006411738461    -0.000974183696     0.008930280603
       7       -0.006745068735    -0.000980552188    -0.009469079528
       8        0.003773131579    -0.004864133742    -0.008555195752
       9        0.004479517535    -0.005551974238     0.009851932380


*** tstop() called on atlantis at Tue Apr 19 02:36:54 2022
Module time:
	user time   =      18.53 seconds =       0.31 minutes
	system time =       0.66 seconds =       0.01 minutes
	total time  =         20 seconds =       0.33 minutes
Total time:
	user time   =     781.64 seconds =      13.03 minutes
	system time =      27.39 seconds =       0.46 minutes
	total time  =        811 seconds =      13.52 minutes

         ----------------------------------------------------------
                                   FINDIF
                     R. A. King and Jonathon Misiewicz
         ---------------------------------------------------------

  Computing second-derivative from gradients using projected, 
  symmetry-adapted, cartesian coordinates.

  34 gradients passed in, including the reference geometry.
  Generating complete list of displacements from unique ones.

    Operation 2 takes plus displacements of irrep A" to minus ones.

-------------------------------------------------------------


  ==> Harmonic Vibrational Analysis <==

  non-mass-weighted Hessian:       Symmetric? True   Hermitian? True   Lin Dep Dim?  6 (0)
  projection of translations (True) and rotations (True) removed 6 degrees of freedom (6)
  total projector:                 Symmetric? True   Hermitian? True   Lin Dep Dim?  6 (6)
  mass-weighted Hessian:           Symmetric? True   Hermitian? True   Lin Dep Dim?  6 (0)
  pre-proj  low-frequency mode:    0.0000i [cm^-1]
  pre-proj  low-frequency mode:    0.0000i [cm^-1]
  pre-proj  low-frequency mode:    0.0000i [cm^-1]
  pre-proj  low-frequency mode:    0.0000  [cm^-1]
  pre-proj  low-frequency mode:    0.0000  [cm^-1]
  pre-proj  low-frequency mode:    0.0000  [cm^-1]
  pre-proj  all modes:['0.0000i' '0.0000i' '0.0000i' '0.0000' '0.0000' '0.0000' '809.3007'
 '809.3162' '872.0059' '872.0463' '919.5902' '1098.2665' '1098.2836'
 '1122.6930' '1188.1758' '1195.0686' '1238.4274' '1238.4295' '1505.8766'
 '1505.8957' '1546.4328' '3047.3748' '3047.3991' '3059.5057' '3110.2534'
 '3110.2650' '3132.2980']
  projected mass-weighted Hessian: Symmetric? True   Hermitian? True   Lin Dep Dim?  6 (6)
  post-proj low-frequency mode:    0.0000i [cm^-1] (TR)
  post-proj low-frequency mode:    0.0000i [cm^-1] (TR)
  post-proj low-frequency mode:    0.0000i [cm^-1] (TR)
  post-proj low-frequency mode:    0.0000  [cm^-1] (TR)
  post-proj low-frequency mode:    0.0000  [cm^-1] (TR)
  post-proj low-frequency mode:    0.0000  [cm^-1] (TR)
  post-proj  all modes:['0.0000i' '0.0000i' '0.0000i' '0.0000' '0.0000' '0.0000' '809.3007'
 '809.3162' '872.0059' '872.0463' '919.5902' '1098.2665' '1098.2836'
 '1122.6930' '1188.1758' '1195.0686' '1238.4274' '1238.4295' '1505.8766'
 '1505.8957' '1546.4328' '3047.3748' '3047.3991' '3059.5057' '3110.2534'
 '3110.2650' '3132.2980']

  Vibration                       7                   8                   9           
  Freq [cm^-1]                 809.3007            809.3162            872.0059       
  Irrep                          App                 App                  Ap          
  Reduced mass [u]              1.0238              1.0238              4.5884        
  Force const [mDyne/A]         0.3951              0.3951              2.0557        
  Turning point v=0 [a0]        0.3812              0.3812              0.1735        
  RMS dev v=0 [a0 u^1/2]        0.2727              0.2727              0.2627        
  Char temp [K]               1164.4036           1164.4259           1254.6224       
  ----------------------------------------------------------------------------------
      1   C                0.00  0.00  0.03    0.00  0.00 -0.01   -0.21  0.25  0.00   
      2   C                0.00 -0.00 -0.02   -0.00 -0.00 -0.02    0.33  0.06 -0.00   
      3   C               -0.00  0.00 -0.01   -0.00  0.00  0.03   -0.10 -0.31  0.00   
      4   H               -0.01 -0.34 -0.17    0.43 -0.08  0.05   -0.27  0.24 -0.02   
      5   H                0.01  0.34 -0.17   -0.43  0.08  0.05   -0.27  0.24  0.02   
      6   H                0.28 -0.27  0.13    0.18  0.34  0.13    0.27  0.06 -0.04   
      7   H               -0.28  0.27  0.13   -0.18 -0.34  0.13    0.27  0.06  0.04   
      8   H                0.38  0.20  0.05   -0.11  0.32 -0.17   -0.16 -0.32 -0.02   
      9   H               -0.38 -0.20  0.05    0.11 -0.32 -0.17   -0.16 -0.32  0.02   

  Vibration                       10                  11                  12          
  Freq [cm^-1]                 872.0463            919.5902           1098.2665       
  Irrep                           Ap                 App                  Ap          
  Reduced mass [u]              4.5884              1.0439              1.1903        
  Force const [mDyne/A]         2.0559              0.5201              0.8459        
  Turning point v=0 [a0]        0.1735              0.3542              0.3035        
  RMS dev v=0 [a0 u^1/2]        0.2627              0.2559              0.2341        
  Char temp [K]               1254.6805           1323.0856           1580.1610       
  ----------------------------------------------------------------------------------
      1   C               -0.25 -0.22  0.00   -0.00 -0.00 -0.03   -0.07  0.04 -0.00   
      2   C               -0.06  0.31  0.00   -0.00  0.00 -0.03    0.01 -0.01 -0.00   
      3   C                0.31 -0.12  0.00    0.00  0.00 -0.03   -0.07 -0.06  0.00   
      4   H               -0.26 -0.16  0.03    0.13  0.33  0.20    0.42 -0.18 -0.01   
      5   H               -0.26 -0.16 -0.03   -0.13 -0.33  0.20    0.42 -0.18  0.01   
      6   H               -0.07  0.38  0.00    0.35  0.05  0.20   -0.03  0.07 -0.02   
      7   H               -0.07  0.38 -0.00   -0.35 -0.05  0.20   -0.03  0.07  0.02   
      8   H                0.31 -0.06 -0.03    0.22 -0.28  0.20    0.41  0.33 -0.01   
      9   H                0.31 -0.06  0.03   -0.22  0.28  0.20    0.41  0.33  0.01   

  Vibration                       13                  14                  15          
  Freq [cm^-1]                1098.2836           1122.6930           1188.1758       
  Irrep                           Ap                  Ap                 App          
  Reduced mass [u]              1.1903              1.4254              1.0078        
  Force const [mDyne/A]         0.8459              1.0586              0.8383        
  Turning point v=0 [a0]        0.3035              0.2743              0.3171        
  RMS dev v=0 [a0 u^1/2]        0.2341              0.2316              0.2251        
  Char temp [K]               1580.1856           1615.3053           1709.5204       
  ----------------------------------------------------------------------------------
      1   C                0.06 -0.01 -0.00   -0.10  0.04  0.00    0.00  0.00 -0.00   
      2   C                0.01 -0.10  0.00    0.02 -0.11  0.00    0.00 -0.00 -0.00   
      3   C               -0.04 -0.02 -0.00    0.09  0.07 -0.00    0.00  0.00  0.00   
      4   H               -0.33  0.11 -0.01    0.37 -0.15 -0.00   -0.38  0.15  0.00   
      5   H               -0.33  0.11  0.01    0.37 -0.15  0.00    0.38 -0.15  0.00   
      6   H               -0.08  0.56  0.00   -0.06  0.40  0.00   -0.06  0.40  0.00   
      7   H               -0.08  0.56 -0.00   -0.06  0.40 -0.00    0.06 -0.40  0.00   
      8   H                0.18  0.12  0.02   -0.31 -0.25  0.00    0.32  0.25 -0.00   
      9   H                0.18  0.12 -0.02   -0.31 -0.25 -0.00   -0.32 -0.25 -0.00   

  Vibration                       16                  17                  18          
  Freq [cm^-1]                1195.0686           1238.4274           1238.4295       
  Irrep                           Ap                 App                 App          
  Reduced mass [u]              2.9570              1.4437              1.4437        
  Force const [mDyne/A]         2.4882              1.3046              1.3046        
  Turning point v=0 [a0]        0.1846              0.2595              0.2595        
  RMS dev v=0 [a0 u^1/2]        0.2244              0.2205              0.2205        
  Char temp [K]               1719.4377           1781.8213           1781.8243       
  ----------------------------------------------------------------------------------
      1   C               -0.09 -0.23 -0.00   -0.00 -0.00  0.16   -0.00 -0.00 -0.04   
      2   C                0.24  0.04 -0.00    0.00  0.00 -0.05    0.00  0.00  0.16   
      3   C               -0.15  0.19  0.00   -0.00  0.00 -0.11   -0.00  0.00 -0.12   
      4   H               -0.13 -0.34 -0.05   -0.06 -0.39 -0.08    0.39 -0.06  0.02   
      5   H               -0.13 -0.34  0.05    0.06  0.39 -0.08   -0.39  0.06  0.02   
      6   H                0.36  0.05  0.05    0.06  0.39  0.02   -0.39  0.06 -0.08   
      7   H                0.36  0.05 -0.05   -0.06 -0.39  0.02    0.39 -0.06 -0.08   
      8   H               -0.23  0.29 -0.05   -0.06 -0.39  0.05    0.39 -0.06  0.06   
      9   H               -0.23  0.29  0.05    0.06  0.39  0.05   -0.39  0.06  0.06   

  Vibration                       19                  20                  21          
  Freq [cm^-1]                1505.8766           1505.8957           1546.4328       
  Irrep                           Ap                  Ap                  Ap          
  Reduced mass [u]              1.0887              1.0887              1.2679        
  Force const [mDyne/A]         1.4546              1.4546              1.7864        
  Turning point v=0 [a0]        0.2710              0.2710              0.2478        
  RMS dev v=0 [a0 u^1/2]        0.1999              0.1999              0.1973        
  Char temp [K]               2166.6212           2166.6487           2224.9724       
  ----------------------------------------------------------------------------------
      1   C               -0.02 -0.06 -0.00   -0.02 -0.02 -0.00   -0.03 -0.08  0.00   
      2   C               -0.00 -0.01  0.00   -0.07 -0.01  0.00    0.09  0.01 -0.00   
      3   C                0.03 -0.05  0.00   -0.03  0.02 -0.00   -0.06  0.07  0.00   
      4   H                0.15  0.39  0.29    0.09  0.19  0.15    0.12  0.29  0.25   
      5   H                0.15  0.39 -0.29    0.09  0.19 -0.15    0.12  0.29 -0.25   
      6   H                0.02  0.02  0.02    0.47  0.07  0.33   -0.31 -0.05 -0.25   
      7   H                0.02  0.02 -0.02    0.47  0.07 -0.33   -0.31 -0.05  0.25   
      8   H               -0.24  0.32 -0.27    0.17 -0.19  0.18    0.20 -0.25  0.25   
      9   H               -0.24  0.32  0.27    0.17 -0.19 -0.18    0.20 -0.25 -0.25   

  Vibration                       22                  23                  24          
  Freq [cm^-1]                3047.3748           3047.3991           3059.5057       
  Irrep                           Ap                  Ap                  Ap          
  Reduced mass [u]              1.0496              1.0496              1.0628        
  Force const [mDyne/A]         5.7429              5.7430              5.8616        
  Turning point v=0 [a0]        0.1940              0.1940              0.1924        
  RMS dev v=0 [a0 u^1/2]        0.1406              0.1406              0.1403        
  Char temp [K]               4384.4939           4384.5288           4401.9476       
  ----------------------------------------------------------------------------------
      1   C                0.02  0.05 -0.00    0.00  0.01  0.00    0.01  0.04 -0.00   
      2   C                0.02  0.00 -0.00    0.05  0.01 -0.00   -0.04 -0.01  0.00   
      3   C               -0.02  0.03  0.00    0.02 -0.03 -0.00    0.03 -0.03 -0.00   
      4   H               -0.11 -0.27  0.48   -0.02 -0.05  0.10   -0.08 -0.19  0.35   
      5   H               -0.11 -0.27 -0.48   -0.02 -0.05 -0.10   -0.08 -0.19 -0.35   
      6   H               -0.09 -0.02  0.16   -0.28 -0.04  0.47    0.21  0.03 -0.35   
      7   H               -0.09 -0.02 -0.16   -0.28 -0.04 -0.47    0.21  0.03  0.35   
      8   H                0.12 -0.15 -0.32   -0.14  0.17  0.37   -0.13  0.16  0.35   
      9   H                0.12 -0.15  0.32   -0.14  0.17 -0.37   -0.13  0.16 -0.35   

  Vibration                       25                  26                  27          
  Freq [cm^-1]                3110.2534           3110.2650           3132.2980       
  Irrep                          App                 App                 App          
  Reduced mass [u]              1.1214              1.1215              1.1163        
  Force const [mDyne/A]         6.3918              6.3918              6.4532        
  Turning point v=0 [a0]        0.1858              0.1858              0.1856        
  RMS dev v=0 [a0 u^1/2]        0.1391              0.1391              0.1386        
  Char temp [K]               4474.9622           4474.9789           4506.6794       
  ----------------------------------------------------------------------------------
      1   C                0.00  0.00  0.02   -0.00 -0.00 -0.08   -0.00 -0.00 -0.06   
      2   C               -0.00 -0.00 -0.08   -0.00 -0.00  0.03   -0.00 -0.00 -0.06   
      3   C                0.00 -0.00  0.06    0.00 -0.00  0.05   -0.00  0.00 -0.06   
      4   H                0.02  0.06 -0.09   -0.11 -0.28  0.48   -0.08 -0.20  0.34   
      5   H               -0.02 -0.06 -0.09    0.11  0.28  0.48    0.08  0.20  0.34   
      6   H               -0.29 -0.04  0.46    0.10  0.01 -0.16   -0.22 -0.03  0.34   
      7   H                0.29  0.04  0.46   -0.10 -0.01 -0.16    0.22  0.03  0.34   
      8   H                0.14 -0.18 -0.36    0.13 -0.16 -0.32   -0.14  0.17  0.34   
      9   H               -0.14  0.18 -0.36   -0.13  0.16 -0.32    0.14 -0.17  0.34   

  ==> Thermochemistry Components <==

  Entropy, S
    Electronic S            0.000 [cal/(mol K)]        0.000 [J/(mol K)]       0.00000000 [mEh/K] (multiplicity = 1)
    Translational S        37.135 [cal/(mol K)]      155.375 [J/(mol K)]       0.05917914 [mEh/K] (mol. weight = 42.0470 [u], P = 101325.00 [Pa])
    Rotational S           21.699 [cal/(mol K)]       90.789 [J/(mol K)]       0.03457982 [mEh/K] (symmetry no. = 1)
    Vibrational S           1.212 [cal/(mol K)]        5.072 [J/(mol K)]       0.00193176 [mEh/K]
  Total S                  60.047 [cal/(mol K)]      251.236 [J/(mol K)]       0.09569072 [mEh/K]
  Correction S              0.000 [cal/(mol K)]        0.000 [J/(mol K)]       0.00000000 [mEh/K]

  Constant volume heat capacity, Cv
    Electronic Cv           0.000 [cal/(mol K)]        0.000 [J/(mol K)]       0.00000000 [mEh/K]
    Translational Cv        2.981 [cal/(mol K)]       12.472 [J/(mol K)]       0.00475022 [mEh/K]
    Rotational Cv           2.981 [cal/(mol K)]       12.472 [J/(mol K)]       0.00475022 [mEh/K]
    Vibrational Cv          4.642 [cal/(mol K)]       19.422 [J/(mol K)]       0.00739726 [mEh/K]
  Total Cv                 10.603 [cal/(mol K)]       44.365 [J/(mol K)]       0.01689769 [mEh/K]
  Correction Cv             0.000 [cal/(mol K)]        0.000 [J/(mol K)]       0.00000000 [mEh/K]

  Constant pressure heat capacity, Cp
    Electronic Cp           0.000 [cal/(mol K)]        0.000 [J/(mol K)]       0.00000000 [mEh/K]
    Translational Cp        4.968 [cal/(mol K)]       20.786 [J/(mol K)]       0.00791703 [mEh/K]
    Rotational Cp           2.981 [cal/(mol K)]       12.472 [J/(mol K)]       0.00475022 [mEh/K]
    Vibrational Cp          4.642 [cal/(mol K)]       19.422 [J/(mol K)]       0.00739726 [mEh/K]
  Total Cp                 12.591 [cal/(mol K)]       52.679 [J/(mol K)]       0.02006451 [mEh/K]
  Correction Cp             0.000 [cal/(mol K)]        0.000 [J/(mol K)]       0.00000000 [mEh/K]

  ==> Thermochemistry Energy Analysis <==

  Raw electronic energy, E0
  Total E0, Electronic energy at well bottom at 0 [K]                 -117.67934536 [Eh]

  Zero-point energy, ZPE_vib = Sum_i nu_i / 2
    Electronic ZPE          0.000 [kcal/mol]        0.000 [kJ/mol]       0.00000000 [Eh]
    Translational ZPE       0.000 [kcal/mol]        0.000 [kJ/mol]       0.00000000 [Eh]
    Rotational ZPE          0.000 [kcal/mol]        0.000 [kJ/mol]       0.00000000 [Eh]
    Vibrational ZPE        50.788 [kcal/mol]      212.498 [kJ/mol]       0.08093624 [Eh]       17763.452 [cm^-1]
  Correction ZPE           50.788 [kcal/mol]      212.498 [kJ/mol]       0.08093624 [Eh]       17763.452 [cm^-1]
  Total ZPE, Electronic energy at 0 [K]                               -117.59840912 [Eh]

  Thermal Energy, E (includes ZPE)
    Electronic E            0.000 [kcal/mol]        0.000 [kJ/mol]       0.00000000 [Eh]
    Translational E         0.889 [kcal/mol]        3.718 [kJ/mol]       0.00141628 [Eh]
    Rotational E            0.889 [kcal/mol]        3.718 [kJ/mol]       0.00141628 [Eh]
    Vibrational E          51.084 [kcal/mol]      213.737 [kJ/mol]       0.08140794 [Eh]
  Correction E             52.862 [kcal/mol]      221.173 [kJ/mol]       0.08424049 [Eh]
  Total E, Electronic energy at  298.15 [K]                           -117.59510487 [Eh]

  Enthalpy, H_trans = E_trans + k_B * T
    Electronic H            0.000 [kcal/mol]        0.000 [kJ/mol]       0.00000000 [Eh]
    Translational H         1.481 [kcal/mol]        6.197 [kJ/mol]       0.00236046 [Eh]
    Rotational H            0.889 [kcal/mol]        3.718 [kJ/mol]       0.00141628 [Eh]
    Vibrational H          51.084 [kcal/mol]      213.737 [kJ/mol]       0.08140794 [Eh]
  Correction H             53.454 [kcal/mol]      223.652 [kJ/mol]       0.08518467 [Eh]
  Total H, Enthalpy at  298.15 [K]                                    -117.59416069 [Eh]

  Gibbs free energy, G = H - T * S
    Electronic G            0.000 [kcal/mol]        0.000 [kJ/mol]       0.00000000 [Eh]
    Translational G        -9.591 [kcal/mol]      -40.128 [kJ/mol]      -0.01528380 [Eh]
    Rotational G           -5.581 [kcal/mol]      -23.350 [kJ/mol]      -0.00889370 [Eh]
    Vibrational G          50.723 [kcal/mol]      212.224 [kJ/mol]       0.08083198 [Eh]
  Correction G             35.551 [kcal/mol]      148.746 [kJ/mol]       0.05665449 [Eh]
  Total G, Free enthalpy at  298.15 [K]                               -117.62269087 [Eh]

    Psi4 stopped on: Tuesday, 19 April 2022 02:36AM
    Psi4 wall time for execution: 0:13:30.25

*** Psi4 exiting successfully. Buy a developer a beer!
