
    -----------------------------------------------------------------------
          Psi4: An Open-Source Ab Initio Electronic Structure Package
                               Psi4 1.3.2 release

                         Git: Rev {HEAD} ecbda83 


    R. M. Parrish, L. A. Burns, D. G. A. Smith, A. C. Simmonett,
    A. E. DePrince III, E. G. Hohenstein, U. Bozkaya, A. Yu. Sokolov,
    R. Di Remigio, R. M. Richard, J. F. Gonthier, A. M. James,
    H. R. McAlexander, A. Kumar, M. Saitow, X. Wang, B. P. Pritchard,
    P. Verma, H. F. Schaefer III, K. Patkowski, R. A. King, E. F. Valeev,
    F. A. Evangelista, J. M. Turney, T. D. Crawford, and C. D. Sherrill,
    J. Chem. Theory Comput. 13(7) pp 3185--3197 (2017).
    (doi: 10.1021/acs.jctc.7b00174)


                         Additional Contributions by
    P. Kraus, H. Kruse, M. H. Lechner, M. C. Schieber, R. A. Shaw,
    A. Alenaizan, R. Galvelis, Z. L. Glick, S. Lehtola, and J. P. Misiewicz

    -----------------------------------------------------------------------


    Psi4 started on: Tuesday, 19 April 2022 01:58AM

    Process ID: 25949
    Host:       atlantis
    PSIDATADIR: /home/akrom/software/anaconda3/envs/ffpenv/share/psi4
    Memory:     500.0 MiB
    Threads:    1
    
  ==> Input File <==

--------------------------------------------------------------------------
set basis  cc-pVTZ
molecule {
0 1
   C       -0.61446        0.00000        0.00000
   C        0.61446        0.00000        0.00000
   H       -1.68923        0.00000        0.00000
   H        1.68923        0.00000        0.00000
}
energy('scf')
frequencies('scf')
--------------------------------------------------------------------------

*** tstart() called on atlantis
*** at Tue Apr 19 01:58:38 2022

   => Loading Basis Set <=

    Name: CC-PVTZ
    Role: ORBITAL
    Keyword: BASIS
    atoms 1-2 entry C          line   186 file /home/akrom/software/anaconda3/envs/ffpenv/share/psi4/basis/cc-pvtz.gbs 
    atoms 3-4 entry H          line    23 file /home/akrom/software/anaconda3/envs/ffpenv/share/psi4/basis/cc-pvtz.gbs 


         ---------------------------------------------------------
                                   SCF
               by Justin Turney, Rob Parrish, Andy Simmonett
                          and Daniel G. A. Smith
                              RHF Reference
                        1 Threads,    500 MiB Core
         ---------------------------------------------------------

  ==> Geometry <==

    Molecular point group: d2h
    Full point group: D_inf_h

    Geometry (in Angstrom), charge = 0, multiplicity = 1:

       Center              X                  Y                   Z               Mass       
    ------------   -----------------  -----------------  -----------------  -----------------
         C           -0.614460000000    -0.000000000000     0.000000000000    12.000000000000
         C            0.614460000000     0.000000000000     0.000000000000    12.000000000000
         H           -1.689230000000    -0.000000000000     0.000000000000     1.007825032230
         H            1.689230000000     0.000000000000     0.000000000000     1.007825032230

  Running in d2h symmetry.

  Rotational constants: A = ************  B =      1.13802  C =      1.13802 [cm^-1]
  Rotational constants: A = ************  B =  34116.98697  C =  34116.98697 [MHz]
  Nuclear repulsion =   24.323218171379235

  Charge       = 0
  Multiplicity = 1
  Electrons    = 14
  Nalpha       = 7
  Nbeta        = 7

  ==> Algorithm <==

  SCF Algorithm Type is DF.
  DIIS enabled.
  MOM disabled.
  Fractional occupation disabled.
  Guess Type is SAD.
  Energy threshold   = 1.00e-06
  Density threshold  = 1.00e-06
  Integral threshold = 0.00e+00

  ==> Primary Basis <==

  Basis Set: CC-PVTZ
    Blend: CC-PVTZ
    Number of shells: 32
    Number of basis function: 88
    Number of Cartesian functions: 100
    Spherical Harmonics?: true
    Max angular momentum: 3

   => Loading Basis Set <=

    Name: (CC-PVTZ AUX)
    Role: JKFIT
    Keyword: DF_BASIS_SCF
    atoms 1-2 entry C          line   125 file /home/akrom/software/anaconda3/envs/ffpenv/share/psi4/basis/cc-pvtz-jkfit.gbs 
    atoms 3-4 entry H          line    51 file /home/akrom/software/anaconda3/envs/ffpenv/share/psi4/basis/cc-pvtz-jkfit.gbs 

  ==> Pre-Iterations <==

   -------------------------------------------------------
    Irrep   Nso     Nmo     Nalpha   Nbeta   Ndocc  Nsocc
   -------------------------------------------------------
     Ag        20      20       0       0       0       0
     B1g       10      10       0       0       0       0
     B2g       10      10       0       0       0       0
     B3g        4       4       0       0       0       0
     Au         4       4       0       0       0       0
     B1u       10      10       0       0       0       0
     B2u       10      10       0       0       0       0
     B3u       20      20       0       0       0       0
   -------------------------------------------------------
    Total      88      88       7       7       7       0
   -------------------------------------------------------

  ==> Integral Setup <==

  DFHelper Memory: AOs need 0.015 GiB; user supplied 0.366 GiB. Using in-core AOs.

  ==> MemDFJK: Density-Fitted J/K Matrices <==

    J tasked:                   Yes
    K tasked:                   Yes
    wK tasked:                   No
    OpenMP threads:               1
    Memory [MiB]:               375
    Algorithm:                 Core
    Schwarz Cutoff:           1E-12
    Mask sparsity (%):       0.1033
    Fitting Condition:        1E-10

   => Auxiliary Basis Set <=

  Basis Set: (CC-PVTZ AUX)
    Blend: CC-PVTZ-JKFIT
    Number of shells: 70
    Number of basis function: 218
    Number of Cartesian functions: 262
    Spherical Harmonics?: true
    Max angular momentum: 4

  Minimum eigenvalue in the overlap matrix is 1.4146724323E-04.
  Using Symmetric Orthogonalization.

  SCF Guess: Superposition of Atomic Densities via on-the-fly atomic UHF.

  ==> Iterations <==

                           Total Energy        Delta E     RMS |[F,P]|

   @DF-RHF iter SAD:   -75.89507625649381   -7.58951e+01   0.00000e+00 
   @DF-RHF iter   1:   -76.80615378356157   -9.11078e-01   7.81144e-03 DIIS
   @DF-RHF iter   2:   -76.84056278746620   -3.44090e-02   2.66569e-03 DIIS
   @DF-RHF iter   3:   -76.84480391923567   -4.24113e-03   3.33375e-04 DIIS
   @DF-RHF iter   4:   -76.84494831257481   -1.44393e-04   4.09784e-05 DIIS
   @DF-RHF iter   5:   -76.84495058282556   -2.27025e-06   7.00583e-06 DIIS
   @DF-RHF iter   6:   -76.84495064691613   -6.40906e-08   1.23598e-06 DIIS
   @DF-RHF iter   7:   -76.84495064913321   -2.21708e-09   1.72282e-07 DIIS
  Energy and wave function converged.


  ==> Post-Iterations <==

    Orbital Energies [Eh]
    ---------------------

    Doubly Occupied:                                                      

       1Ag   -11.251007     1B3u  -11.247755     2Ag    -1.020469  
       2B3u   -0.765345     3Ag    -0.674971     1B1u   -0.403733  
       1B2u   -0.403733  

    Virtual:                                                              

       3B3u    0.149005     4Ag     0.170472     1B2g    0.170701  
       1B1g    0.170701     5Ag     0.311570     4B3u    0.397229  
       2B1u    0.437079     2B2u    0.437079     5B3u    0.512902  
       2B1g    0.570539     2B2g    0.570539     6Ag     0.601564  
       7Ag     0.772297     8Ag     0.772893     1B3g    0.772893  
       3B2u    0.796736     3B1u    0.796736     6B3u    0.934340  
       7B3u    1.060070     3B2g    1.061314     3B1g    1.061314  
       8B3u    1.090932     1Au     1.090932     9Ag     1.201202  
       4B1u    1.442812     4B2u    1.442812     9B3u    1.597774  
      10Ag     1.670194     4B2g    1.672259     4B1g    1.672259  
      10B3u    1.998278     5B1u    2.325776     5B2u    2.325776  
      11Ag     2.499130    11B3u    2.656104    12Ag     2.706288  
       2B3g    2.706288     5B2g    2.751593     5B1g    2.751593  
       6B1u    2.827388     6B2u    2.827388     7B1u    3.016415  
       7B2u    3.016415    13Ag     3.141280     6B2g    3.224954  
       6B1g    3.224954     7B1g    3.226368     7B2g    3.226368  
      14Ag     3.228309    15Ag     3.232113     3B3g    3.232113  
      12B3u    3.258313    13B3u    3.295547     2Au     3.295547  
       8B1u    3.437148     8B2u    3.437148    14B3u    3.459242  
       3Au     3.459242    15B3u    3.867406    16Ag     3.885130  
       4B3g    3.885130     8B2g    4.137438     8B1g    4.137438  
       9B1u    4.263891     9B2u    4.263891    17Ag     4.452973  
      16B3u    4.469139     4Au     4.469139    17B3u    4.779997  
       9B2g    4.846676     9B1g    4.846676    18Ag     5.157680  
      10B2u    5.731851    10B1u    5.731851    18B3u    6.094500  
      10B2g    6.301147    10B1g    6.301147    19B3u    6.335886  
      19Ag     6.700060    20Ag     9.380500    20B3u   16.156323  

    Final Occupation by Irrep:
             Ag   B1g   B2g   B3g    Au   B1u   B2u   B3u 
    DOCC [     3,    0,    0,    0,    0,    1,    1,    2 ]

  @DF-RHF Final Energy:   -76.84495064913321

   => Energetics <=

    Nuclear Repulsion Energy =             24.3232181713792350
    One-Electron Energy =                -150.8023088557203266
    Two-Electron Energy =                  49.6341400352078850
    Total Energy =                        -76.8449506491332102

Computation Completed


Properties will be evaluated at   0.000000,   0.000000,   0.000000 [a0]

Properties computed using the SCF density matrix

  Nuclear Dipole Moment: [e a0]
     X:     0.0000      Y:     0.0000      Z:     0.0000

  Electronic Dipole Moment: [e a0]
     X:     0.0000      Y:     0.0000      Z:     0.0000

  Dipole Moment: [e a0]
     X:     0.0000      Y:     0.0000      Z:     0.0000     Total:     0.0000

  Dipole Moment: [D]
     X:     0.0000      Y:     0.0000      Z:     0.0000     Total:     0.0000


*** tstop() called on atlantis at Tue Apr 19 01:58:38 2022
Module time:
	user time   =       0.49 seconds =       0.01 minutes
	system time =       0.02 seconds =       0.00 minutes
	total time  =          0 seconds =       0.00 minutes
Total time:
	user time   =       0.49 seconds =       0.01 minutes
	system time =       0.02 seconds =       0.00 minutes
	total time  =          0 seconds =       0.00 minutes
gradient() will perform analytic gradient computation.

*** tstart() called on atlantis
*** at Tue Apr 19 01:58:38 2022

   => Loading Basis Set <=

    Name: CC-PVTZ
    Role: ORBITAL
    Keyword: BASIS
    atoms 1-2 entry C          line   186 file /home/akrom/software/anaconda3/envs/ffpenv/share/psi4/basis/cc-pvtz.gbs 
    atoms 3-4 entry H          line    23 file /home/akrom/software/anaconda3/envs/ffpenv/share/psi4/basis/cc-pvtz.gbs 


         ---------------------------------------------------------
                                   SCF
               by Justin Turney, Rob Parrish, Andy Simmonett
                          and Daniel G. A. Smith
                              RHF Reference
                        1 Threads,    500 MiB Core
         ---------------------------------------------------------

  ==> Geometry <==

    Molecular point group: d2h
    Full point group: D_inf_h

    Geometry (in Angstrom), charge = 0, multiplicity = 1:

       Center              X                  Y                   Z               Mass       
    ------------   -----------------  -----------------  -----------------  -----------------
         C           -0.614460000000    -0.000000000000     0.000000000000    12.000000000000
         C            0.614460000000     0.000000000000     0.000000000000    12.000000000000
         H           -1.689230000000    -0.000000000000     0.000000000000     1.007825032230
         H            1.689230000000     0.000000000000     0.000000000000     1.007825032230

  Running in d2h symmetry.

  Rotational constants: A = ************  B =      1.13802  C =      1.13802 [cm^-1]
  Rotational constants: A = ************  B =  34116.98697  C =  34116.98697 [MHz]
  Nuclear repulsion =   24.323218171379235

  Charge       = 0
  Multiplicity = 1
  Electrons    = 14
  Nalpha       = 7
  Nbeta        = 7

  ==> Algorithm <==

  SCF Algorithm Type is DF.
  DIIS enabled.
  MOM disabled.
  Fractional occupation disabled.
  Guess Type is SAD.
  Energy threshold   = 1.00e-08
  Density threshold  = 1.00e-08
  Integral threshold = 0.00e+00

  ==> Primary Basis <==

  Basis Set: CC-PVTZ
    Blend: CC-PVTZ
    Number of shells: 32
    Number of basis function: 88
    Number of Cartesian functions: 100
    Spherical Harmonics?: true
    Max angular momentum: 3

   => Loading Basis Set <=

    Name: (CC-PVTZ AUX)
    Role: JKFIT
    Keyword: DF_BASIS_SCF
    atoms 1-2 entry C          line   125 file /home/akrom/software/anaconda3/envs/ffpenv/share/psi4/basis/cc-pvtz-jkfit.gbs 
    atoms 3-4 entry H          line    51 file /home/akrom/software/anaconda3/envs/ffpenv/share/psi4/basis/cc-pvtz-jkfit.gbs 

  ==> Pre-Iterations <==

   -------------------------------------------------------
    Irrep   Nso     Nmo     Nalpha   Nbeta   Ndocc  Nsocc
   -------------------------------------------------------
     Ag        20      20       0       0       0       0
     B1g       10      10       0       0       0       0
     B2g       10      10       0       0       0       0
     B3g        4       4       0       0       0       0
     Au         4       4       0       0       0       0
     B1u       10      10       0       0       0       0
     B2u       10      10       0       0       0       0
     B3u       20      20       0       0       0       0
   -------------------------------------------------------
    Total      88      88       7       7       7       0
   -------------------------------------------------------

  ==> Integral Setup <==

  DFHelper Memory: AOs need 0.015 GiB; user supplied 0.366 GiB. Using in-core AOs.

  ==> MemDFJK: Density-Fitted J/K Matrices <==

    J tasked:                   Yes
    K tasked:                   Yes
    wK tasked:                   No
    OpenMP threads:               1
    Memory [MiB]:               375
    Algorithm:                 Core
    Schwarz Cutoff:           1E-12
    Mask sparsity (%):       0.1033
    Fitting Condition:        1E-10

   => Auxiliary Basis Set <=

  Basis Set: (CC-PVTZ AUX)
    Blend: CC-PVTZ-JKFIT
    Number of shells: 70
    Number of basis function: 218
    Number of Cartesian functions: 262
    Spherical Harmonics?: true
    Max angular momentum: 4

  Minimum eigenvalue in the overlap matrix is 1.4146724323E-04.
  Using Symmetric Orthogonalization.

  SCF Guess: Superposition of Atomic Densities via on-the-fly atomic UHF.

  ==> Iterations <==

                           Total Energy        Delta E     RMS |[F,P]|

   @DF-RHF iter SAD:   -75.89507625649381   -7.58951e+01   0.00000e+00 
   @DF-RHF iter   1:   -76.80615378356157   -9.11078e-01   7.81144e-03 DIIS
   @DF-RHF iter   2:   -76.84056278746620   -3.44090e-02   2.66569e-03 DIIS
   @DF-RHF iter   3:   -76.84480391923567   -4.24113e-03   3.33375e-04 DIIS
   @DF-RHF iter   4:   -76.84494831257481   -1.44393e-04   4.09784e-05 DIIS
   @DF-RHF iter   5:   -76.84495058282556   -2.27025e-06   7.00583e-06 DIIS
   @DF-RHF iter   6:   -76.84495064691613   -6.40906e-08   1.23598e-06 DIIS
   @DF-RHF iter   7:   -76.84495064913321   -2.21708e-09   1.72282e-07 DIIS
   @DF-RHF iter   8:   -76.84495064917873   -4.55174e-11   1.56319e-08 DIIS
   @DF-RHF iter   9:   -76.84495064917915   -4.26326e-13   1.61023e-09 DIIS
  Energy and wave function converged.


  ==> Post-Iterations <==

    Orbital Energies [Eh]
    ---------------------

    Doubly Occupied:                                                      

       1Ag   -11.251007     1B3u  -11.247755     2Ag    -1.020469  
       2B3u   -0.765345     3Ag    -0.674971     1B1u   -0.403734  
       1B2u   -0.403734  

    Virtual:                                                              

       3B3u    0.149005     4Ag     0.170472     1B2g    0.170701  
       1B1g    0.170701     5Ag     0.311570     4B3u    0.397229  
       2B1u    0.437079     2B2u    0.437079     5B3u    0.512902  
       2B1g    0.570539     2B2g    0.570539     6Ag     0.601564  
       7Ag     0.772297     8Ag     0.772893     1B3g    0.772893  
       3B2u    0.796736     3B1u    0.796736     6B3u    0.934340  
       7B3u    1.060070     3B2g    1.061314     3B1g    1.061314  
       8B3u    1.090932     1Au     1.090932     9Ag     1.201202  
       4B1u    1.442812     4B2u    1.442812     9B3u    1.597774  
      10Ag     1.670194     4B2g    1.672259     4B1g    1.672259  
      10B3u    1.998278     5B1u    2.325776     5B2u    2.325776  
      11Ag     2.499130    11B3u    2.656104    12Ag     2.706288  
       2B3g    2.706288     5B2g    2.751593     5B1g    2.751593  
       6B1u    2.827388     6B2u    2.827388     7B1u    3.016415  
       7B2u    3.016415    13Ag     3.141280     6B2g    3.224954  
       6B1g    3.224954     7B1g    3.226368     7B2g    3.226368  
      14Ag     3.228309    15Ag     3.232112     3B3g    3.232112  
      12B3u    3.258313    13B3u    3.295547     2Au     3.295547  
       8B1u    3.437148     8B2u    3.437148    14B3u    3.459242  
       3Au     3.459242    15B3u    3.867406    16Ag     3.885130  
       4B3g    3.885130     8B2g    4.137438     8B1g    4.137438  
       9B1u    4.263891     9B2u    4.263891    17Ag     4.452973  
      16B3u    4.469139     4Au     4.469139    17B3u    4.779997  
       9B2g    4.846676     9B1g    4.846676    18Ag     5.157680  
      10B2u    5.731851    10B1u    5.731851    18B3u    6.094500  
      10B2g    6.301147    10B1g    6.301147    19B3u    6.335886  
      19Ag     6.700060    20Ag     9.380500    20B3u   16.156323  

    Final Occupation by Irrep:
             Ag   B1g   B2g   B3g    Au   B1u   B2u   B3u 
    DOCC [     3,    0,    0,    0,    0,    1,    1,    2 ]

  @DF-RHF Final Energy:   -76.84495064917915

   => Energetics <=

    Nuclear Repulsion Energy =             24.3232181713792350
    One-Electron Energy =                -150.8023079359117844
    Two-Electron Energy =                  49.6341391153533849
    Total Energy =                        -76.8449506491791681

Computation Completed


Properties will be evaluated at   0.000000,   0.000000,   0.000000 [a0]

Properties computed using the SCF density matrix

  Nuclear Dipole Moment: [e a0]
     X:     0.0000      Y:     0.0000      Z:     0.0000

  Electronic Dipole Moment: [e a0]
     X:     0.0000      Y:     0.0000      Z:     0.0000

  Dipole Moment: [e a0]
     X:     0.0000      Y:     0.0000      Z:     0.0000     Total:     0.0000

  Dipole Moment: [D]
     X:     0.0000      Y:     0.0000      Z:     0.0000     Total:     0.0000


*** tstop() called on atlantis at Tue Apr 19 01:58:39 2022
Module time:
	user time   =       0.49 seconds =       0.01 minutes
	system time =       0.00 seconds =       0.00 minutes
	total time  =          1 seconds =       0.02 minutes
Total time:
	user time   =       0.98 seconds =       0.02 minutes
	system time =       0.02 seconds =       0.00 minutes
	total time  =          1 seconds =       0.02 minutes

*** tstart() called on atlantis
*** at Tue Apr 19 01:58:39 2022


         ------------------------------------------------------------
                                   SCF GRAD                          
                          Rob Parrish, Justin Turney,                
                       Andy Simmonett, and Alex Sokolov              
         ------------------------------------------------------------

  ==> Geometry <==

    Molecular point group: d2h
    Full point group: D_inf_h

    Geometry (in Angstrom), charge = 0, multiplicity = 1:

       Center              X                  Y                   Z               Mass       
    ------------   -----------------  -----------------  -----------------  -----------------
         C           -0.614460000000    -0.000000000000     0.000000000000    12.000000000000
         C            0.614460000000     0.000000000000     0.000000000000    12.000000000000
         H           -1.689230000000    -0.000000000000     0.000000000000     1.007825032230
         H            1.689230000000     0.000000000000     0.000000000000     1.007825032230

  Nuclear repulsion =   24.323218171379235

  ==> Basis Set <==

  Basis Set: CC-PVTZ
    Blend: CC-PVTZ
    Number of shells: 32
    Number of basis function: 88
    Number of Cartesian functions: 100
    Spherical Harmonics?: true
    Max angular momentum: 3

  ==> DFJKGrad: Density-Fitted SCF Gradients <==

    Gradient:                    1
    J tasked:                  Yes
    K tasked:                  Yes
    wK tasked:                  No
    OpenMP threads:              1
    Integrals threads:           1
    Memory [MiB]:              375
    Schwarz Cutoff:          0E+00
    Fitting Condition:       1E-10

   => Auxiliary Basis Set <=

  Basis Set: (CC-PVTZ AUX)
    Blend: CC-PVTZ-JKFIT
    Number of shells: 70
    Number of basis function: 218
    Number of Cartesian functions: 262
    Spherical Harmonics?: true
    Max angular momentum: 4


  -Total Gradient:
     Atom            X                  Y                   Z
    ------   -----------------  -----------------  -----------------
       1       -0.087097151034    -0.000000000000     0.000000000000
       2        0.087097151034     0.000000000000     0.000000000000
       3       -0.015930871138    -0.000000000000     0.000000000000
       4        0.015930871138     0.000000000000     0.000000000000


*** tstop() called on atlantis at Tue Apr 19 01:58:39 2022
Module time:
	user time   =       0.35 seconds =       0.01 minutes
	system time =       0.01 seconds =       0.00 minutes
	total time  =          0 seconds =       0.00 minutes
Total time:
	user time   =       1.33 seconds =       0.02 minutes
	system time =       0.03 seconds =       0.00 minutes
	total time  =          1 seconds =       0.02 minutes

  Based on options and gradient (rms=3.61E-02), recommend projecting translations and not projecting rotations.
hessian() will perform analytic frequency computation.

*** tstart() called on atlantis
*** at Tue Apr 19 01:58:39 2022

   => Loading Basis Set <=

    Name: CC-PVTZ
    Role: ORBITAL
    Keyword: BASIS
    atoms 1-2 entry C          line   186 file /home/akrom/software/anaconda3/envs/ffpenv/share/psi4/basis/cc-pvtz.gbs 
    atoms 3-4 entry H          line    23 file /home/akrom/software/anaconda3/envs/ffpenv/share/psi4/basis/cc-pvtz.gbs 


         ---------------------------------------------------------
                                   SCF
               by Justin Turney, Rob Parrish, Andy Simmonett
                          and Daniel G. A. Smith
                              RHF Reference
                        1 Threads,    500 MiB Core
         ---------------------------------------------------------

  ==> Geometry <==

    Molecular point group: d2h
    Full point group: D_inf_h

    Geometry (in Angstrom), charge = 0, multiplicity = 1:

       Center              X                  Y                   Z               Mass       
    ------------   -----------------  -----------------  -----------------  -----------------
         C           -0.614460000000    -0.000000000000     0.000000000000    12.000000000000
         C            0.614460000000     0.000000000000     0.000000000000    12.000000000000
         H           -1.689230000000    -0.000000000000     0.000000000000     1.007825032230
         H            1.689230000000     0.000000000000     0.000000000000     1.007825032230

  Running in d2h symmetry.

  Rotational constants: A = ************  B =      1.13802  C =      1.13802 [cm^-1]
  Rotational constants: A = ************  B =  34116.98697  C =  34116.98697 [MHz]
  Nuclear repulsion =   24.323218171379235

  Charge       = 0
  Multiplicity = 1
  Electrons    = 14
  Nalpha       = 7
  Nbeta        = 7

  ==> Algorithm <==

  SCF Algorithm Type is DF.
  DIIS enabled.
  MOM disabled.
  Fractional occupation disabled.
  Guess Type is SAD.
  Energy threshold   = 1.00e-08
  Density threshold  = 1.00e-08
  Integral threshold = 0.00e+00

  ==> Primary Basis <==

  Basis Set: CC-PVTZ
    Blend: CC-PVTZ
    Number of shells: 32
    Number of basis function: 88
    Number of Cartesian functions: 100
    Spherical Harmonics?: true
    Max angular momentum: 3

   => Loading Basis Set <=

    Name: (CC-PVTZ AUX)
    Role: JKFIT
    Keyword: DF_BASIS_SCF
    atoms 1-2 entry C          line   125 file /home/akrom/software/anaconda3/envs/ffpenv/share/psi4/basis/cc-pvtz-jkfit.gbs 
    atoms 3-4 entry H          line    51 file /home/akrom/software/anaconda3/envs/ffpenv/share/psi4/basis/cc-pvtz-jkfit.gbs 

  ==> Pre-Iterations <==

   -------------------------------------------------------
    Irrep   Nso     Nmo     Nalpha   Nbeta   Ndocc  Nsocc
   -------------------------------------------------------
     Ag        20      20       0       0       0       0
     B1g       10      10       0       0       0       0
     B2g       10      10       0       0       0       0
     B3g        4       4       0       0       0       0
     Au         4       4       0       0       0       0
     B1u       10      10       0       0       0       0
     B2u       10      10       0       0       0       0
     B3u       20      20       0       0       0       0
   -------------------------------------------------------
    Total      88      88       7       7       7       0
   -------------------------------------------------------

  ==> Integral Setup <==

  DFHelper Memory: AOs need 0.015 GiB; user supplied 0.366 GiB. Using in-core AOs.

  ==> MemDFJK: Density-Fitted J/K Matrices <==

    J tasked:                   Yes
    K tasked:                   Yes
    wK tasked:                   No
    OpenMP threads:               1
    Memory [MiB]:               375
    Algorithm:                 Core
    Schwarz Cutoff:           1E-12
    Mask sparsity (%):       0.1033
    Fitting Condition:        1E-10

   => Auxiliary Basis Set <=

  Basis Set: (CC-PVTZ AUX)
    Blend: CC-PVTZ-JKFIT
    Number of shells: 70
    Number of basis function: 218
    Number of Cartesian functions: 262
    Spherical Harmonics?: true
    Max angular momentum: 4

  Minimum eigenvalue in the overlap matrix is 1.4146724323E-04.
  Using Symmetric Orthogonalization.

  SCF Guess: Superposition of Atomic Densities via on-the-fly atomic UHF.

  ==> Iterations <==

                           Total Energy        Delta E     RMS |[F,P]|

   @DF-RHF iter SAD:   -75.89507625649381   -7.58951e+01   0.00000e+00 
   @DF-RHF iter   1:   -76.80615378356157   -9.11078e-01   7.81144e-03 DIIS
   @DF-RHF iter   2:   -76.84056278746620   -3.44090e-02   2.66569e-03 DIIS
   @DF-RHF iter   3:   -76.84480391923567   -4.24113e-03   3.33375e-04 DIIS
   @DF-RHF iter   4:   -76.84494831257481   -1.44393e-04   4.09784e-05 DIIS
   @DF-RHF iter   5:   -76.84495058282556   -2.27025e-06   7.00583e-06 DIIS
   @DF-RHF iter   6:   -76.84495064691613   -6.40906e-08   1.23598e-06 DIIS
   @DF-RHF iter   7:   -76.84495064913321   -2.21708e-09   1.72282e-07 DIIS
   @DF-RHF iter   8:   -76.84495064917873   -4.55174e-11   1.56319e-08 DIIS
   @DF-RHF iter   9:   -76.84495064917915   -4.26326e-13   1.61023e-09 DIIS
  Energy and wave function converged.


  ==> Post-Iterations <==

    Orbital Energies [Eh]
    ---------------------

    Doubly Occupied:                                                      

       1Ag   -11.251007     1B3u  -11.247755     2Ag    -1.020469  
       2B3u   -0.765345     3Ag    -0.674971     1B1u   -0.403734  
       1B2u   -0.403734  

    Virtual:                                                              

       3B3u    0.149005     4Ag     0.170472     1B2g    0.170701  
       1B1g    0.170701     5Ag     0.311570     4B3u    0.397229  
       2B1u    0.437079     2B2u    0.437079     5B3u    0.512902  
       2B1g    0.570539     2B2g    0.570539     6Ag     0.601564  
       7Ag     0.772297     8Ag     0.772893     1B3g    0.772893  
       3B2u    0.796736     3B1u    0.796736     6B3u    0.934340  
       7B3u    1.060070     3B2g    1.061314     3B1g    1.061314  
       8B3u    1.090932     1Au     1.090932     9Ag     1.201202  
       4B1u    1.442812     4B2u    1.442812     9B3u    1.597774  
      10Ag     1.670194     4B2g    1.672259     4B1g    1.672259  
      10B3u    1.998278     5B1u    2.325776     5B2u    2.325776  
      11Ag     2.499130    11B3u    2.656104    12Ag     2.706288  
       2B3g    2.706288     5B2g    2.751593     5B1g    2.751593  
       6B1u    2.827388     6B2u    2.827388     7B1u    3.016415  
       7B2u    3.016415    13Ag     3.141280     6B2g    3.224954  
       6B1g    3.224954     7B1g    3.226368     7B2g    3.226368  
      14Ag     3.228309    15Ag     3.232112     3B3g    3.232112  
      12B3u    3.258313    13B3u    3.295547     2Au     3.295547  
       8B1u    3.437148     8B2u    3.437148    14B3u    3.459242  
       3Au     3.459242    15B3u    3.867406    16Ag     3.885130  
       4B3g    3.885130     8B2g    4.137438     8B1g    4.137438  
       9B1u    4.263891     9B2u    4.263891    17Ag     4.452973  
      16B3u    4.469139     4Au     4.469139    17B3u    4.779997  
       9B2g    4.846676     9B1g    4.846676    18Ag     5.157680  
      10B2u    5.731851    10B1u    5.731851    18B3u    6.094500  
      10B2g    6.301147    10B1g    6.301147    19B3u    6.335886  
      19Ag     6.700060    20Ag     9.380500    20B3u   16.156323  

    Final Occupation by Irrep:
             Ag   B1g   B2g   B3g    Au   B1u   B2u   B3u 
    DOCC [     3,    0,    0,    0,    0,    1,    1,    2 ]

  @DF-RHF Final Energy:   -76.84495064917915

   => Energetics <=

    Nuclear Repulsion Energy =             24.3232181713792350
    One-Electron Energy =                -150.8023079359117844
    Two-Electron Energy =                  49.6341391153533849
    Total Energy =                        -76.8449506491791681

Computation Completed


Properties will be evaluated at   0.000000,   0.000000,   0.000000 [a0]

Properties computed using the SCF density matrix

  Nuclear Dipole Moment: [e a0]
     X:     0.0000      Y:     0.0000      Z:     0.0000

  Electronic Dipole Moment: [e a0]
     X:     0.0000      Y:     0.0000      Z:     0.0000

  Dipole Moment: [e a0]
     X:     0.0000      Y:     0.0000      Z:     0.0000     Total:     0.0000

  Dipole Moment: [D]
     X:     0.0000      Y:     0.0000      Z:     0.0000     Total:     0.0000


*** tstop() called on atlantis at Tue Apr 19 01:58:40 2022
Module time:
	user time   =       0.47 seconds =       0.01 minutes
	system time =       0.01 seconds =       0.00 minutes
	total time  =          1 seconds =       0.02 minutes
Total time:
	user time   =       1.81 seconds =       0.03 minutes
	system time =       0.04 seconds =       0.00 minutes
	total time  =          2 seconds =       0.03 minutes

*** tstart() called on atlantis
*** at Tue Apr 19 01:58:40 2022


         ------------------------------------------------------------
                                   SCF HESS                          
                          Rob Parrish, Justin Turney,                
                       Andy Simmonett, and Alex Sokolov              
         ------------------------------------------------------------

  ==> Geometry <==

    Molecular point group: d2h
    Full point group: D_inf_h

    Geometry (in Angstrom), charge = 0, multiplicity = 1:

       Center              X                  Y                   Z               Mass       
    ------------   -----------------  -----------------  -----------------  -----------------
         C           -0.614460000000    -0.000000000000     0.000000000000    12.000000000000
         C            0.614460000000     0.000000000000     0.000000000000    12.000000000000
         H           -1.689230000000    -0.000000000000     0.000000000000     1.007825032230
         H            1.689230000000     0.000000000000     0.000000000000     1.007825032230

  Nuclear repulsion =   24.323218171379235

  ==> Basis Set <==

  Basis Set: CC-PVTZ
    Blend: CC-PVTZ
    Number of shells: 32
    Number of basis function: 88
    Number of Cartesian functions: 100
    Spherical Harmonics?: true
    Max angular momentum: 3

  ==> DFJKGrad: Density-Fitted SCF Gradients <==

    Gradient:                    2
    J tasked:                  Yes
    K tasked:                  Yes
    wK tasked:                  No
    OpenMP threads:              1
    Integrals threads:           1
    Memory [MiB]:              375
    Schwarz Cutoff:          0E+00
    Fitting Condition:       1E-10

   => Auxiliary Basis Set <=

  Basis Set: (CC-PVTZ AUX)
    Blend: CC-PVTZ-JKFIT
    Number of shells: 70
    Number of basis function: 218
    Number of Cartesian functions: 262
    Spherical Harmonics?: true
    Max angular momentum: 4

  DFHelper Memory: AOs need 0.015 GiB; user supplied 0.439 GiB. Using in-core AOs.

  ==> MemDFJK: Density-Fitted J/K Matrices <==

    J tasked:                   Yes
    K tasked:                   Yes
    wK tasked:                   No
    OpenMP threads:               1
    Memory [MiB]:               450
    Algorithm:                 Core
    Schwarz Cutoff:           1E-12
    Mask sparsity (%):       0.1033
    Fitting Condition:        1E-10

   => Auxiliary Basis Set <=

  Basis Set: (CC-PVTZ AUX)
    Blend: CC-PVTZ-JKFIT
    Number of shells: 70
    Number of basis function: 218
    Number of Cartesian functions: 262
    Spherical Harmonics?: true
    Max angular momentum: 4


         ------------------------------------------------------------
                                     CPHF                           
                                  Rob Parrish                       
         ------------------------------------------------------------

  ==> Geometry <==

    Molecular point group: d2h
    Full point group: D_inf_h

    Geometry (in Angstrom), charge = 0, multiplicity = 1:

       Center              X                  Y                   Z               Mass       
    ------------   -----------------  -----------------  -----------------  -----------------
         C           -0.614460000000    -0.000000000000     0.000000000000    12.000000000000
         C            0.614460000000     0.000000000000     0.000000000000    12.000000000000
         H           -1.689230000000    -0.000000000000     0.000000000000     1.007825032230
         H            1.689230000000     0.000000000000     0.000000000000     1.007825032230

  Nuclear repulsion =   24.323218171379235
  Reference energy  =  -76.844950649179154

  ==> Basis Set <==

  Basis Set: CC-PVTZ
    Blend: CC-PVTZ
    Number of shells: 32
    Number of basis function: 88
    Number of Cartesian functions: 100
    Spherical Harmonics?: true
    Max angular momentum: 3

  ==> CGRSolver (by Rob Parrish) <==

   Number of roots    =        12
   Preconditioning    =    JACOBI
   Convergence cutoff =     1E-06
   Maximum iterations =       100

  ==> CPHFRHamiltonian (by Rob Parrish) <== 

  ==> MemDFJK: Density-Fitted J/K Matrices <==

    J tasked:                   Yes
    K tasked:                   Yes
    wK tasked:                   No
    OpenMP threads:               1
    Memory [MiB]:               450
    Algorithm:                 Core
    Schwarz Cutoff:           1E-12
    Mask sparsity (%):       0.1033
    Fitting Condition:        1E-10

   => Auxiliary Basis Set <=

  Basis Set: (CC-PVTZ AUX)
    Blend: CC-PVTZ-JKFIT
    Number of shells: 70
    Number of basis function: 218
    Number of Cartesian functions: 262
    Spherical Harmonics?: true
    Max angular momentum: 4

  ==> CPHF Iterations <==

  => Iterations <=

             Iter  Converged  Remaining    Residual
  CGR           1          0         12   8.941E-02
  CGR           2          0         12   3.023E-02
  CGR           3          0         12   4.902E-03
  CGR           4          0         12   8.002E-04
  CGR           5          0         12   1.479E-04
  CGR           6          0         12   2.090E-05
  CGR           7          0         12   2.488E-06
  CGR           8         12          0   4.110E-07

    CGRSolver converged.


*** tstop() called on atlantis at Tue Apr 19 02:06:02 2022
Module time:
	user time   =     442.07 seconds =       7.37 minutes
	system time =       0.16 seconds =       0.00 minutes
	total time  =        442 seconds =       7.37 minutes
Total time:
	user time   =     443.88 seconds =       7.40 minutes
	system time =       0.20 seconds =       0.00 minutes
	total time  =        444 seconds =       7.40 minutes


  ==> Harmonic Vibrational Analysis <==

  non-mass-weighted Hessian:       Symmetric? True   Hermitian? True   Lin Dep Dim?  0 (0)
  projection of translations (True) and rotations (False) removed 3 degrees of freedom (5)
  total projector:                 Symmetric? True   Hermitian? True   Lin Dep Dim?  3 (3)
  mass-weighted Hessian:           Symmetric? True   Hermitian? True   Lin Dep Dim?  0 (0)
  pre-proj  low-frequency mode:    0.0000i [cm^-1]
  pre-proj  low-frequency mode:    0.0052  [cm^-1]
  pre-proj  low-frequency mode:    0.0331  [cm^-1]
  pre-proj  low-frequency mode:  389.0650  [cm^-1]
  pre-proj  low-frequency mode:  389.0650  [cm^-1]
  pre-proj  all modes:['0.0060i' '0.0052' '0.0331' '389.0650' '389.0650' '861.0563' '861.0563'
 '951.9759' '951.9759' '1944.0594' '3362.7765' '3453.3456']
  projected mass-weighted Hessian: Symmetric? True   Hermitian? True   Lin Dep Dim?  3 (3)
  post-proj low-frequency mode:    0.0000  [cm^-1] (TR)
  post-proj low-frequency mode:    0.0000  [cm^-1] (TR)
  post-proj low-frequency mode:    0.0001  [cm^-1] (TR)
  post-proj low-frequency mode:  389.0650  [cm^-1] (V)
  post-proj low-frequency mode:  389.0650  [cm^-1] (V)
  post-proj  all modes:['0.0000' '0.0000' '0.0001' '389.0650' '389.0650' '861.0563' '861.0563'
 '951.9759' '951.9759' '1944.0594' '3362.7765' '3453.3456']

  Note that "Vibration"s include 2 un-projected rotation-like modes.
  Vibration                       4                   5                   6           
  Freq [cm^-1]                 389.0650            389.0650            861.0563       
  Irrep                                                                  B2g          
  Reduced mass [u]              2.1667              2.1667              1.6285        
  Force const [mDyne/A]         0.1932              0.1932              0.7114        
  Turning point v=0 [a0]        0.3779              0.3779              0.2930        
  RMS dev v=0 [a0 u^1/2]        0.3934              0.3934              0.2644        
  IR activ [km/mol]             0.0000              0.0000              0.0000        
  Char temp [K]                559.7779            559.7779           1238.8684       
  ----------------------------------------------------------------------------------
      1   C                0.00  0.23  0.00   -0.00 -0.00  0.23    0.00  0.00 -0.17   
      2   C                0.00 -0.23 -0.00   -0.00  0.00 -0.23   -0.00 -0.00  0.17   
      3   H                0.00  0.67  0.00    0.00 -0.00  0.67    0.00 -0.00  0.69   
      4   H                0.00 -0.67 -0.00    0.00  0.00 -0.67    0.00  0.00 -0.69   

  Vibration                       7                   8                   9           
  Freq [cm^-1]                 861.0563            951.9759            951.9759       
  Irrep                          B1g                 B2u                 B1u          
  Reduced mass [u]              1.6285              1.0848              1.0848        
  Force const [mDyne/A]         0.7114              0.5792              0.5792        
  Turning point v=0 [a0]        0.2930              0.3414              0.3414        
  RMS dev v=0 [a0 u^1/2]        0.2644              0.2515              0.2515        
  IR activ [km/mol]             0.0000             115.2715            115.2715       
  Char temp [K]               1238.8684           1369.6814           1369.6814       
  ----------------------------------------------------------------------------------
      1   C               -0.00 -0.17 -0.00   -0.00 -0.06  0.00   -0.00 -0.00 -0.06   
      2   C               -0.00  0.17  0.00   -0.00 -0.06  0.00    0.00 -0.00 -0.06   
      3   H               -0.00  0.69  0.00    0.00  0.70 -0.00    0.00  0.00  0.70   
      4   H               -0.00 -0.69 -0.00    0.00  0.70 -0.00   -0.00  0.00  0.70   

  Vibration                       10                  11                  12          
  Freq [cm^-1]                1944.0594           3362.7765           3453.3456       
  Irrep                           Ag                 B3u                  Ag          
  Reduced mass [u]              4.0412              1.0848              1.2076        
  Force const [mDyne/A]         8.9986              7.2277              8.4848        
  Turning point v=0 [a0]        0.1238              0.1817              0.1699        
  RMS dev v=0 [a0 u^1/2]        0.1760              0.1338              0.1320        
  IR activ [km/mol]             0.0000             112.6874             0.0000        
  Char temp [K]               2797.0687           4838.2867           4968.5955       
  ----------------------------------------------------------------------------------
      1   C                0.37 -0.00  0.00   -0.06 -0.00  0.00   -0.10  0.00 -0.00   
      2   C               -0.37  0.00 -0.00   -0.06  0.00 -0.00    0.10 -0.00  0.00   
      3   H                0.60 -0.00 -0.00    0.70 -0.00 -0.00    0.70 -0.00 -0.00   
      4   H               -0.60  0.00  0.00    0.70 -0.00  0.00   -0.70  0.00 -0.00   

  ==> Thermochemistry Components <==

  Entropy, S
    Electronic S            0.000 [cal/(mol K)]        0.000 [J/(mol K)]       0.00000000 [mEh/K] (multiplicity = 1)
    Translational S        35.704 [cal/(mol K)]      149.387 [J/(mol K)]       0.05689862 [mEh/K] (mol. weight = 26.0157 [u], P = 101325.00 [Pa])
    Rotational S           10.952 [cal/(mol K)]       45.824 [J/(mol K)]       0.01745345 [mEh/K] (symmetry no. = 2)
    Vibrational S           2.562 [cal/(mol K)]       10.720 [J/(mol K)]       0.00408291 [mEh/K]
  Total S                  49.219 [cal/(mol K)]      205.931 [J/(mol K)]       0.07843498 [mEh/K]
  Correction S              0.000 [cal/(mol K)]        0.000 [J/(mol K)]       0.00000000 [mEh/K]

  Constant volume heat capacity, Cv
    Electronic Cv           0.000 [cal/(mol K)]        0.000 [J/(mol K)]       0.00000000 [mEh/K]
    Translational Cv        2.981 [cal/(mol K)]       12.472 [J/(mol K)]       0.00475022 [mEh/K]
    Rotational Cv           1.987 [cal/(mol K)]        8.314 [J/(mol K)]       0.00316681 [mEh/K]
    Vibrational Cv          4.978 [cal/(mol K)]       20.829 [J/(mol K)]       0.00793344 [mEh/K]
  Total Cv                  9.946 [cal/(mol K)]       41.615 [J/(mol K)]       0.01585047 [mEh/K]
  Correction Cv             0.000 [cal/(mol K)]        0.000 [J/(mol K)]       0.00000000 [mEh/K]

  Constant pressure heat capacity, Cp
    Electronic Cp           0.000 [cal/(mol K)]        0.000 [J/(mol K)]       0.00000000 [mEh/K]
    Translational Cp        4.968 [cal/(mol K)]       20.786 [J/(mol K)]       0.00791703 [mEh/K]
    Rotational Cp           1.987 [cal/(mol K)]        8.314 [J/(mol K)]       0.00316681 [mEh/K]
    Vibrational Cp          4.978 [cal/(mol K)]       20.829 [J/(mol K)]       0.00793344 [mEh/K]
  Total Cp                 11.934 [cal/(mol K)]       49.930 [J/(mol K)]       0.01901728 [mEh/K]
  Correction Cp             0.000 [cal/(mol K)]        0.000 [J/(mol K)]       0.00000000 [mEh/K]

  ==> Thermochemistry Energy Analysis <==

  Raw electronic energy, E0
  Total E0, Electronic energy at well bottom at 0 [K]                  -76.84495065 [Eh]

  Zero-point energy, ZPE_vib = Sum_i nu_i / 2
    Electronic ZPE          0.000 [kcal/mol]        0.000 [kJ/mol]       0.00000000 [Eh]
    Translational ZPE       0.000 [kcal/mol]        0.000 [kJ/mol]       0.00000000 [Eh]
    Rotational ZPE          0.000 [kcal/mol]        0.000 [kJ/mol]       0.00000000 [Eh]
    Vibrational ZPE        18.819 [kcal/mol]       78.740 [kJ/mol]       0.02999065 [Eh]        6582.188 [cm^-1]
  Correction ZPE           18.819 [kcal/mol]       78.740 [kJ/mol]       0.02999065 [Eh]        6582.188 [cm^-1]
  Total ZPE, Electronic energy at 0 [K]                                -76.81495999 [Eh]

  Thermal Energy, E (includes ZPE)
    Electronic E            0.000 [kcal/mol]        0.000 [kJ/mol]       0.00000000 [Eh]
    Translational E         0.889 [kcal/mol]        3.718 [kJ/mol]       0.00141628 [Eh]
    Rotational E            0.592 [kcal/mol]        2.479 [kJ/mol]       0.00094418 [Eh]
    Vibrational E          19.356 [kcal/mol]       80.984 [kJ/mol]       0.03084534 [Eh]
  Correction E             20.837 [kcal/mol]       87.182 [kJ/mol]       0.03320580 [Eh]
  Total E, Electronic energy at  298.15 [K]                            -76.81174485 [Eh]

  Enthalpy, H_trans = E_trans + k_B * T
    Electronic H            0.000 [kcal/mol]        0.000 [kJ/mol]       0.00000000 [Eh]
    Translational H         1.481 [kcal/mol]        6.197 [kJ/mol]       0.00236046 [Eh]
    Rotational H            0.592 [kcal/mol]        2.479 [kJ/mol]       0.00094418 [Eh]
    Vibrational H          19.356 [kcal/mol]       80.984 [kJ/mol]       0.03084534 [Eh]
  Correction H             21.429 [kcal/mol]       89.661 [kJ/mol]       0.03414999 [Eh]
  Total H, Enthalpy at  298.15 [K]                                     -76.81080066 [Eh]

  Gibbs free energy, G = H - T * S
    Electronic G            0.000 [kcal/mol]        0.000 [kJ/mol]       0.00000000 [Eh]
    Translational G        -9.164 [kcal/mol]      -38.342 [kJ/mol]      -0.01460386 [Eh]
    Rotational G           -2.673 [kcal/mol]      -11.183 [kJ/mol]      -0.00425956 [Eh]
    Vibrational G          18.592 [kcal/mol]       77.788 [kJ/mol]       0.02962802 [Eh]
  Correction G              6.755 [kcal/mol]       28.262 [kJ/mol]       0.01076460 [Eh]
  Total G, Free enthalpy at  298.15 [K]                                -76.83418605 [Eh]

    Psi4 stopped on: Tuesday, 19 April 2022 02:06AM
    Psi4 wall time for execution: 0:07:24.39

*** Psi4 exiting successfully. Buy a developer a beer!
