
    -----------------------------------------------------------------------
          Psi4: An Open-Source Ab Initio Electronic Structure Package
                               Psi4 1.3.2 release

                         Git: Rev {HEAD} ecbda83 


    R. M. Parrish, L. A. Burns, D. G. A. Smith, A. C. Simmonett,
    A. E. DePrince III, E. G. Hohenstein, U. Bozkaya, A. Yu. Sokolov,
    R. Di Remigio, R. M. Richard, J. F. Gonthier, A. M. James,
    H. R. McAlexander, A. Kumar, M. Saitow, X. Wang, B. P. Pritchard,
    P. Verma, H. F. Schaefer III, K. Patkowski, R. A. King, E. F. Valeev,
    F. A. Evangelista, J. M. Turney, T. D. Crawford, and C. D. Sherrill,
    J. Chem. Theory Comput. 13(7) pp 3185--3197 (2017).
    (doi: 10.1021/acs.jctc.7b00174)


                         Additional Contributions by
    P. Kraus, H. Kruse, M. H. Lechner, M. C. Schieber, R. A. Shaw,
    A. Alenaizan, R. Galvelis, Z. L. Glick, S. Lehtola, and J. P. Misiewicz

    -----------------------------------------------------------------------


    Psi4 started on: Tuesday, 19 April 2022 02:20AM

    Process ID: 26075
    Host:       atlantis
    PSIDATADIR: /home/akrom/software/anaconda3/envs/ffpenv/share/psi4
    Memory:     500.0 MiB
    Threads:    1
    
  ==> Input File <==

--------------------------------------------------------------------------
set basis  aug-cc-pVDZ
molecule {
0 1
   C        0.32153        0.81326        0.00000
   C       -0.86505       -0.12817        0.00000
   C        0.54353       -0.68508        0.00000
   H        0.53795        1.36069       -0.92039
   H        0.53795        1.36069        0.92039
   H       -1.44742       -0.21449        0.92034
   H       -1.44742       -0.21449       -0.92034
   H        0.90937       -1.14629       -0.92037
   H        0.90937       -1.14629        0.92037
}
energy('MP2')
frequencies('MP2')
--------------------------------------------------------------------------
    SCF Algorithm Type (re)set to DF.

*** tstart() called on atlantis
*** at Tue Apr 19 02:20:40 2022

   => Loading Basis Set <=

    Name: AUG-CC-PVDZ
    Role: ORBITAL
    Keyword: BASIS
    atoms 1-3 entry C          line   178 file /home/akrom/software/anaconda3/envs/ffpenv/share/psi4/basis/aug-cc-pvdz.gbs 
    atoms 4-9 entry H          line    36 file /home/akrom/software/anaconda3/envs/ffpenv/share/psi4/basis/aug-cc-pvdz.gbs 


         ---------------------------------------------------------
                                   SCF
               by Justin Turney, Rob Parrish, Andy Simmonett
                          and Daniel G. A. Smith
                              RHF Reference
                        1 Threads,    500 MiB Core
         ---------------------------------------------------------

  ==> Geometry <==

    Molecular point group: cs
    Full point group: Cs

    Geometry (in Angstrom), charge = 0, multiplicity = 1:

       Center              X                  Y                   Z               Mass       
    ------------   -----------------  -----------------  -----------------  -----------------
         C            0.321531939855     0.813261460475     0.000000000000    12.000000000000
         C           -0.865048060145    -0.128168539525     0.000000000000    12.000000000000
         C            0.543531939855    -0.685078539525     0.000000000000    12.000000000000
         H            0.537951939855     1.360691460475    -0.920390000000     1.007825032230
         H            0.537951939855     1.360691460475     0.920390000000     1.007825032230
         H           -1.447418060145    -0.214488539525     0.920340000000     1.007825032230
         H           -1.447418060145    -0.214488539525    -0.920340000000     1.007825032230
         H            0.909371939855    -1.146288539525    -0.920370000000     1.007825032230
         H            0.909371939855    -1.146288539525     0.920370000000     1.007825032230

  Running in cs symmetry.

  Rotational constants: A =      0.66472  B =      0.66470  C =      0.41647 [cm^-1]
  Rotational constants: A =  19927.70596  B =  19927.20236  C =  12485.44714 [MHz]
  Nuclear repulsion =   75.281464809014025

  Charge       = 0
  Multiplicity = 1
  Electrons    = 24
  Nalpha       = 12
  Nbeta        = 12

  ==> Algorithm <==

  SCF Algorithm Type is DF.
  DIIS enabled.
  MOM disabled.
  Fractional occupation disabled.
  Guess Type is SAD.
  Energy threshold   = 1.00e-08
  Density threshold  = 1.00e-08
  Integral threshold = 0.00e+00

  ==> Primary Basis <==

  Basis Set: AUG-CC-PVDZ
    Blend: AUG-CC-PVDZ
    Number of shells: 57
    Number of basis function: 123
    Number of Cartesian functions: 129
    Spherical Harmonics?: true
    Max angular momentum: 2

   => Loading Basis Set <=

    Name: (AUG-CC-PVDZ AUX)
    Role: JKFIT
    Keyword: DF_BASIS_SCF
    atoms 1-3 entry C          line   154 file /home/akrom/software/anaconda3/envs/ffpenv/share/psi4/basis/aug-cc-pvdz-jkfit.gbs 
    atoms 4-9 entry H          line    70 file /home/akrom/software/anaconda3/envs/ffpenv/share/psi4/basis/aug-cc-pvdz-jkfit.gbs 

  ==> Pre-Iterations <==

   -------------------------------------------------------
    Irrep   Nso     Nmo     Nalpha   Nbeta   Ndocc  Nsocc
   -------------------------------------------------------
     A'        75      75       0       0       0       0
     A"        48      48       0       0       0       0
   -------------------------------------------------------
    Total     123     123      12      12      12       0
   -------------------------------------------------------

  ==> Integral Setup <==

  DFHelper Memory: AOs need 0.055 GiB; user supplied 0.366 GiB. Using in-core AOs.

  ==> MemDFJK: Density-Fitted J/K Matrices <==

    J tasked:                   Yes
    K tasked:                   Yes
    wK tasked:                   No
    OpenMP threads:               1
    Memory [MiB]:               375
    Algorithm:                 Core
    Schwarz Cutoff:           1E-12
    Mask sparsity (%):       0.0000
    Fitting Condition:        1E-10

   => Auxiliary Basis Set <=

  Basis Set: (AUG-CC-PVDZ AUX)
    Blend: AUG-CC-PVDZ-JKFIT
    Number of shells: 156
    Number of basis function: 450
    Number of Cartesian functions: 513
    Spherical Harmonics?: true
    Max angular momentum: 3

  Minimum eigenvalue in the overlap matrix is 1.0790838778E-04.
  Using Symmetric Orthogonalization.

  SCF Guess: Superposition of Atomic Densities via on-the-fly atomic UHF.

  ==> Iterations <==

                           Total Energy        Delta E     RMS |[F,P]|

   @DF-RHF iter SAD:  -116.61769018343554   -1.16618e+02   0.00000e+00 
   @DF-RHF iter   1:  -116.94401687953238   -3.26327e-01   5.08809e-03 DIIS
   @DF-RHF iter   2:  -117.04240590823079   -9.83890e-02   2.52244e-03 DIIS
   @DF-RHF iter   3:  -117.06925746857658   -2.68516e-02   3.77346e-04 DIIS
   @DF-RHF iter   4:  -117.07041777797370   -1.16031e-03   4.73940e-05 DIIS
   @DF-RHF iter   5:  -117.07044546810160   -2.76901e-05   1.07982e-05 DIIS
   @DF-RHF iter   6:  -117.07044703158748   -1.56349e-06   1.81992e-06 DIIS
   @DF-RHF iter   7:  -117.07044707683156   -4.52441e-08   2.47110e-07 DIIS
   @DF-RHF iter   8:  -117.07044707760747   -7.75913e-10   3.22179e-08 DIIS
   @DF-RHF iter   9:  -117.07044707761801   -1.05445e-11   5.94104e-09 DIIS
  Energy and wave function converged.


  ==> Post-Iterations <==

    Orbital Energies [Eh]
    ---------------------

    Doubly Occupied:                                                      

       1Ap   -11.233025     2Ap   -11.232063     3Ap   -11.232058  
       4Ap    -1.127113     5Ap    -0.814580     6Ap    -0.814575  
       1App   -0.662552     7Ap    -0.621769     2App   -0.509412  
       3App   -0.509397     8Ap    -0.416644     9Ap    -0.416636  

    Virtual:                                                              

      10Ap     0.040987     4App    0.048426    11Ap     0.051566  
      12Ap     0.051566     5App    0.074133     6App    0.074136  
      13Ap     0.118194    14Ap     0.119358    15Ap     0.119361  
      16Ap     0.154640    17Ap     0.154644    18Ap     0.159150  
       7App    0.169757    19Ap     0.186837     8App    0.198706  
       9App    0.198710    20Ap     0.220943    21Ap     0.220948  
      10App    0.296678    22Ap     0.297465    23Ap     0.314955  
      11App    0.338252    12App    0.338256    24Ap     0.369898  
      25Ap     0.369906    26Ap     0.376834    27Ap     0.441907  
      28Ap     0.441910    29Ap     0.455527    30Ap     0.455539  
      13App    0.470132    14App    0.470442    15App    0.477862  
      16App    0.477866    17App    0.543197    18App    0.543214  
      31Ap     0.551179    19App    0.578163    32Ap     0.609110  
      20App    0.610328    33Ap     0.611551    34Ap     0.611561  
      35Ap     0.612593    36Ap     0.643671    37Ap     0.643678  
      21App    0.682487    22App    0.682495    38Ap     0.702730  
      39Ap     0.702744    40Ap     0.728275    23App    0.740896  
      24App    0.740899    41Ap     0.781835    42Ap     0.781847  
      43Ap     0.790284    44Ap     0.825261    45Ap     0.825267  
      25App    0.902808    26App    0.902823    46Ap     0.965877  
      27App    0.975869    47Ap     1.152910    48Ap     1.152933  
      28App    1.195825    49Ap     1.223491    50Ap     1.223502  
      29App    1.233121    30App    1.233124    31App    1.309954  
      51Ap     1.391445    52Ap     1.536405    53Ap     1.632406  
      32App    1.634137    33App    1.634154    54Ap     1.673907  
      55Ap     1.673936    34App    1.789903    35App    1.789932  
      56Ap     1.873226    57Ap     1.873234    58Ap     1.896968  
      36App    1.960701    59Ap     1.992416    60Ap     1.992421  
      37App    1.996885    38App    2.042835    39App    2.077969  
      40App    2.077998    61Ap     2.196015    62Ap     2.196033  
      63Ap     2.226130    41App    2.314750    42App    2.314781  
      64Ap     2.317381    65Ap     2.317401    66Ap     2.330089  
      67Ap     2.559616    43App    2.601599    44App    2.601652  
      68Ap     2.608570    69Ap     2.641835    70Ap     2.641837  
      45App    2.773693    71Ap     2.822432    72Ap     2.822441  
      46App    2.924355    73Ap     3.056117    74Ap     3.140165  
      75Ap     3.140265    47App    3.238995    48App    3.239029  

    Final Occupation by Irrep:
             Ap   App 
    DOCC [     9,    3 ]

  @DF-RHF Final Energy:  -117.07044707761801

   => Energetics <=

    Nuclear Repulsion Energy =             75.2814648090140253
    One-Electron Energy =                -305.5241742362950390
    Two-Electron Energy =                 113.1722623496629865
    Total Energy =                       -117.0704470776180131

Computation Completed


Properties will be evaluated at   0.000000,   0.000000,   0.000000 [a0]

Properties computed using the SCF density matrix

  Nuclear Dipole Moment: [e a0]
     X:    -0.0002      Y:    -0.0002      Z:     0.0000

  Electronic Dipole Moment: [e a0]
     X:     0.0002      Y:     0.0001      Z:     0.0000

  Dipole Moment: [e a0]
     X:    -0.0000      Y:    -0.0000      Z:     0.0000     Total:     0.0000

  Dipole Moment: [D]
     X:    -0.0001      Y:    -0.0001      Z:     0.0000     Total:     0.0001


*** tstop() called on atlantis at Tue Apr 19 02:20:41 2022
Module time:
	user time   =       1.01 seconds =       0.02 minutes
	system time =       0.03 seconds =       0.00 minutes
	total time  =          1 seconds =       0.02 minutes
Total time:
	user time   =       1.01 seconds =       0.02 minutes
	system time =       0.03 seconds =       0.00 minutes
	total time  =          1 seconds =       0.02 minutes

*** tstart() called on atlantis
*** at Tue Apr 19 02:20:41 2022


  //>>>>>>>>>>>>>>>>>>>>>>>>>>>>>>>>>>>//
  //               DFMP2               //
  //<<<<<<<<<<<<<<<<<<<<<<<<<<<<<<<<<<<//

   => Loading Basis Set <=

    Name: (AUG-CC-PVDZ AUX)
    Role: RIFIT
    Keyword: DF_BASIS_MP2
    atoms 1-3 entry C          line   112 file /home/akrom/software/anaconda3/envs/ffpenv/share/psi4/basis/aug-cc-pvdz-ri.gbs 
    atoms 4-9 entry H          line    30 file /home/akrom/software/anaconda3/envs/ffpenv/share/psi4/basis/aug-cc-pvdz-ri.gbs 

	 --------------------------------------------------------
	                          DF-MP2                         
	      2nd-Order Density-Fitted Moller-Plesset Theory     
	              RMP2 Wavefunction,   1 Threads             
	                                                         
	        Rob Parrish, Justin Turney, Andy Simmonett,      
	           Ed Hohenstein, and C. David Sherrill          
	 --------------------------------------------------------

   => Auxiliary Basis Set <=

  Basis Set: (AUG-CC-PVDZ AUX)
    Blend: AUG-CC-PVDZ-RI
    Number of shells: 120
    Number of basis function: 354
    Number of Cartesian functions: 408
    Spherical Harmonics?: true
    Max angular momentum: 3

	 --------------------------------------------------------
	                 NBF =   123, NAUX =   354
	 --------------------------------------------------------
	   CLASS    FOCC     OCC    AOCC    AVIR     VIR    FVIR
	   PAIRS       0      12      12     111     111       0
	 --------------------------------------------------------

	-----------------------------------------------------------
	 ==================> DF-MP2 Energies <==================== 
	-----------------------------------------------------------
	 Reference Energy          =    -117.0704470776180131 [Eh]
	 Singles Energy            =      -0.0000000000000000 [Eh]
	 Same-Spin Energy          =      -0.1048079042726970 [Eh]
	 Opposite-Spin Energy      =      -0.3439565537494046 [Eh]
	 Correlation Energy        =      -0.4487644580221016 [Eh]
	 Total Energy              =    -117.5192115356401104 [Eh]
	-----------------------------------------------------------
	 ================> DF-SCS-MP2 Energies <================== 
	-----------------------------------------------------------
	 SCS Same-Spin Scale       =       0.3333333333333333 [-]
	 SCS Opposite-Spin Scale   =       1.2000000000000000 [-]
	 SCS Same-Spin Energy      =      -0.0349359680908990 [Eh]
	 SCS Opposite-Spin Energy  =      -0.4127478644992855 [Eh]
	 SCS Correlation Energy    =      -0.4476838325901845 [Eh]
	 SCS Total Energy          =    -117.5181309102081997 [Eh]
	-----------------------------------------------------------


*** tstop() called on atlantis at Tue Apr 19 02:20:41 2022
Module time:
	user time   =       0.27 seconds =       0.00 minutes
	system time =       0.01 seconds =       0.00 minutes
	total time  =          0 seconds =       0.00 minutes
Total time:
	user time   =       1.28 seconds =       0.02 minutes
	system time =       0.04 seconds =       0.00 minutes
	total time  =          1 seconds =       0.02 minutes
gradient() will perform analytic gradient computation.
    SCF Algorithm Type (re)set to DF.

*** tstart() called on atlantis
*** at Tue Apr 19 02:20:41 2022

   => Loading Basis Set <=

    Name: AUG-CC-PVDZ
    Role: ORBITAL
    Keyword: BASIS
    atoms 1-3 entry C          line   178 file /home/akrom/software/anaconda3/envs/ffpenv/share/psi4/basis/aug-cc-pvdz.gbs 
    atoms 4-9 entry H          line    36 file /home/akrom/software/anaconda3/envs/ffpenv/share/psi4/basis/aug-cc-pvdz.gbs 


         ---------------------------------------------------------
                                   SCF
               by Justin Turney, Rob Parrish, Andy Simmonett
                          and Daniel G. A. Smith
                              RHF Reference
                        1 Threads,    500 MiB Core
         ---------------------------------------------------------

  ==> Geometry <==

    Molecular point group: cs
    Full point group: Cs

    Geometry (in Angstrom), charge = 0, multiplicity = 1:

       Center              X                  Y                   Z               Mass       
    ------------   -----------------  -----------------  -----------------  -----------------
         C            0.321531939855     0.813261460475     0.000000000000    12.000000000000
         C           -0.865048060145    -0.128168539525     0.000000000000    12.000000000000
         C            0.543531939855    -0.685078539525     0.000000000000    12.000000000000
         H            0.537951939855     1.360691460475    -0.920390000000     1.007825032230
         H            0.537951939855     1.360691460475     0.920390000000     1.007825032230
         H           -1.447418060145    -0.214488539525     0.920340000000     1.007825032230
         H           -1.447418060145    -0.214488539525    -0.920340000000     1.007825032230
         H            0.909371939855    -1.146288539525    -0.920370000000     1.007825032230
         H            0.909371939855    -1.146288539525     0.920370000000     1.007825032230

  Running in cs symmetry.

  Rotational constants: A =      0.66472  B =      0.66470  C =      0.41647 [cm^-1]
  Rotational constants: A =  19927.70596  B =  19927.20236  C =  12485.44714 [MHz]
  Nuclear repulsion =   75.281464809014025

  Charge       = 0
  Multiplicity = 1
  Electrons    = 24
  Nalpha       = 12
  Nbeta        = 12

  ==> Algorithm <==

  SCF Algorithm Type is DF.
  DIIS enabled.
  MOM disabled.
  Fractional occupation disabled.
  Guess Type is SAD.
  Energy threshold   = 1.00e-10
  Density threshold  = 1.00e-10
  Integral threshold = 0.00e+00

  ==> Primary Basis <==

  Basis Set: AUG-CC-PVDZ
    Blend: AUG-CC-PVDZ
    Number of shells: 57
    Number of basis function: 123
    Number of Cartesian functions: 129
    Spherical Harmonics?: true
    Max angular momentum: 2

   => Loading Basis Set <=

    Name: (AUG-CC-PVDZ AUX)
    Role: JKFIT
    Keyword: DF_BASIS_SCF
    atoms 1-3 entry C          line   154 file /home/akrom/software/anaconda3/envs/ffpenv/share/psi4/basis/aug-cc-pvdz-jkfit.gbs 
    atoms 4-9 entry H          line    70 file /home/akrom/software/anaconda3/envs/ffpenv/share/psi4/basis/aug-cc-pvdz-jkfit.gbs 

  ==> Pre-Iterations <==

   -------------------------------------------------------
    Irrep   Nso     Nmo     Nalpha   Nbeta   Ndocc  Nsocc
   -------------------------------------------------------
     A'        75      75       0       0       0       0
     A"        48      48       0       0       0       0
   -------------------------------------------------------
    Total     123     123      12      12      12       0
   -------------------------------------------------------

  ==> Integral Setup <==

  DFHelper Memory: AOs need 0.055 GiB; user supplied 0.366 GiB. Using in-core AOs.

  ==> MemDFJK: Density-Fitted J/K Matrices <==

    J tasked:                   Yes
    K tasked:                   Yes
    wK tasked:                   No
    OpenMP threads:               1
    Memory [MiB]:               375
    Algorithm:                 Core
    Schwarz Cutoff:           1E-12
    Mask sparsity (%):       0.0000
    Fitting Condition:        1E-10

   => Auxiliary Basis Set <=

  Basis Set: (AUG-CC-PVDZ AUX)
    Blend: AUG-CC-PVDZ-JKFIT
    Number of shells: 156
    Number of basis function: 450
    Number of Cartesian functions: 513
    Spherical Harmonics?: true
    Max angular momentum: 3

  Minimum eigenvalue in the overlap matrix is 1.0790838778E-04.
  Using Symmetric Orthogonalization.

  SCF Guess: Superposition of Atomic Densities via on-the-fly atomic UHF.

  ==> Iterations <==

                           Total Energy        Delta E     RMS |[F,P]|

   @DF-RHF iter SAD:  -116.61769018316906   -1.16618e+02   0.00000e+00 
   @DF-RHF iter   1:  -116.94401687925216   -3.26327e-01   5.08809e-03 DIIS
   @DF-RHF iter   2:  -117.04240590794942   -9.83890e-02   2.52244e-03 DIIS
   @DF-RHF iter   3:  -117.06925746829484   -2.68516e-02   3.77346e-04 DIIS
   @DF-RHF iter   4:  -117.07041777769187   -1.16031e-03   4.73940e-05 DIIS
   @DF-RHF iter   5:  -117.07044546781995   -2.76901e-05   1.07982e-05 DIIS
   @DF-RHF iter   6:  -117.07044703130549   -1.56349e-06   1.81992e-06 DIIS
   @DF-RHF iter   7:  -117.07044707655031   -4.52448e-08   2.47110e-07 DIIS
   @DF-RHF iter   8:  -117.07044707732577   -7.75458e-10   3.22179e-08 DIIS
   @DF-RHF iter   9:  -117.07044707733621   -1.04450e-11   5.94104e-09 DIIS
   @DF-RHF iter  10:  -117.07044707733661   -3.97904e-13   9.94733e-10 DIIS
   @DF-RHF iter  11:  -117.07044707733689   -2.84217e-13   3.62250e-10 DIIS
   @DF-RHF iter  12:  -117.07044707733657    3.26850e-13   2.93617e-11 DIIS
  Energy and wave function converged.


  ==> Post-Iterations <==

    Orbital Energies [Eh]
    ---------------------

    Doubly Occupied:                                                      

       1Ap   -11.233025     2Ap   -11.232063     3Ap   -11.232058  
       4Ap    -1.127113     5Ap    -0.814580     6Ap    -0.814575  
       1App   -0.662552     7Ap    -0.621769     2App   -0.509412  
       3App   -0.509397     8Ap    -0.416644     9Ap    -0.416636  

    Virtual:                                                              

      10Ap     0.040987     4App    0.048426    11Ap     0.051566  
      12Ap     0.051566     5App    0.074133     6App    0.074136  
      13Ap     0.118194    14Ap     0.119358    15Ap     0.119361  
      16Ap     0.154640    17Ap     0.154644    18Ap     0.159150  
       7App    0.169757    19Ap     0.186837     8App    0.198706  
       9App    0.198710    20Ap     0.220943    21Ap     0.220948  
      10App    0.296678    22Ap     0.297465    23Ap     0.314955  
      11App    0.338252    12App    0.338256    24Ap     0.369898  
      25Ap     0.369906    26Ap     0.376834    27Ap     0.441907  
      28Ap     0.441910    29Ap     0.455527    30Ap     0.455539  
      13App    0.470132    14App    0.470442    15App    0.477862  
      16App    0.477866    17App    0.543197    18App    0.543214  
      31Ap     0.551179    19App    0.578163    32Ap     0.609110  
      20App    0.610328    33Ap     0.611551    34Ap     0.611561  
      35Ap     0.612593    36Ap     0.643671    37Ap     0.643678  
      21App    0.682487    22App    0.682495    38Ap     0.702730  
      39Ap     0.702744    40Ap     0.728275    23App    0.740896  
      24App    0.740899    41Ap     0.781835    42Ap     0.781847  
      43Ap     0.790284    44Ap     0.825261    45Ap     0.825267  
      25App    0.902808    26App    0.902823    46Ap     0.965877  
      27App    0.975869    47Ap     1.152910    48Ap     1.152933  
      28App    1.195825    49Ap     1.223491    50Ap     1.223502  
      29App    1.233121    30App    1.233124    31App    1.309954  
      51Ap     1.391445    52Ap     1.536405    53Ap     1.632406  
      32App    1.634137    33App    1.634154    54Ap     1.673907  
      55Ap     1.673936    34App    1.789903    35App    1.789932  
      56Ap     1.873226    57Ap     1.873234    58Ap     1.896968  
      36App    1.960701    59Ap     1.992416    60Ap     1.992421  
      37App    1.996885    38App    2.042835    39App    2.077969  
      40App    2.077998    61Ap     2.196015    62Ap     2.196033  
      63Ap     2.226130    41App    2.314750    42App    2.314781  
      64Ap     2.317381    65Ap     2.317401    66Ap     2.330089  
      67Ap     2.559616    43App    2.601599    44App    2.601652  
      68Ap     2.608570    69Ap     2.641835    70Ap     2.641837  
      45App    2.773693    71Ap     2.822432    72Ap     2.822441  
      46App    2.924355    73Ap     3.056117    74Ap     3.140165  
      75Ap     3.140265    47App    3.238995    48App    3.239029  

    Final Occupation by Irrep:
             Ap   App 
    DOCC [     9,    3 ]

  @DF-RHF Final Energy:  -117.07044707733657

   => Energetics <=

    Nuclear Repulsion Energy =             75.2814648090140253
    One-Electron Energy =                -305.5241749114509844
    Two-Electron Energy =                 113.1722630251003778
    Total Energy =                       -117.0704470773365671

Computation Completed


Properties will be evaluated at   0.000000,   0.000000,   0.000000 [a0]

Properties computed using the SCF density matrix

  Nuclear Dipole Moment: [e a0]
     X:    -0.0002      Y:    -0.0002      Z:     0.0000

  Electronic Dipole Moment: [e a0]
     X:     0.0002      Y:     0.0001      Z:     0.0000

  Dipole Moment: [e a0]
     X:    -0.0000      Y:    -0.0000      Z:     0.0000     Total:     0.0000

  Dipole Moment: [D]
     X:    -0.0001      Y:    -0.0001      Z:     0.0000     Total:     0.0001


*** tstop() called on atlantis at Tue Apr 19 02:20:43 2022
Module time:
	user time   =       1.04 seconds =       0.02 minutes
	system time =       0.03 seconds =       0.00 minutes
	total time  =          2 seconds =       0.03 minutes
Total time:
	user time   =       2.33 seconds =       0.04 minutes
	system time =       0.07 seconds =       0.00 minutes
	total time  =          3 seconds =       0.05 minutes

*** tstart() called on atlantis
*** at Tue Apr 19 02:20:43 2022


  //>>>>>>>>>>>>>>>>>>>>>>>>>>>>>>>>>>>//
  //               DFMP2               //
  //<<<<<<<<<<<<<<<<<<<<<<<<<<<<<<<<<<<//

   => Loading Basis Set <=

    Name: (AUG-CC-PVDZ AUX)
    Role: RIFIT
    Keyword: DF_BASIS_MP2
    atoms 1-3 entry C          line   112 file /home/akrom/software/anaconda3/envs/ffpenv/share/psi4/basis/aug-cc-pvdz-ri.gbs 
    atoms 4-9 entry H          line    30 file /home/akrom/software/anaconda3/envs/ffpenv/share/psi4/basis/aug-cc-pvdz-ri.gbs 

	 --------------------------------------------------------
	                          DF-MP2                         
	      2nd-Order Density-Fitted Moller-Plesset Theory     
	              RMP2 Wavefunction,   1 Threads             
	                                                         
	        Rob Parrish, Justin Turney, Andy Simmonett,      
	           Ed Hohenstein, and C. David Sherrill          
	 --------------------------------------------------------

   => Auxiliary Basis Set <=

  Basis Set: (AUG-CC-PVDZ AUX)
    Blend: AUG-CC-PVDZ-RI
    Number of shells: 120
    Number of basis function: 354
    Number of Cartesian functions: 408
    Spherical Harmonics?: true
    Max angular momentum: 3

	 --------------------------------------------------------
	                 NBF =   123, NAUX =   354
	 --------------------------------------------------------
	   CLASS    FOCC     OCC    AOCC    AVIR     VIR    FVIR
	   PAIRS       0      12      12     111     111       0
	 --------------------------------------------------------

  DFHelper Memory: AOs need 0.055 GiB; user supplied 0.366 GiB. Using in-core AOs.


         ------------------------------------------------------------
                                     CPHF                           
                                  Rob Parrish                       
         ------------------------------------------------------------

  ==> Geometry <==

    Molecular point group: cs
    Full point group: Cs

    Geometry (in Angstrom), charge = 0, multiplicity = 1:

       Center              X                  Y                   Z               Mass       
    ------------   -----------------  -----------------  -----------------  -----------------
         C            0.321531939855     0.813261460475     0.000000000000    12.000000000000
         C           -0.865048060145    -0.128168539525     0.000000000000    12.000000000000
         C            0.543531939855    -0.685078539525     0.000000000000    12.000000000000
         H            0.537951939855     1.360691460475    -0.920390000000     1.007825032230
         H            0.537951939855     1.360691460475     0.920390000000     1.007825032230
         H           -1.447418060145    -0.214488539525     0.920340000000     1.007825032230
         H           -1.447418060145    -0.214488539525    -0.920340000000     1.007825032230
         H            0.909371939855    -1.146288539525    -0.920370000000     1.007825032230
         H            0.909371939855    -1.146288539525     0.920370000000     1.007825032230

  Nuclear repulsion =   75.281464809014025
  Reference energy  = -117.070447077336567

  ==> Basis Set <==

  Basis Set: AUG-CC-PVDZ
    Blend: AUG-CC-PVDZ
    Number of shells: 57
    Number of basis function: 123
    Number of Cartesian functions: 129
    Spherical Harmonics?: true
    Max angular momentum: 2

  ==> CGRSolver (by Rob Parrish) <==

   Number of roots    =         1
   Preconditioning    =    JACOBI
   Convergence cutoff =     1E-06
   Maximum iterations =       100

  ==> CPHFRHamiltonian (by Rob Parrish) <== 

  ==> MemDFJK: Density-Fitted J/K Matrices <==

    J tasked:                   Yes
    K tasked:                   Yes
    wK tasked:                   No
    OpenMP threads:               1
    Memory [MiB]:               375
    Algorithm:                 Core
    Schwarz Cutoff:           1E-12
    Mask sparsity (%):       0.0000
    Fitting Condition:        1E-10

   => Auxiliary Basis Set <=

  Basis Set: (AUG-CC-PVDZ AUX)
    Blend: AUG-CC-PVDZ-JKFIT
    Number of shells: 156
    Number of basis function: 450
    Number of Cartesian functions: 513
    Spherical Harmonics?: true
    Max angular momentum: 3

  ==> CPHF Iterations <==

  => Iterations <=

             Iter  Converged  Remaining    Residual
  CGR           1          0          1   6.692E-02
  CGR           2          0          1   1.597E-02
  CGR           3          0          1   2.738E-03
  CGR           4          0          1   4.667E-04
  CGR           5          0          1   6.148E-05
  CGR           6          0          1   5.926E-06
  CGR           7          1          0   8.222E-07

    CGRSolver converged.

  ==> DFCorrGrad: Density-Fitted Correlated Gradients <==

    OpenMP threads:              1
    Integrals threads:           1
    Memory [GiB]:            0.366
    Schwarz Cutoff:          0E+00
    Fitting Condition:       1E-10

   => Auxiliary Basis Set <=

  Basis Set: (AUG-CC-PVDZ AUX)
    Blend: AUG-CC-PVDZ-JKFIT
    Number of shells: 156
    Number of basis function: 450
    Number of Cartesian functions: 513
    Spherical Harmonics?: true
    Max angular momentum: 3

	-----------------------------------------------------------
	 ==================> DF-MP2 Energies <==================== 
	-----------------------------------------------------------
	 Reference Energy          =    -117.0704470773365671 [Eh]
	 Singles Energy            =      -0.0000000000000000 [Eh]
	 Same-Spin Energy          =      -0.1048079040338994 [Eh]
	 Opposite-Spin Energy      =      -0.3439565515845742 [Eh]
	 Correlation Energy        =      -0.4487644556184736 [Eh]
	 Total Energy              =    -117.5192115329550404 [Eh]
	-----------------------------------------------------------
	 ================> DF-SCS-MP2 Energies <================== 
	-----------------------------------------------------------
	 SCS Same-Spin Scale       =       0.3333333333333333 [-]
	 SCS Opposite-Spin Scale   =       1.2000000000000000 [-]
	 SCS Same-Spin Energy      =      -0.0349359680112998 [Eh]
	 SCS Opposite-Spin Energy  =      -0.4127478619014890 [Eh]
	 SCS Correlation Energy    =      -0.4476838299127888 [Eh]
	 SCS Total Energy          =    -117.5181309072493576 [Eh]
	-----------------------------------------------------------


  -Total Gradient:
     Atom            X                  Y                   Z
    ------   -----------------  -----------------  -----------------
       1       -0.001519748470    -0.003841543425     0.000000000000
       2        0.004111423027     0.000611658450     0.000000000000
       3       -0.002570882002     0.003247568612     0.000000000000
       4        0.000393782086     0.000999195220    -0.001213272248
       5        0.000393782086     0.000999195220     0.001213272248
       6       -0.001070514520    -0.000161032157     0.001204062283
       7       -0.001070514520    -0.000161032157    -0.001204062283
       8        0.000666336157    -0.000847004881    -0.001209741854
       9        0.000666336157    -0.000847004881     0.001209741854


*** tstop() called on atlantis at Tue Apr 19 02:20:46 2022
Module time:
	user time   =       3.40 seconds =       0.06 minutes
	system time =       0.10 seconds =       0.00 minutes
	total time  =          3 seconds =       0.05 minutes
Total time:
	user time   =       5.73 seconds =       0.10 minutes
	system time =       0.17 seconds =       0.00 minutes
	total time  =          6 seconds =       0.10 minutes

  Based on options and gradient (rms=1.58E-03), recommend projecting translations and projecting rotations.
hessian() will perform frequency computation by finite difference of analytic gradients.

         ----------------------------------------------------------
                                   FINDIF
                     R. A. King and Jonathon Misiewicz
         ---------------------------------------------------------

  Using finite-differences of gradients to determine vibrational frequencies and 
  normal modes.  Resulting frequencies are only valid at stationary points.
    Generating geometries for use with 3-point formula.
    Displacement size will be 5.00e-03.
    Number of atoms is 9.
    Number of irreps is 2.
    Number of SALCs is 21.
    Translations projected? 1. Rotations projected? 1.
    Index of SALCs per irrep:
     1 :  0  1  2  3  4  5  6  7  8  9  10  11 
     2 :  12  13  14  15  16  17  18  19  20 
    Number of SALCs per irrep:
     Irrep 1: 12
     Irrep 2: 9
    Number of geometries (including reference) is 34.
    Number of displacements per irrep:
      Irrep 1: 24
      Irrep 2: 9

  //>>>>>>>>>>>>>>>>>>>>>>>>>>>>>>>>>>>//
  //    Loading displacement 1 of 34   //
  //<<<<<<<<<<<<<<<<<<<<<<<<<<<<<<<<<<<//
gradient() will perform analytic gradient computation.
    SCF Algorithm Type (re)set to DF.

*** tstart() called on atlantis
*** at Tue Apr 19 02:20:46 2022

   => Loading Basis Set <=

    Name: AUG-CC-PVDZ
    Role: ORBITAL
    Keyword: BASIS
    atoms 1-3 entry C          line   178 file /home/akrom/software/anaconda3/envs/ffpenv/share/psi4/basis/aug-cc-pvdz.gbs 
    atoms 4-9 entry H          line    36 file /home/akrom/software/anaconda3/envs/ffpenv/share/psi4/basis/aug-cc-pvdz.gbs 


         ---------------------------------------------------------
                                   SCF
               by Justin Turney, Rob Parrish, Andy Simmonett
                          and Daniel G. A. Smith
                              RHF Reference
                        1 Threads,    500 MiB Core
         ---------------------------------------------------------

  ==> Geometry <==

    Molecular point group: cs
    Full point group: Cs

    Geometry (in Angstrom), charge = 0, multiplicity = 1:

       Center              X                  Y                   Z               Mass       
    ------------   -----------------  -----------------  -----------------  -----------------
         C            0.321531939855     0.813261460475     0.000000000000    12.000000000000
         C           -0.865048060145    -0.128168539525     0.000000000000    12.000000000000
         C            0.543531939855    -0.685078539525     0.000000000000    12.000000000000
         H            0.537951939855     1.360691460475    -0.920390000000     1.007825032230
         H            0.537951939855     1.360691460475     0.920390000000     1.007825032230
         H           -1.447418060145    -0.214488539525     0.920340000000     1.007825032230
         H           -1.447418060145    -0.214488539525    -0.920340000000     1.007825032230
         H            0.909371939855    -1.146288539525    -0.920370000000     1.007825032230
         H            0.909371939855    -1.146288539525     0.920370000000     1.007825032230

  Running in cs symmetry.

  Rotational constants: A =      0.66472  B =      0.66470  C =      0.41647 [cm^-1]
  Rotational constants: A =  19927.70596  B =  19927.20236  C =  12485.44714 [MHz]
  Nuclear repulsion =   75.281464809014025

  Charge       = 0
  Multiplicity = 1
  Electrons    = 24
  Nalpha       = 12
  Nbeta        = 12

  ==> Algorithm <==

  SCF Algorithm Type is DF.
  DIIS enabled.
  MOM disabled.
  Fractional occupation disabled.
  Guess Type is SAD.
  Energy threshold   = 1.00e-10
  Density threshold  = 1.00e-10
  Integral threshold = 0.00e+00

  ==> Primary Basis <==

  Basis Set: AUG-CC-PVDZ
    Blend: AUG-CC-PVDZ
    Number of shells: 57
    Number of basis function: 123
    Number of Cartesian functions: 129
    Spherical Harmonics?: true
    Max angular momentum: 2

   => Loading Basis Set <=

    Name: (AUG-CC-PVDZ AUX)
    Role: JKFIT
    Keyword: DF_BASIS_SCF
    atoms 1-3 entry C          line   154 file /home/akrom/software/anaconda3/envs/ffpenv/share/psi4/basis/aug-cc-pvdz-jkfit.gbs 
    atoms 4-9 entry H          line    70 file /home/akrom/software/anaconda3/envs/ffpenv/share/psi4/basis/aug-cc-pvdz-jkfit.gbs 

  ==> Pre-Iterations <==

   -------------------------------------------------------
    Irrep   Nso     Nmo     Nalpha   Nbeta   Ndocc  Nsocc
   -------------------------------------------------------
     A'        75      75       0       0       0       0
     A"        48      48       0       0       0       0
   -------------------------------------------------------
    Total     123     123      12      12      12       0
   -------------------------------------------------------

  ==> Integral Setup <==

  DFHelper Memory: AOs need 0.055 GiB; user supplied 0.366 GiB. Using in-core AOs.

  ==> MemDFJK: Density-Fitted J/K Matrices <==

    J tasked:                   Yes
    K tasked:                   Yes
    wK tasked:                   No
    OpenMP threads:               1
    Memory [MiB]:               375
    Algorithm:                 Core
    Schwarz Cutoff:           1E-12
    Mask sparsity (%):       0.0000
    Fitting Condition:        1E-10

   => Auxiliary Basis Set <=

  Basis Set: (AUG-CC-PVDZ AUX)
    Blend: AUG-CC-PVDZ-JKFIT
    Number of shells: 156
    Number of basis function: 450
    Number of Cartesian functions: 513
    Spherical Harmonics?: true
    Max angular momentum: 3

  Minimum eigenvalue in the overlap matrix is 1.0790838778E-04.
  Using Symmetric Orthogonalization.

  SCF Guess: Superposition of Atomic Densities via on-the-fly atomic UHF.

  ==> Iterations <==

                           Total Energy        Delta E     RMS |[F,P]|

   @DF-RHF iter SAD:  -116.61769018316906   -1.16618e+02   0.00000e+00 
   @DF-RHF iter   1:  -116.94401687925216   -3.26327e-01   5.08809e-03 DIIS
   @DF-RHF iter   2:  -117.04240590794942   -9.83890e-02   2.52244e-03 DIIS
   @DF-RHF iter   3:  -117.06925746829484   -2.68516e-02   3.77346e-04 DIIS
   @DF-RHF iter   4:  -117.07041777769187   -1.16031e-03   4.73940e-05 DIIS
   @DF-RHF iter   5:  -117.07044546781995   -2.76901e-05   1.07982e-05 DIIS
   @DF-RHF iter   6:  -117.07044703130549   -1.56349e-06   1.81992e-06 DIIS
   @DF-RHF iter   7:  -117.07044707655031   -4.52448e-08   2.47110e-07 DIIS
   @DF-RHF iter   8:  -117.07044707732577   -7.75458e-10   3.22179e-08 DIIS
   @DF-RHF iter   9:  -117.07044707733621   -1.04450e-11   5.94104e-09 DIIS
   @DF-RHF iter  10:  -117.07044707733661   -3.97904e-13   9.94733e-10 DIIS
   @DF-RHF iter  11:  -117.07044707733689   -2.84217e-13   3.62250e-10 DIIS
   @DF-RHF iter  12:  -117.07044707733657    3.26850e-13   2.93617e-11 DIIS
  Energy and wave function converged.


  ==> Post-Iterations <==

    Orbital Energies [Eh]
    ---------------------

    Doubly Occupied:                                                      

       1Ap   -11.233025     2Ap   -11.232063     3Ap   -11.232058  
       4Ap    -1.127113     5Ap    -0.814580     6Ap    -0.814575  
       1App   -0.662552     7Ap    -0.621769     2App   -0.509412  
       3App   -0.509397     8Ap    -0.416644     9Ap    -0.416636  

    Virtual:                                                              

      10Ap     0.040987     4App    0.048426    11Ap     0.051566  
      12Ap     0.051566     5App    0.074133     6App    0.074136  
      13Ap     0.118194    14Ap     0.119358    15Ap     0.119361  
      16Ap     0.154640    17Ap     0.154644    18Ap     0.159150  
       7App    0.169757    19Ap     0.186837     8App    0.198706  
       9App    0.198710    20Ap     0.220943    21Ap     0.220948  
      10App    0.296678    22Ap     0.297465    23Ap     0.314955  
      11App    0.338252    12App    0.338256    24Ap     0.369898  
      25Ap     0.369906    26Ap     0.376834    27Ap     0.441907  
      28Ap     0.441910    29Ap     0.455527    30Ap     0.455539  
      13App    0.470132    14App    0.470442    15App    0.477862  
      16App    0.477866    17App    0.543197    18App    0.543214  
      31Ap     0.551179    19App    0.578163    32Ap     0.609110  
      20App    0.610328    33Ap     0.611551    34Ap     0.611561  
      35Ap     0.612593    36Ap     0.643671    37Ap     0.643678  
      21App    0.682487    22App    0.682495    38Ap     0.702730  
      39Ap     0.702744    40Ap     0.728275    23App    0.740896  
      24App    0.740899    41Ap     0.781835    42Ap     0.781847  
      43Ap     0.790284    44Ap     0.825261    45Ap     0.825267  
      25App    0.902808    26App    0.902823    46Ap     0.965877  
      27App    0.975869    47Ap     1.152910    48Ap     1.152933  
      28App    1.195825    49Ap     1.223491    50Ap     1.223502  
      29App    1.233121    30App    1.233124    31App    1.309954  
      51Ap     1.391445    52Ap     1.536405    53Ap     1.632406  
      32App    1.634137    33App    1.634154    54Ap     1.673907  
      55Ap     1.673936    34App    1.789903    35App    1.789932  
      56Ap     1.873226    57Ap     1.873234    58Ap     1.896968  
      36App    1.960701    59Ap     1.992416    60Ap     1.992421  
      37App    1.996885    38App    2.042835    39App    2.077969  
      40App    2.077998    61Ap     2.196015    62Ap     2.196033  
      63Ap     2.226130    41App    2.314750    42App    2.314781  
      64Ap     2.317381    65Ap     2.317401    66Ap     2.330089  
      67Ap     2.559616    43App    2.601599    44App    2.601652  
      68Ap     2.608570    69Ap     2.641835    70Ap     2.641837  
      45App    2.773693    71Ap     2.822432    72Ap     2.822441  
      46App    2.924355    73Ap     3.056117    74Ap     3.140165  
      75Ap     3.140265    47App    3.238995    48App    3.239029  

    Final Occupation by Irrep:
             Ap   App 
    DOCC [     9,    3 ]

  @DF-RHF Final Energy:  -117.07044707733657

   => Energetics <=

    Nuclear Repulsion Energy =             75.2814648090140253
    One-Electron Energy =                -305.5241749114509844
    Two-Electron Energy =                 113.1722630251003778
    Total Energy =                       -117.0704470773365671

Computation Completed


Properties will be evaluated at   0.000000,   0.000000,   0.000000 [a0]

Properties computed using the SCF density matrix

  Nuclear Dipole Moment: [e a0]
     X:    -0.0002      Y:    -0.0002      Z:     0.0000

  Electronic Dipole Moment: [e a0]
     X:     0.0002      Y:     0.0001      Z:     0.0000

  Dipole Moment: [e a0]
     X:    -0.0000      Y:    -0.0000      Z:     0.0000     Total:     0.0000

  Dipole Moment: [D]
     X:    -0.0001      Y:    -0.0001      Z:     0.0000     Total:     0.0001


*** tstop() called on atlantis at Tue Apr 19 02:20:47 2022
Module time:
	user time   =       1.03 seconds =       0.02 minutes
	system time =       0.02 seconds =       0.00 minutes
	total time  =          1 seconds =       0.02 minutes
Total time:
	user time   =       7.04 seconds =       0.12 minutes
	system time =       0.20 seconds =       0.00 minutes
	total time  =          7 seconds =       0.12 minutes

*** tstart() called on atlantis
*** at Tue Apr 19 02:20:47 2022


  //>>>>>>>>>>>>>>>>>>>>>>>>>>>>>>>>>>>//
  //               DFMP2               //
  //<<<<<<<<<<<<<<<<<<<<<<<<<<<<<<<<<<<//

   => Loading Basis Set <=

    Name: (AUG-CC-PVDZ AUX)
    Role: RIFIT
    Keyword: DF_BASIS_MP2
    atoms 1-3 entry C          line   112 file /home/akrom/software/anaconda3/envs/ffpenv/share/psi4/basis/aug-cc-pvdz-ri.gbs 
    atoms 4-9 entry H          line    30 file /home/akrom/software/anaconda3/envs/ffpenv/share/psi4/basis/aug-cc-pvdz-ri.gbs 

	 --------------------------------------------------------
	                          DF-MP2                         
	      2nd-Order Density-Fitted Moller-Plesset Theory     
	              RMP2 Wavefunction,   1 Threads             
	                                                         
	        Rob Parrish, Justin Turney, Andy Simmonett,      
	           Ed Hohenstein, and C. David Sherrill          
	 --------------------------------------------------------

   => Auxiliary Basis Set <=

  Basis Set: (AUG-CC-PVDZ AUX)
    Blend: AUG-CC-PVDZ-RI
    Number of shells: 120
    Number of basis function: 354
    Number of Cartesian functions: 408
    Spherical Harmonics?: true
    Max angular momentum: 3

	 --------------------------------------------------------
	                 NBF =   123, NAUX =   354
	 --------------------------------------------------------
	   CLASS    FOCC     OCC    AOCC    AVIR     VIR    FVIR
	   PAIRS       0      12      12     111     111       0
	 --------------------------------------------------------

  DFHelper Memory: AOs need 0.055 GiB; user supplied 0.366 GiB. Using in-core AOs.


         ------------------------------------------------------------
                                     CPHF                           
                                  Rob Parrish                       
         ------------------------------------------------------------

  ==> Geometry <==

    Molecular point group: cs
    Full point group: Cs

    Geometry (in Angstrom), charge = 0, multiplicity = 1:

       Center              X                  Y                   Z               Mass       
    ------------   -----------------  -----------------  -----------------  -----------------
         C            0.321531939855     0.813261460475     0.000000000000    12.000000000000
         C           -0.865048060145    -0.128168539525     0.000000000000    12.000000000000
         C            0.543531939855    -0.685078539525     0.000000000000    12.000000000000
         H            0.537951939855     1.360691460475    -0.920390000000     1.007825032230
         H            0.537951939855     1.360691460475     0.920390000000     1.007825032230
         H           -1.447418060145    -0.214488539525     0.920340000000     1.007825032230
         H           -1.447418060145    -0.214488539525    -0.920340000000     1.007825032230
         H            0.909371939855    -1.146288539525    -0.920370000000     1.007825032230
         H            0.909371939855    -1.146288539525     0.920370000000     1.007825032230

  Nuclear repulsion =   75.281464809014025
  Reference energy  = -117.070447077336567

  ==> Basis Set <==

  Basis Set: AUG-CC-PVDZ
    Blend: AUG-CC-PVDZ
    Number of shells: 57
    Number of basis function: 123
    Number of Cartesian functions: 129
    Spherical Harmonics?: true
    Max angular momentum: 2

  ==> CGRSolver (by Rob Parrish) <==

   Number of roots    =         1
   Preconditioning    =    JACOBI
   Convergence cutoff =     1E-06
   Maximum iterations =       100

  ==> CPHFRHamiltonian (by Rob Parrish) <== 

  ==> MemDFJK: Density-Fitted J/K Matrices <==

    J tasked:                   Yes
    K tasked:                   Yes
    wK tasked:                   No
    OpenMP threads:               1
    Memory [MiB]:               375
    Algorithm:                 Core
    Schwarz Cutoff:           1E-12
    Mask sparsity (%):       0.0000
    Fitting Condition:        1E-10

   => Auxiliary Basis Set <=

  Basis Set: (AUG-CC-PVDZ AUX)
    Blend: AUG-CC-PVDZ-JKFIT
    Number of shells: 156
    Number of basis function: 450
    Number of Cartesian functions: 513
    Spherical Harmonics?: true
    Max angular momentum: 3

  ==> CPHF Iterations <==

  => Iterations <=

             Iter  Converged  Remaining    Residual
  CGR           1          0          1   6.692E-02
  CGR           2          0          1   1.597E-02
  CGR           3          0          1   2.738E-03
  CGR           4          0          1   4.667E-04
  CGR           5          0          1   6.148E-05
  CGR           6          0          1   5.926E-06
  CGR           7          1          0   8.222E-07

    CGRSolver converged.

  ==> DFCorrGrad: Density-Fitted Correlated Gradients <==

    OpenMP threads:              1
    Integrals threads:           1
    Memory [GiB]:            0.366
    Schwarz Cutoff:          0E+00
    Fitting Condition:       1E-10

   => Auxiliary Basis Set <=

  Basis Set: (AUG-CC-PVDZ AUX)
    Blend: AUG-CC-PVDZ-JKFIT
    Number of shells: 156
    Number of basis function: 450
    Number of Cartesian functions: 513
    Spherical Harmonics?: true
    Max angular momentum: 3

	-----------------------------------------------------------
	 ==================> DF-MP2 Energies <==================== 
	-----------------------------------------------------------
	 Reference Energy          =    -117.0704470773365671 [Eh]
	 Singles Energy            =      -0.0000000000000000 [Eh]
	 Same-Spin Energy          =      -0.1048079040338994 [Eh]
	 Opposite-Spin Energy      =      -0.3439565515845742 [Eh]
	 Correlation Energy        =      -0.4487644556184736 [Eh]
	 Total Energy              =    -117.5192115329550404 [Eh]
	-----------------------------------------------------------
	 ================> DF-SCS-MP2 Energies <================== 
	-----------------------------------------------------------
	 SCS Same-Spin Scale       =       0.3333333333333333 [-]
	 SCS Opposite-Spin Scale   =       1.2000000000000000 [-]
	 SCS Same-Spin Energy      =      -0.0349359680112998 [Eh]
	 SCS Opposite-Spin Energy  =      -0.4127478619014890 [Eh]
	 SCS Correlation Energy    =      -0.4476838299127888 [Eh]
	 SCS Total Energy          =    -117.5181309072493576 [Eh]
	-----------------------------------------------------------


  -Total Gradient:
     Atom            X                  Y                   Z
    ------   -----------------  -----------------  -----------------
       1       -0.001519748470    -0.003841543425     0.000000000000
       2        0.004111423027     0.000611658450     0.000000000000
       3       -0.002570882002     0.003247568612     0.000000000000
       4        0.000393782086     0.000999195220    -0.001213272248
       5        0.000393782086     0.000999195220     0.001213272248
       6       -0.001070514520    -0.000161032157     0.001204062283
       7       -0.001070514520    -0.000161032157    -0.001204062283
       8        0.000666336157    -0.000847004881    -0.001209741854
       9        0.000666336157    -0.000847004881     0.001209741854


*** tstop() called on atlantis at Tue Apr 19 02:20:51 2022
Module time:
	user time   =       3.41 seconds =       0.06 minutes
	system time =       0.10 seconds =       0.00 minutes
	total time  =          4 seconds =       0.07 minutes
Total time:
	user time   =      10.45 seconds =       0.17 minutes
	system time =       0.30 seconds =       0.01 minutes
	total time  =         11 seconds =       0.18 minutes

  //>>>>>>>>>>>>>>>>>>>>>>>>>>>>>>>>>>>//
  //    Loading displacement 2 of 34   //
  //<<<<<<<<<<<<<<<<<<<<<<<<<<<<<<<<<<<//
gradient() will perform analytic gradient computation.
    SCF Algorithm Type (re)set to DF.

*** tstart() called on atlantis
*** at Tue Apr 19 02:20:51 2022

   => Loading Basis Set <=

    Name: AUG-CC-PVDZ
    Role: ORBITAL
    Keyword: BASIS
    atoms 1-3 entry C          line   178 file /home/akrom/software/anaconda3/envs/ffpenv/share/psi4/basis/aug-cc-pvdz.gbs 
    atoms 4-9 entry H          line    36 file /home/akrom/software/anaconda3/envs/ffpenv/share/psi4/basis/aug-cc-pvdz.gbs 


         ---------------------------------------------------------
                                   SCF
               by Justin Turney, Rob Parrish, Andy Simmonett
                          and Daniel G. A. Smith
                              RHF Reference
                        1 Threads,    500 MiB Core
         ---------------------------------------------------------

  ==> Geometry <==

    Molecular point group: cs
    Full point group: Cs

    Geometry (in Angstrom), charge = 0, multiplicity = 1:

       Center              X                  Y                   Z               Mass       
    ------------   -----------------  -----------------  -----------------  -----------------
         C            0.320981935461     0.813179232929     0.000000000000    12.000000000000
         C           -0.864778117207    -0.127947314912     0.000000000000    12.000000000000
         C            0.543659460418    -0.685217540638     0.000000000000    12.000000000000
         H            0.538602639069     1.360553886373    -0.920390000000     1.007825032230
         H            0.538602639069     1.360553886373     0.920390000000     1.007825032230
         H           -1.447170192407    -0.214118381478     0.920340000000     1.007825032230
         H           -1.447170192407    -0.214118381478    -0.920340000000     1.007825032230
         H            0.909381512053    -1.146521099385    -0.920370000000     1.007825032230
         H            0.909381512053    -1.146521099385     0.920370000000     1.007825032230

  Running in cs symmetry.

  Rotational constants: A =      0.66511  B =      0.66452  C =      0.41655 [cm^-1]
  Rotational constants: A =  19939.46144  B =  19921.88173  C =  12487.97026 [MHz]
  Nuclear repulsion =   75.286659304380962

  Charge       = 0
  Multiplicity = 1
  Electrons    = 24
  Nalpha       = 12
  Nbeta        = 12

  ==> Algorithm <==

  SCF Algorithm Type is DF.
  DIIS enabled.
  MOM disabled.
  Fractional occupation disabled.
  Guess Type is SAD.
  Energy threshold   = 1.00e-10
  Density threshold  = 1.00e-10
  Integral threshold = 0.00e+00

  ==> Primary Basis <==

  Basis Set: AUG-CC-PVDZ
    Blend: AUG-CC-PVDZ
    Number of shells: 57
    Number of basis function: 123
    Number of Cartesian functions: 129
    Spherical Harmonics?: true
    Max angular momentum: 2

   => Loading Basis Set <=

    Name: (AUG-CC-PVDZ AUX)
    Role: JKFIT
    Keyword: DF_BASIS_SCF
    atoms 1-3 entry C          line   154 file /home/akrom/software/anaconda3/envs/ffpenv/share/psi4/basis/aug-cc-pvdz-jkfit.gbs 
    atoms 4-9 entry H          line    70 file /home/akrom/software/anaconda3/envs/ffpenv/share/psi4/basis/aug-cc-pvdz-jkfit.gbs 

  ==> Pre-Iterations <==

   -------------------------------------------------------
    Irrep   Nso     Nmo     Nalpha   Nbeta   Ndocc  Nsocc
   -------------------------------------------------------
     A'        75      75       0       0       0       0
     A"        48      48       0       0       0       0
   -------------------------------------------------------
    Total     123     123      12      12      12       0
   -------------------------------------------------------

  ==> Integral Setup <==

  DFHelper Memory: AOs need 0.055 GiB; user supplied 0.366 GiB. Using in-core AOs.

  ==> MemDFJK: Density-Fitted J/K Matrices <==

    J tasked:                   Yes
    K tasked:                   Yes
    wK tasked:                   No
    OpenMP threads:               1
    Memory [MiB]:               375
    Algorithm:                 Core
    Schwarz Cutoff:           1E-12
    Mask sparsity (%):       0.0000
    Fitting Condition:        1E-10

   => Auxiliary Basis Set <=

  Basis Set: (AUG-CC-PVDZ AUX)
    Blend: AUG-CC-PVDZ-JKFIT
    Number of shells: 156
    Number of basis function: 450
    Number of Cartesian functions: 513
    Spherical Harmonics?: true
    Max angular momentum: 3

  Minimum eigenvalue in the overlap matrix is 1.0767193003E-04.
  Using Symmetric Orthogonalization.

  SCF Guess: Superposition of Atomic Densities via on-the-fly atomic UHF.

  ==> Iterations <==

                           Total Energy        Delta E     RMS |[F,P]|

   @DF-RHF iter SAD:  -116.61830453439475   -1.16618e+02   0.00000e+00 
   @DF-RHF iter   1:  -116.94394969976602   -3.25645e-01   5.08970e-03 DIIS
   @DF-RHF iter   2:  -117.04237810980312   -9.84284e-02   2.52390e-03 DIIS
   @DF-RHF iter   3:  -117.06925884470292   -2.68807e-02   3.77397e-04 DIIS
   @DF-RHF iter   4:  -117.07041962681890   -1.16078e-03   4.74062e-05 DIIS
   @DF-RHF iter   5:  -117.07044733270047   -2.77059e-05   1.07994e-05 DIIS
   @DF-RHF iter   6:  -117.07044889659441   -1.56389e-06   1.82039e-06 DIIS
   @DF-RHF iter   7:  -117.07044894181712   -4.52227e-08   2.52398e-07 DIIS
   @DF-RHF iter   8:  -117.07044894259649   -7.79366e-10   5.46737e-08 DIIS
   @DF-RHF iter   9:  -117.07044894261452   -1.80336e-11   1.62629e-08 DIIS
   @DF-RHF iter  10:  -117.07044894261654   -2.01794e-12   2.79408e-09 DIIS
   @DF-RHF iter  11:  -117.07044894261617    3.69482e-13   3.64885e-10 DIIS
   @DF-RHF iter  12:  -117.07044894261664   -4.68958e-13   3.16280e-11 DIIS
  Energy and wave function converged.


  ==> Post-Iterations <==

    Orbital Energies [Eh]
    ---------------------

    Doubly Occupied:                                                      

       1Ap   -11.233012     2Ap   -11.232060     3Ap   -11.232032  
       4Ap    -1.127231     5Ap    -0.814608     6Ap    -0.814503  
       1App   -0.662554     7Ap    -0.621832     2App   -0.509407  
       3App   -0.509276     8Ap    -0.416937     9Ap    -0.416440  

    Virtual:                                                              

      10Ap     0.040987     4App    0.048426    11Ap     0.051562  
      12Ap     0.051568     5App    0.074127     6App    0.074146  
      13Ap     0.118194    14Ap     0.119329    15Ap     0.119378  
      16Ap     0.154627    17Ap     0.154662    18Ap     0.159154  
       7App    0.169750    19Ap     0.186837     8App    0.198687  
       9App    0.198731    20Ap     0.220939    21Ap     0.220966  
      10App    0.296646    22Ap     0.297475    23Ap     0.315023  
      11App    0.338226    12App    0.338280    24Ap     0.369868  
      25Ap     0.369961    26Ap     0.376804    27Ap     0.441898  
      28Ap     0.441945    29Ap     0.455486    30Ap     0.455588  
      13App    0.470134    14App    0.470445    15App    0.477858  
      16App    0.477885    17App    0.543198    18App    0.543233  
      31Ap     0.551187    19App    0.578169    32Ap     0.609135  
      20App    0.610315    33Ap     0.611487    34Ap     0.611667  
      35Ap     0.612596    36Ap     0.643669    37Ap     0.643675  
      21App    0.682452    22App    0.682528    38Ap     0.702736  
      39Ap     0.702844    40Ap     0.728320    23App    0.740829  
      24App    0.740939    41Ap     0.781844    42Ap     0.781950  
      43Ap     0.790301    44Ap     0.825248    45Ap     0.825342  
      25App    0.902785    26App    0.902845    46Ap     0.965764  
      27App    0.975888    47Ap     1.152729    48Ap     1.152976  
      28App    1.195774    49Ap     1.223511    50Ap     1.223584  
      29App    1.233072    30App    1.233191    31App    1.309996  
      51Ap     1.391425    52Ap     1.536396    53Ap     1.632463  
      32App    1.633980    33App    1.634315    54Ap     1.673855  
      55Ap     1.674079    34App    1.789802    35App    1.790031  
      56Ap     1.873323    57Ap     1.873443    58Ap     1.896881  
      36App    1.960570    59Ap     1.992201    60Ap     1.992751  
      37App    1.996882    38App    2.042911    39App    2.077866  
      40App    2.078109    61Ap     2.195950    62Ap     2.196157  
      63Ap     2.226171    41App    2.314702    42App    2.314738  
      64Ap     2.317490    65Ap     2.317596    66Ap     2.330109  
      67Ap     2.559727    43App    2.601375    44App    2.601705  
      68Ap     2.608655    69Ap     2.641470    70Ap     2.642004  
      45App    2.773718    71Ap     2.822257    72Ap     2.822481  
      46App    2.924236    73Ap     3.056380    74Ap     3.139675  
      75Ap     3.140776    47App    3.238656    48App    3.239515  

    Final Occupation by Irrep:
             Ap   App 
    DOCC [     9,    3 ]

  @DF-RHF Final Energy:  -117.07044894261664

   => Energetics <=

    Nuclear Repulsion Energy =             75.2866593043809615
    One-Electron Energy =                -305.5344328294911520
    Two-Electron Energy =                 113.1773245824935401
    Total Energy =                       -117.0704489426166361

Computation Completed


Properties will be evaluated at   0.000000,   0.000000,   0.000000 [a0]

Properties computed using the SCF density matrix

  Nuclear Dipole Moment: [e a0]
     X:     0.0015      Y:    -0.0002      Z:     0.0000

  Electronic Dipole Moment: [e a0]
     X:    -0.0018      Y:     0.0004      Z:     0.0000

  Dipole Moment: [e a0]
     X:    -0.0003      Y:     0.0002      Z:     0.0000     Total:     0.0004

  Dipole Moment: [D]
     X:    -0.0007      Y:     0.0006      Z:     0.0000     Total:     0.0009


*** tstop() called on atlantis at Tue Apr 19 02:20:52 2022
Module time:
	user time   =       1.04 seconds =       0.02 minutes
	system time =       0.02 seconds =       0.00 minutes
	total time  =          1 seconds =       0.02 minutes
Total time:
	user time   =      11.50 seconds =       0.19 minutes
	system time =       0.32 seconds =       0.01 minutes
	total time  =         12 seconds =       0.20 minutes

*** tstart() called on atlantis
*** at Tue Apr 19 02:20:52 2022


  //>>>>>>>>>>>>>>>>>>>>>>>>>>>>>>>>>>>//
  //               DFMP2               //
  //<<<<<<<<<<<<<<<<<<<<<<<<<<<<<<<<<<<//

   => Loading Basis Set <=

    Name: (AUG-CC-PVDZ AUX)
    Role: RIFIT
    Keyword: DF_BASIS_MP2
    atoms 1-3 entry C          line   112 file /home/akrom/software/anaconda3/envs/ffpenv/share/psi4/basis/aug-cc-pvdz-ri.gbs 
    atoms 4-9 entry H          line    30 file /home/akrom/software/anaconda3/envs/ffpenv/share/psi4/basis/aug-cc-pvdz-ri.gbs 

	 --------------------------------------------------------
	                          DF-MP2                         
	      2nd-Order Density-Fitted Moller-Plesset Theory     
	              RMP2 Wavefunction,   1 Threads             
	                                                         
	        Rob Parrish, Justin Turney, Andy Simmonett,      
	           Ed Hohenstein, and C. David Sherrill          
	 --------------------------------------------------------

   => Auxiliary Basis Set <=

  Basis Set: (AUG-CC-PVDZ AUX)
    Blend: AUG-CC-PVDZ-RI
    Number of shells: 120
    Number of basis function: 354
    Number of Cartesian functions: 408
    Spherical Harmonics?: true
    Max angular momentum: 3

	 --------------------------------------------------------
	                 NBF =   123, NAUX =   354
	 --------------------------------------------------------
	   CLASS    FOCC     OCC    AOCC    AVIR     VIR    FVIR
	   PAIRS       0      12      12     111     111       0
	 --------------------------------------------------------

  DFHelper Memory: AOs need 0.055 GiB; user supplied 0.366 GiB. Using in-core AOs.


         ------------------------------------------------------------
                                     CPHF                           
                                  Rob Parrish                       
         ------------------------------------------------------------

  ==> Geometry <==

    Molecular point group: cs
    Full point group: Cs

    Geometry (in Angstrom), charge = 0, multiplicity = 1:

       Center              X                  Y                   Z               Mass       
    ------------   -----------------  -----------------  -----------------  -----------------
         C            0.320981935461     0.813179232929     0.000000000000    12.000000000000
         C           -0.864778117207    -0.127947314912     0.000000000000    12.000000000000
         C            0.543659460418    -0.685217540638     0.000000000000    12.000000000000
         H            0.538602639069     1.360553886373    -0.920390000000     1.007825032230
         H            0.538602639069     1.360553886373     0.920390000000     1.007825032230
         H           -1.447170192407    -0.214118381478     0.920340000000     1.007825032230
         H           -1.447170192407    -0.214118381478    -0.920340000000     1.007825032230
         H            0.909381512053    -1.146521099385    -0.920370000000     1.007825032230
         H            0.909381512053    -1.146521099385     0.920370000000     1.007825032230

  Nuclear repulsion =   75.286659304380962
  Reference energy  = -117.070448942616636

  ==> Basis Set <==

  Basis Set: AUG-CC-PVDZ
    Blend: AUG-CC-PVDZ
    Number of shells: 57
    Number of basis function: 123
    Number of Cartesian functions: 129
    Spherical Harmonics?: true
    Max angular momentum: 2

  ==> CGRSolver (by Rob Parrish) <==

   Number of roots    =         1
   Preconditioning    =    JACOBI
   Convergence cutoff =     1E-06
   Maximum iterations =       100

  ==> CPHFRHamiltonian (by Rob Parrish) <== 

  ==> MemDFJK: Density-Fitted J/K Matrices <==

    J tasked:                   Yes
    K tasked:                   Yes
    wK tasked:                   No
    OpenMP threads:               1
    Memory [MiB]:               375
    Algorithm:                 Core
    Schwarz Cutoff:           1E-12
    Mask sparsity (%):       0.0000
    Fitting Condition:        1E-10

   => Auxiliary Basis Set <=

  Basis Set: (AUG-CC-PVDZ AUX)
    Blend: AUG-CC-PVDZ-JKFIT
    Number of shells: 156
    Number of basis function: 450
    Number of Cartesian functions: 513
    Spherical Harmonics?: true
    Max angular momentum: 3

  ==> CPHF Iterations <==

  => Iterations <=

             Iter  Converged  Remaining    Residual
  CGR           1          0          1   6.693E-02
  CGR           2          0          1   1.597E-02
  CGR           3          0          1   2.738E-03
  CGR           4          0          1   4.665E-04
  CGR           5          0          1   6.148E-05
  CGR           6          0          1   6.066E-06
  CGR           7          0          1   1.373E-06
  CGR           8          1          0   3.850E-07

    CGRSolver converged.

  ==> DFCorrGrad: Density-Fitted Correlated Gradients <==

    OpenMP threads:              1
    Integrals threads:           1
    Memory [GiB]:            0.366
    Schwarz Cutoff:          0E+00
    Fitting Condition:       1E-10

   => Auxiliary Basis Set <=

  Basis Set: (AUG-CC-PVDZ AUX)
    Blend: AUG-CC-PVDZ-JKFIT
    Number of shells: 156
    Number of basis function: 450
    Number of Cartesian functions: 513
    Spherical Harmonics?: true
    Max angular momentum: 3

	-----------------------------------------------------------
	 ==================> DF-MP2 Energies <==================== 
	-----------------------------------------------------------
	 Reference Energy          =    -117.0704489426166361 [Eh]
	 Singles Energy            =      -0.0000000000000000 [Eh]
	 Same-Spin Energy          =      -0.1048078632909205 [Eh]
	 Opposite-Spin Energy      =      -0.3439511348116462 [Eh]
	 Correlation Energy        =      -0.4487589981025668 [Eh]
	 Total Energy              =    -117.5192079407191983 [Eh]
	-----------------------------------------------------------
	 ================> DF-SCS-MP2 Energies <================== 
	-----------------------------------------------------------
	 SCS Same-Spin Scale       =       0.3333333333333333 [-]
	 SCS Opposite-Spin Scale   =       1.2000000000000000 [-]
	 SCS Same-Spin Energy      =      -0.0349359544303068 [Eh]
	 SCS Opposite-Spin Energy  =      -0.4127413617739755 [Eh]
	 SCS Correlation Energy    =      -0.4476773162042823 [Eh]
	 SCS Total Energy          =    -117.5181262588209137 [Eh]
	-----------------------------------------------------------


  -Total Gradient:
     Atom            X                  Y                   Z
    ------   -----------------  -----------------  -----------------
       1       -0.002063894237    -0.004136661094     0.000000000000
       2        0.004404322291     0.000770023701     0.000000000000
       3       -0.002539945488     0.003240804044     0.000000000000
       4        0.000484871420     0.001065876817    -0.001312536709
       5        0.000484871420     0.001065876817     0.001312536709
       6       -0.001053128863    -0.000136840204     0.001211592069
       7       -0.001053128863    -0.000136840204    -0.001211592069
       8        0.000668016159    -0.000866119938    -0.001206784835
       9        0.000668016159    -0.000866119938     0.001206784835


*** tstop() called on atlantis at Tue Apr 19 02:20:56 2022
Module time:
	user time   =       3.44 seconds =       0.06 minutes
	system time =       0.09 seconds =       0.00 minutes
	total time  =          4 seconds =       0.07 minutes
Total time:
	user time   =      14.94 seconds =       0.25 minutes
	system time =       0.41 seconds =       0.01 minutes
	total time  =         16 seconds =       0.27 minutes

  //>>>>>>>>>>>>>>>>>>>>>>>>>>>>>>>>>>>//
  //    Loading displacement 3 of 34   //
  //<<<<<<<<<<<<<<<<<<<<<<<<<<<<<<<<<<<//
gradient() will perform analytic gradient computation.
    SCF Algorithm Type (re)set to DF.

*** tstart() called on atlantis
*** at Tue Apr 19 02:20:56 2022

   => Loading Basis Set <=

    Name: AUG-CC-PVDZ
    Role: ORBITAL
    Keyword: BASIS
    atoms 1-3 entry C          line   178 file /home/akrom/software/anaconda3/envs/ffpenv/share/psi4/basis/aug-cc-pvdz.gbs 
    atoms 4-9 entry H          line    36 file /home/akrom/software/anaconda3/envs/ffpenv/share/psi4/basis/aug-cc-pvdz.gbs 


         ---------------------------------------------------------
                                   SCF
               by Justin Turney, Rob Parrish, Andy Simmonett
                          and Daniel G. A. Smith
                              RHF Reference
                        1 Threads,    500 MiB Core
         ---------------------------------------------------------

  ==> Geometry <==

    Molecular point group: cs
    Full point group: Cs

    Geometry (in Angstrom), charge = 0, multiplicity = 1:

       Center              X                  Y                   Z               Mass       
    ------------   -----------------  -----------------  -----------------  -----------------
         C            0.322081944250     0.813343688021     0.000000000000    12.000000000000
         C           -0.865318003082    -0.128389764139     0.000000000000    12.000000000000
         C            0.543404419293    -0.684939538412     0.000000000000    12.000000000000
         H            0.537301240642     1.360829034576    -0.920390000000     1.007825032230
         H            0.537301240642     1.360829034576     0.920390000000     1.007825032230
         H           -1.447665927882    -0.214858697572     0.920340000000     1.007825032230
         H           -1.447665927882    -0.214858697572    -0.920340000000     1.007825032230
         H            0.909362367658    -1.146055979665    -0.920370000000     1.007825032230
         H            0.909362367658    -1.146055979665     0.920370000000     1.007825032230

  Running in cs symmetry.

  Rotational constants: A =      0.66489  B =      0.66431  C =      0.41639 [cm^-1]
  Rotational constants: A =  19932.94970  B =  19915.53021  C =  12482.92073 [MHz]
  Nuclear repulsion =   75.276267816162189

  Charge       = 0
  Multiplicity = 1
  Electrons    = 24
  Nalpha       = 12
  Nbeta        = 12

  ==> Algorithm <==

  SCF Algorithm Type is DF.
  DIIS enabled.
  MOM disabled.
  Fractional occupation disabled.
  Guess Type is SAD.
  Energy threshold   = 1.00e-10
  Density threshold  = 1.00e-10
  Integral threshold = 0.00e+00

  ==> Primary Basis <==

  Basis Set: AUG-CC-PVDZ
    Blend: AUG-CC-PVDZ
    Number of shells: 57
    Number of basis function: 123
    Number of Cartesian functions: 129
    Spherical Harmonics?: true
    Max angular momentum: 2

   => Loading Basis Set <=

    Name: (AUG-CC-PVDZ AUX)
    Role: JKFIT
    Keyword: DF_BASIS_SCF
    atoms 1-3 entry C          line   154 file /home/akrom/software/anaconda3/envs/ffpenv/share/psi4/basis/aug-cc-pvdz-jkfit.gbs 
    atoms 4-9 entry H          line    70 file /home/akrom/software/anaconda3/envs/ffpenv/share/psi4/basis/aug-cc-pvdz-jkfit.gbs 

  ==> Pre-Iterations <==

   -------------------------------------------------------
    Irrep   Nso     Nmo     Nalpha   Nbeta   Ndocc  Nsocc
   -------------------------------------------------------
     A'        75      75       0       0       0       0
     A"        48      48       0       0       0       0
   -------------------------------------------------------
    Total     123     123      12      12      12       0
   -------------------------------------------------------

  ==> Integral Setup <==

  DFHelper Memory: AOs need 0.055 GiB; user supplied 0.366 GiB. Using in-core AOs.

  ==> MemDFJK: Density-Fitted J/K Matrices <==

    J tasked:                   Yes
    K tasked:                   Yes
    wK tasked:                   No
    OpenMP threads:               1
    Memory [MiB]:               375
    Algorithm:                 Core
    Schwarz Cutoff:           1E-12
    Mask sparsity (%):       0.0000
    Fitting Condition:        1E-10

   => Auxiliary Basis Set <=

  Basis Set: (AUG-CC-PVDZ AUX)
    Blend: AUG-CC-PVDZ-JKFIT
    Number of shells: 156
    Number of basis function: 450
    Number of Cartesian functions: 513
    Spherical Harmonics?: true
    Max angular momentum: 3

  Minimum eigenvalue in the overlap matrix is 1.0781869769E-04.
  Using Symmetric Orthogonalization.

  SCF Guess: Superposition of Atomic Densities via on-the-fly atomic UHF.

  ==> Iterations <==

                           Total Energy        Delta E     RMS |[F,P]|

   @DF-RHF iter SAD:  -116.61707565386561   -1.16617e+02   0.00000e+00 
   @DF-RHF iter   1:  -116.94408266391412   -3.27007e-01   5.08647e-03 DIIS
   @DF-RHF iter   2:  -117.04243237486074   -9.83497e-02   2.52099e-03 DIIS
   @DF-RHF iter   3:  -117.06925485335535   -2.68225e-02   3.77295e-04 DIIS
   @DF-RHF iter   4:  -117.07041469122288   -1.15984e-03   4.73820e-05 DIIS
   @DF-RHF iter   5:  -117.07044236568937   -2.76745e-05   1.07974e-05 DIIS
   @DF-RHF iter   6:  -117.07044392879877   -1.56311e-06   1.82114e-06 DIIS
   @DF-RHF iter   7:  -117.07044397407410   -4.52753e-08   2.52492e-07 DIIS
   @DF-RHF iter   8:  -117.07044397485365   -7.79551e-10   5.47329e-08 DIIS
   @DF-RHF iter   9:  -117.07044397487198   -1.83320e-11   1.62629e-08 DIIS
   @DF-RHF iter  10:  -117.07044397487417   -2.18847e-12   2.79515e-09 DIIS
   @DF-RHF iter  11:  -117.07044397487390    2.70006e-13   3.65176e-10 DIIS
   @DF-RHF iter  12:  -117.07044397487392   -2.84217e-14   3.16589e-11 DIIS
  Energy and wave function converged.


  ==> Post-Iterations <==

    Orbital Energies [Eh]
    ---------------------

    Doubly Occupied:                                                      

       1Ap   -11.233039     2Ap   -11.232088     3Ap   -11.232063  
       4Ap    -1.126996     5Ap    -0.814656     6Ap    -0.814544  
       1App   -0.662549     7Ap    -0.621707     2App   -0.509541  
       3App   -0.509394     8Ap    -0.416838     9Ap    -0.416344  

    Virtual:                                                              

      10Ap     0.040987     4App    0.048427    11Ap     0.051564  
      12Ap     0.051569     5App    0.074122     6App    0.074143  
      13Ap     0.118194    14Ap     0.119341    15Ap     0.119391  
      16Ap     0.154620    17Ap     0.154659    18Ap     0.159146  
       7App    0.169765    19Ap     0.186837     8App    0.198684  
       9App    0.198730    20Ap     0.220922    21Ap     0.220953  
      10App    0.296711    22Ap     0.297454    23Ap     0.314887  
      11App    0.338226    12App    0.338283    24Ap     0.369845  
      25Ap     0.369934    26Ap     0.376863    27Ap     0.441868  
      28Ap     0.441922    29Ap     0.455476    30Ap     0.455583  
      13App    0.470129    14App    0.470439    15App    0.477843  
      16App    0.477873    17App    0.543163    18App    0.543228  
      31Ap     0.551170    19App    0.578156    32Ap     0.609079  
      20App    0.610341    33Ap     0.611443    34Ap     0.611624  
      35Ap     0.612597    36Ap     0.643668    37Ap     0.643686  
      21App    0.682450    22App    0.682533    38Ap     0.702628  
      39Ap     0.702740    40Ap     0.728230    23App    0.740855  
      24App    0.740967    41Ap     0.781732    42Ap     0.781837  
      43Ap     0.790268    44Ap     0.825183    45Ap     0.825283  
      25App    0.902771    26App    0.902859    46Ap     0.965992  
      27App    0.975846    47Ap     1.152855    48Ap     1.153127  
      28App    1.195877    49Ap     1.223401    50Ap     1.223491  
      29App    1.233055    30App    1.233170    31App    1.309915  
      51Ap     1.391465    52Ap     1.536414    53Ap     1.632347  
      32App    1.633972    33App    1.634314    54Ap     1.673744  
      55Ap     1.674009    34App    1.789784    35App    1.790050  
      56Ap     1.873021    57Ap     1.873128    58Ap     1.897056  
      36App    1.960828    59Ap     1.992091    60Ap     1.992632  
      37App    1.996887    38App    2.042759    39App    2.077850  
      40App    2.078112    61Ap     2.195890    62Ap     2.196097  
      63Ap     2.226089    41App    2.314788    42App    2.314834  
      64Ap     2.317171    65Ap     2.317309    66Ap     2.330070  
      67Ap     2.559502    43App    2.601494    44App    2.601925  
      68Ap     2.608487    69Ap     2.641671    70Ap     2.642200  
      45App    2.773664    71Ap     2.822389    72Ap     2.822619  
      46App    2.924478    73Ap     3.055846    74Ap     3.139604  
      75Ap     3.140816    47App    3.238534    48App    3.239342  

    Final Occupation by Irrep:
             Ap   App 
    DOCC [     9,    3 ]

  @DF-RHF Final Energy:  -117.07044397487392

   => Energetics <=

    Nuclear Repulsion Energy =             75.2762678161621892
    One-Electron Energy =                -305.5139083631362382
    Two-Electron Energy =                 113.1671965721001101
    Total Energy =                       -117.0704439748739247

Computation Completed


Properties will be evaluated at   0.000000,   0.000000,   0.000000 [a0]

Properties computed using the SCF density matrix

  Nuclear Dipole Moment: [e a0]
     X:    -0.0019      Y:    -0.0002      Z:     0.0000

  Electronic Dipole Moment: [e a0]
     X:     0.0021      Y:    -0.0001      Z:     0.0000

  Dipole Moment: [e a0]
     X:     0.0002      Y:    -0.0003      Z:     0.0000     Total:     0.0003

  Dipole Moment: [D]
     X:     0.0006      Y:    -0.0007      Z:     0.0000     Total:     0.0009


*** tstop() called on atlantis at Tue Apr 19 02:20:57 2022
Module time:
	user time   =       1.05 seconds =       0.02 minutes
	system time =       0.01 seconds =       0.00 minutes
	total time  =          1 seconds =       0.02 minutes
Total time:
	user time   =      15.99 seconds =       0.27 minutes
	system time =       0.42 seconds =       0.01 minutes
	total time  =         17 seconds =       0.28 minutes

*** tstart() called on atlantis
*** at Tue Apr 19 02:20:57 2022


  //>>>>>>>>>>>>>>>>>>>>>>>>>>>>>>>>>>>//
  //               DFMP2               //
  //<<<<<<<<<<<<<<<<<<<<<<<<<<<<<<<<<<<//

   => Loading Basis Set <=

    Name: (AUG-CC-PVDZ AUX)
    Role: RIFIT
[...]
	 Opposite-Spin Energy      =      -0.3439565784661453 [Eh]
	 Correlation Energy        =      -0.4487644817805513 [Eh]
	 Total Energy              =    -117.5192088692569996 [Eh]
	-----------------------------------------------------------
	 ================> DF-SCS-MP2 Energies <================== 
	-----------------------------------------------------------
	 SCS Same-Spin Scale       =       0.3333333333333333 [-]
	 SCS Opposite-Spin Scale   =       1.2000000000000000 [-]
	 SCS Same-Spin Energy      =      -0.0349359677714687 [Eh]
	 SCS Opposite-Spin Energy  =      -0.4127478941593744 [Eh]
	 SCS Correlation Energy    =      -0.4476838619308430 [Eh]
	 SCS Total Energy          =    -117.5181282494072832 [Eh]
	-----------------------------------------------------------


  -Total Gradient:
     Atom            X                  Y                   Z
    ------   -----------------  -----------------  -----------------
       1       -0.001519747472    -0.003841466445     0.000006448593
       2        0.004110863482     0.000611453085     0.000472154115
       3       -0.002570328370     0.003245062961    -0.001318979142
       4        0.000391088040     0.000992918045    -0.001214780797
       5        0.000396475509     0.001005472596     0.001211746531
       6       -0.000884415924    -0.000156268689     0.000909497798
       7       -0.001255908803    -0.000165715734    -0.001497893036
       8        0.000294633307    -0.000469927893    -0.000491234635
       9        0.001037340233    -0.001221527924     0.001923040575


*** tstop() called on atlantis at Tue Apr 19 02:23:23 2022
Module time:
	user time   =       3.41 seconds =       0.06 minutes
	system time =       0.07 seconds =       0.00 minutes
	total time  =          4 seconds =       0.07 minutes
Total time:
	user time   =     157.83 seconds =       2.63 minutes
	system time =       3.94 seconds =       0.07 minutes
	total time  =        163 seconds =       2.72 minutes

         ----------------------------------------------------------
                                   FINDIF
                     R. A. King and Jonathon Misiewicz
         ---------------------------------------------------------

  Computing second-derivative from gradients using projected, 
  symmetry-adapted, cartesian coordinates.

  34 gradients passed in, including the reference geometry.
  Generating complete list of displacements from unique ones.

    Operation 2 takes plus displacements of irrep A" to minus ones.

-------------------------------------------------------------


  ==> Harmonic Vibrational Analysis <==

  non-mass-weighted Hessian:       Symmetric? True   Hermitian? True   Lin Dep Dim?  6 (0)
  projection of translations (True) and rotations (True) removed 6 degrees of freedom (6)
  total projector:                 Symmetric? True   Hermitian? True   Lin Dep Dim?  6 (6)
  mass-weighted Hessian:           Symmetric? True   Hermitian? True   Lin Dep Dim?  6 (0)
  pre-proj  low-frequency mode:    0.0000i [cm^-1]
  pre-proj  low-frequency mode:    0.0000i [cm^-1]
  pre-proj  low-frequency mode:    0.0000  [cm^-1]
  pre-proj  low-frequency mode:    0.0000  [cm^-1]
  pre-proj  low-frequency mode:    0.0000  [cm^-1]
  pre-proj  low-frequency mode:    0.0000  [cm^-1]
  pre-proj  all modes:['0.0000i' '0.0000i' '0.0000' '0.0000' '0.0000' '0.0000' '741.1182'
 '741.1380' '862.3794' '901.9413' '901.9822' '1043.5034' '1043.5137'
 '1063.7664' '1155.3314' '1206.1662' '1206.1685' '1233.4029' '1468.2254'
 '1468.2349' '1522.9112' '3160.1184' '3160.1391' '3171.1914' '3254.5982'
 '3254.6087' '3274.5491']
  projected mass-weighted Hessian: Symmetric? True   Hermitian? True   Lin Dep Dim?  6 (6)
  post-proj low-frequency mode:    0.0000i [cm^-1] (TR)
  post-proj low-frequency mode:    0.0000i [cm^-1] (TR)
  post-proj low-frequency mode:    0.0000i [cm^-1] (TR)
  post-proj low-frequency mode:    0.0000  [cm^-1] (TR)
  post-proj low-frequency mode:    0.0000  [cm^-1] (TR)
  post-proj low-frequency mode:    0.0000  [cm^-1] (TR)
  post-proj  all modes:['0.0000i' '0.0000i' '0.0000i' '0.0000' '0.0000' '0.0000' '741.1182'
 '741.1380' '862.3794' '901.9413' '901.9822' '1043.5034' '1043.5137'
 '1063.7664' '1155.3314' '1206.1662' '1206.1685' '1233.4029' '1468.2254'
 '1468.2349' '1522.9112' '3160.1184' '3160.1391' '3171.1914' '3254.5982'
 '3254.6087' '3274.5491']

  Vibration                       7                   8                   9           
  Freq [cm^-1]                 741.1182            741.1380            862.3794       
  Irrep                          App                 App                 App          
  Reduced mass [u]              1.0232              1.0232              1.0439        
  Force const [mDyne/A]         0.3311              0.3311              0.4574        
  Turning point v=0 [a0]        0.3985              0.3985              0.3657        
  RMS dev v=0 [a0 u^1/2]        0.2850              0.2850              0.2642        
  Char temp [K]               1066.3041           1066.3326           1240.7720       
  ----------------------------------------------------------------------------------
      1   C                0.00  0.00  0.03    0.00  0.00 -0.01    0.00 -0.00 -0.03   
      2   C                0.00 -0.00 -0.02    0.00  0.00 -0.02   -0.00  0.00 -0.03   
      3   C               -0.00 -0.00 -0.01   -0.00 -0.00  0.03    0.00  0.00 -0.03   
      4   H               -0.01 -0.34 -0.17    0.43 -0.08  0.05    0.13  0.33  0.20   
      5   H                0.01  0.34 -0.17   -0.43  0.08  0.05   -0.13 -0.33  0.20   
      6   H                0.27 -0.27  0.13    0.18  0.34  0.13    0.35  0.05  0.20   
      7   H               -0.27  0.27  0.13   -0.18 -0.34  0.13   -0.35 -0.05  0.20   
      8   H                0.39  0.20  0.05   -0.11  0.32 -0.17    0.22 -0.28  0.20   
      9   H               -0.39 -0.20  0.05    0.11 -0.32 -0.17   -0.22  0.28  0.20   

  Vibration                       10                  11                  12          
  Freq [cm^-1]                 901.9413            901.9822           1043.5034       
  Irrep                           Ap                  Ap                  Ap          
  Reduced mass [u]              3.9124              3.9131              1.2430        
  Force const [mDyne/A]         1.8752              1.8757              0.7974        
  Turning point v=0 [a0]        0.1847              0.1847              0.3047        
  RMS dev v=0 [a0 u^1/2]        0.2583              0.2583              0.2402        
  Char temp [K]               1297.6928           1297.7516           1501.3691       
  ----------------------------------------------------------------------------------
      1   C                0.23 -0.17  0.00   -0.18 -0.25  0.00   -0.08  0.05 -0.00   
      2   C               -0.28 -0.12  0.00   -0.12  0.26  0.00    0.02 -0.01  0.00   
      3   C                0.02  0.30  0.00    0.29 -0.05  0.00   -0.08 -0.07 -0.00   
      4   H                0.35 -0.21  0.01   -0.19 -0.20  0.03    0.43 -0.17 -0.01   
      5   H                0.35 -0.21 -0.01   -0.19 -0.20 -0.03    0.43 -0.17  0.01   
      6   H               -0.24 -0.15  0.03   -0.13  0.39  0.01   -0.01  0.05 -0.02   
      7   H               -0.24 -0.15 -0.03   -0.13  0.39 -0.01   -0.01  0.05  0.02   
      8   H                0.11  0.33  0.02    0.35  0.04 -0.02    0.40  0.32 -0.01   
      9   H                0.11  0.33 -0.02    0.35  0.04  0.02    0.40  0.32  0.01   

  Vibration                       13                  14                  15          
  Freq [cm^-1]                1043.5137           1063.7664           1155.3314       
  Irrep                           Ap                  Ap                 App          
  Reduced mass [u]              1.2430              1.4254              1.0078        
  Force const [mDyne/A]         0.7975              0.9504              0.7926        
  Turning point v=0 [a0]        0.3047              0.2818              0.3216        
  RMS dev v=0 [a0 u^1/2]        0.2402              0.2379              0.2283        
  Char temp [K]               1501.3839           1530.5230           1662.2646       
  ----------------------------------------------------------------------------------
      1   C                0.07 -0.01  0.00   -0.10  0.04  0.00    0.00  0.00 -0.00   
      2   C                0.02 -0.12 -0.00    0.02 -0.11 -0.00    0.00  0.00  0.00   
      3   C               -0.05 -0.01  0.00    0.09  0.07 -0.00    0.00 -0.00  0.00   
      4   H               -0.31  0.12 -0.01    0.37 -0.15 -0.00   -0.38  0.15  0.00   
      5   H               -0.31  0.12  0.01    0.37 -0.15  0.00    0.38 -0.15  0.00   
      6   H               -0.08  0.56  0.00   -0.06  0.40 -0.00   -0.06  0.40  0.00   
      7   H               -0.08  0.56 -0.00   -0.06  0.40  0.00    0.06 -0.40  0.00   
      8   H                0.19  0.15  0.01   -0.31 -0.25  0.00    0.32  0.25 -0.00   
      9   H                0.19  0.15 -0.01   -0.31 -0.25 -0.00   -0.32 -0.25 -0.00   

  Vibration                       16                  17                  18          
  Freq [cm^-1]                1206.1662           1206.1685           1233.4029       
  Irrep                          App                 App                  Ap          
  Reduced mass [u]              1.4475              1.4475              2.4713        
  Force const [mDyne/A]         1.2408              1.2408              2.2151        
  Turning point v=0 [a0]        0.2626              0.2626              0.1987        
  RMS dev v=0 [a0 u^1/2]        0.2234              0.2234              0.2209        
  Char temp [K]               1735.4047           1735.4079           1774.5922       
  ----------------------------------------------------------------------------------
      1   C               -0.00 -0.00 -0.05   -0.00 -0.00  0.16   -0.08 -0.20 -0.00   
      2   C                0.00  0.00  0.16    0.00  0.00 -0.03    0.21  0.03 -0.00   
      3   C               -0.00  0.00 -0.11   -0.00  0.00 -0.12   -0.13  0.17  0.00   
      4   H                0.39 -0.02  0.03   -0.02 -0.40 -0.08   -0.14 -0.35 -0.07   
      5   H               -0.39  0.02  0.03    0.02  0.40 -0.08   -0.14 -0.35  0.07   
      6   H               -0.40  0.02 -0.08    0.02  0.39  0.02    0.37  0.05  0.07   
      7   H                0.40 -0.02 -0.08   -0.02 -0.39  0.02    0.37  0.05 -0.07   
      8   H                0.39 -0.02  0.06   -0.02 -0.39  0.06   -0.23  0.29 -0.07   
      9   H               -0.39  0.02  0.06    0.02  0.39  0.06   -0.23  0.29  0.07   

  Vibration                       19                  20                  21          
  Freq [cm^-1]                1468.2254           1468.2349           1522.9112       
  Irrep                           Ap                  Ap                  Ap          
  Reduced mass [u]              1.0898              1.0898              1.3778        
  Force const [mDyne/A]         1.3841              1.3841              1.8827        
  Turning point v=0 [a0]        0.2743              0.2743              0.2395        
  RMS dev v=0 [a0 u^1/2]        0.2025              0.2025              0.1988        
  Char temp [K]               2112.4495           2112.4631           2191.1302       
  ----------------------------------------------------------------------------------
      1   C               -0.01 -0.04 -0.00   -0.03 -0.05 -0.00   -0.04 -0.10 -0.00   
      2   C                0.03 -0.01  0.00   -0.06 -0.01 -0.00    0.10  0.02  0.00   
      3   C                0.04 -0.05 -0.00   -0.02  0.00 -0.00   -0.07  0.08 -0.00   
      4   H                0.10  0.29  0.21    0.14  0.33  0.25    0.11  0.28  0.26   
      5   H                0.10  0.29 -0.21    0.14  0.33 -0.25    0.11  0.28 -0.26   
      6   H               -0.16 -0.01 -0.11    0.44  0.07  0.31   -0.30 -0.04 -0.26   
      7   H               -0.16 -0.01  0.11    0.44  0.07 -0.31   -0.30 -0.04  0.26   
      8   H               -0.29  0.37 -0.32    0.06 -0.05  0.06    0.19 -0.24  0.26   
      9   H               -0.29  0.37  0.32    0.06 -0.05 -0.06    0.19 -0.24 -0.26   

  Vibration                       22                  23                  24          
  Freq [cm^-1]                3160.1184           3160.1391           3171.1914       
  Irrep                           Ap                  Ap                  Ap          
  Reduced mass [u]              1.0508              1.0508              1.0668        
  Force const [mDyne/A]         6.1829              6.1830              6.3211        
  Turning point v=0 [a0]        0.1904              0.1904              0.1886        
  RMS dev v=0 [a0 u^1/2]        0.1380              0.1380              0.1378        
  Char temp [K]               4546.7068           4546.7366           4562.6384       
  ----------------------------------------------------------------------------------
      1   C                0.02  0.04  0.00    0.01  0.02  0.00    0.02  0.04  0.00   
      2   C                0.00  0.00 -0.00    0.05  0.01 -0.00   -0.04 -0.01  0.00   
      3   C               -0.03  0.03 -0.00    0.02 -0.02  0.00    0.03 -0.03  0.00   
      4   H               -0.10 -0.25  0.45   -0.05 -0.12  0.21   -0.08 -0.19  0.35   
      5   H               -0.10 -0.25 -0.45   -0.05 -0.12 -0.21   -0.08 -0.19 -0.35   
      6   H               -0.03 -0.01  0.04   -0.29 -0.04  0.49    0.21  0.03 -0.35   
      7   H               -0.03 -0.01 -0.04   -0.29 -0.04 -0.49    0.21  0.03  0.35   
      8   H                0.15 -0.19 -0.40   -0.11  0.13  0.28   -0.13  0.16  0.35   
      9   H                0.15 -0.19  0.40   -0.11  0.13 -0.28   -0.13  0.16 -0.35   

  Vibration                       25                  26                  27          
  Freq [cm^-1]                3254.5982           3254.6087           3274.5491       
  Irrep                          App                 App                 App          
  Reduced mass [u]              1.1198              1.1198              1.1163        
  Force const [mDyne/A]         6.9885              6.9886              7.0526        
  Turning point v=0 [a0]        0.1818              0.1818              0.1815        
  RMS dev v=0 [a0 u^1/2]        0.1360              0.1360              0.1356        
  Char temp [K]               4682.6422           4682.6573           4711.3471       
  ----------------------------------------------------------------------------------
      1   C               -0.00 -0.00  0.02    0.00  0.00 -0.08    0.00  0.00 -0.06   
      2   C               -0.00 -0.00 -0.08    0.00 -0.00  0.02   -0.00 -0.00 -0.06   
      3   C                0.00 -0.00  0.06    0.00  0.00  0.06    0.00 -0.00 -0.06   
      4   H                0.03  0.07 -0.12   -0.11 -0.28  0.47   -0.08 -0.20  0.34   
      5   H               -0.03 -0.07 -0.12    0.11  0.28  0.47    0.08  0.20  0.34   
      6   H               -0.29 -0.04  0.47    0.08  0.01 -0.13   -0.22 -0.03  0.34   
      7   H                0.29  0.04  0.47   -0.08 -0.01 -0.13    0.22  0.03  0.34   
      8   H                0.13 -0.17 -0.34    0.14 -0.17 -0.34   -0.14  0.17  0.34   
      9   H               -0.13  0.17 -0.34   -0.14  0.17 -0.34    0.14 -0.17  0.34   

  ==> Thermochemistry Components <==

  Entropy, S
    Electronic S            0.000 [cal/(mol K)]        0.000 [J/(mol K)]       0.00000000 [mEh/K] (multiplicity = 1)
    Translational S        37.135 [cal/(mol K)]      155.375 [J/(mol K)]       0.05917914 [mEh/K] (mol. weight = 42.0470 [u], P = 101325.00 [Pa])
    Rotational S           21.699 [cal/(mol K)]       90.789 [J/(mol K)]       0.03457982 [mEh/K] (symmetry no. = 1)
    Vibrational S           1.394 [cal/(mol K)]        5.833 [J/(mol K)]       0.00222184 [mEh/K]
  Total S                  60.229 [cal/(mol K)]      251.998 [J/(mol K)]       0.09598080 [mEh/K]
  Correction S              0.000 [cal/(mol K)]        0.000 [J/(mol K)]       0.00000000 [mEh/K]

  Constant volume heat capacity, Cv
    Electronic Cv           0.000 [cal/(mol K)]        0.000 [J/(mol K)]       0.00000000 [mEh/K]
    Translational Cv        2.981 [cal/(mol K)]       12.472 [J/(mol K)]       0.00475022 [mEh/K]
    Rotational Cv           2.981 [cal/(mol K)]       12.472 [J/(mol K)]       0.00475022 [mEh/K]
    Vibrational Cv          5.088 [cal/(mol K)]       21.290 [J/(mol K)]       0.00810890 [mEh/K]
  Total Cv                 11.050 [cal/(mol K)]       46.233 [J/(mol K)]       0.01760933 [mEh/K]
  Correction Cv             0.000 [cal/(mol K)]        0.000 [J/(mol K)]       0.00000000 [mEh/K]

  Constant pressure heat capacity, Cp
    Electronic Cp           0.000 [cal/(mol K)]        0.000 [J/(mol K)]       0.00000000 [mEh/K]
    Translational Cp        4.968 [cal/(mol K)]       20.786 [J/(mol K)]       0.00791703 [mEh/K]
    Rotational Cp           2.981 [cal/(mol K)]       12.472 [J/(mol K)]       0.00475022 [mEh/K]
    Vibrational Cp          5.088 [cal/(mol K)]       21.290 [J/(mol K)]       0.00810890 [mEh/K]
  Total Cp                 13.037 [cal/(mol K)]       54.548 [J/(mol K)]       0.02077614 [mEh/K]
  Correction Cp             0.000 [cal/(mol K)]        0.000 [J/(mol K)]       0.00000000 [mEh/K]

  ==> Thermochemistry Energy Analysis <==

  Raw electronic energy, E0
  Total E0, Electronic energy at well bottom at 0 [K]                 -117.51921153 [Eh]

  Zero-point energy, ZPE_vib = Sum_i nu_i / 2
    Electronic ZPE          0.000 [kcal/mol]        0.000 [kJ/mol]       0.00000000 [Eh]
    Translational ZPE       0.000 [kcal/mol]        0.000 [kJ/mol]       0.00000000 [Eh]
    Rotational ZPE          0.000 [kcal/mol]        0.000 [kJ/mol]       0.00000000 [Eh]
    Vibrational ZPE        51.229 [kcal/mol]      214.341 [kJ/mol]       0.08163811 [Eh]       17917.494 [cm^-1]
  Correction ZPE           51.229 [kcal/mol]      214.341 [kJ/mol]       0.08163811 [Eh]       17917.494 [cm^-1]
  Total ZPE, Electronic energy at 0 [K]                               -117.43757342 [Eh]

  Thermal Energy, E (includes ZPE)
    Electronic E            0.000 [kcal/mol]        0.000 [kJ/mol]       0.00000000 [Eh]
    Translational E         0.889 [kcal/mol]        3.718 [kJ/mol]       0.00141628 [Eh]
    Rotational E            0.889 [kcal/mol]        3.718 [kJ/mol]       0.00141628 [Eh]
    Vibrational E          51.566 [kcal/mol]      215.753 [kJ/mol]       0.08217593 [Eh]
  Correction E             53.344 [kcal/mol]      223.190 [kJ/mol]       0.08500848 [Eh]
  Total E, Electronic energy at  298.15 [K]                           -117.43420305 [Eh]

  Enthalpy, H_trans = E_trans + k_B * T
    Electronic H            0.000 [kcal/mol]        0.000 [kJ/mol]       0.00000000 [Eh]
    Translational H         1.481 [kcal/mol]        6.197 [kJ/mol]       0.00236046 [Eh]
    Rotational H            0.889 [kcal/mol]        3.718 [kJ/mol]       0.00141628 [Eh]
    Vibrational H          51.566 [kcal/mol]      215.753 [kJ/mol]       0.08217593 [Eh]
  Correction H             53.936 [kcal/mol]      225.669 [kJ/mol]       0.08595267 [Eh]
  Total H, Enthalpy at  298.15 [K]                                    -117.43325887 [Eh]

  Gibbs free energy, G = H - T * S
    Electronic G            0.000 [kcal/mol]        0.000 [kJ/mol]       0.00000000 [Eh]
    Translational G        -9.591 [kcal/mol]      -40.128 [kJ/mol]      -0.01528380 [Eh]
    Rotational G           -5.581 [kcal/mol]      -23.350 [kJ/mol]      -0.00889370 [Eh]
    Vibrational G          51.150 [kcal/mol]      214.014 [kJ/mol]       0.08151349 [Eh]
  Correction G             35.979 [kcal/mol]      150.536 [kJ/mol]       0.05733599 [Eh]
  Total G, Free enthalpy at  298.15 [K]                               -117.46187554 [Eh]

    Psi4 stopped on: Tuesday, 19 April 2022 02:23AM
    Psi4 wall time for execution: 0:02:42.78

*** Psi4 exiting successfully. Buy a developer a beer!
