
    -----------------------------------------------------------------------
          Psi4: An Open-Source Ab Initio Electronic Structure Package
                               Psi4 1.3.2 release

                         Git: Rev {HEAD} ecbda83 


    R. M. Parrish, L. A. Burns, D. G. A. Smith, A. C. Simmonett,
    A. E. DePrince III, E. G. Hohenstein, U. Bozkaya, A. Yu. Sokolov,
    R. Di Remigio, R. M. Richard, J. F. Gonthier, A. M. James,
    H. R. McAlexander, A. Kumar, M. Saitow, X. Wang, B. P. Pritchard,
    P. Verma, H. F. Schaefer III, K. Patkowski, R. A. King, E. F. Valeev,
    F. A. Evangelista, J. M. Turney, T. D. Crawford, and C. D. Sherrill,
    J. Chem. Theory Comput. 13(7) pp 3185--3197 (2017).
    (doi: 10.1021/acs.jctc.7b00174)


                         Additional Contributions by
    P. Kraus, H. Kruse, M. H. Lechner, M. C. Schieber, R. A. Shaw,
    A. Alenaizan, R. Galvelis, Z. L. Glick, S. Lehtola, and J. P. Misiewicz

    -----------------------------------------------------------------------


    Psi4 started on: Tuesday, 19 April 2022 12:29AM

    Process ID: 25449
    Host:       atlantis
    PSIDATADIR: /home/akrom/software/anaconda3/envs/ffpenv/share/psi4
    Memory:     500.0 MiB
    Threads:    1
    
  ==> Input File <==

--------------------------------------------------------------------------
set basis  cc-pVTZ
molecule {
0 1
   O        0.00000        0.00000        0.49152
   C        0.00000        0.00000       -0.65516
}
energy('scf')
frequencies('scf')
--------------------------------------------------------------------------

*** tstart() called on atlantis
*** at Tue Apr 19 00:29:18 2022

   => Loading Basis Set <=

    Name: CC-PVTZ
    Role: ORBITAL
    Keyword: BASIS
    atoms 1 entry O          line   262 file /home/akrom/software/anaconda3/envs/ffpenv/share/psi4/basis/cc-pvtz.gbs 
    atoms 2 entry C          line   186 file /home/akrom/software/anaconda3/envs/ffpenv/share/psi4/basis/cc-pvtz.gbs 


         ---------------------------------------------------------
                                   SCF
               by Justin Turney, Rob Parrish, Andy Simmonett
                          and Daniel G. A. Smith
                              RHF Reference
                        1 Threads,    500 MiB Core
         ---------------------------------------------------------

  ==> Geometry <==

    Molecular point group: c2v
    Full point group: C_inf_v

    Geometry (in Angstrom), charge = 0, multiplicity = 1:

       Center              X                  Y                   Z               Mass       
    ------------   -----------------  -----------------  -----------------  -----------------
         O            0.000000000000     0.000000000000     0.491523556581    15.994914619570
         C            0.000000000000     0.000000000000    -0.655156443419    12.000000000000

  Running in c2v symmetry.

  Rotational constants: A = ************  B =      1.86994  C =      1.86994 [cm^-1]
  Rotational constants: A = ************  B =  56059.43274  C =  56059.43274 [MHz]
  Nuclear repulsion =   22.151346593783796

  Charge       = 0
  Multiplicity = 1
  Electrons    = 14
  Nalpha       = 7
  Nbeta        = 7

  ==> Algorithm <==

  SCF Algorithm Type is DF.
  DIIS enabled.
  MOM disabled.
  Fractional occupation disabled.
  Guess Type is SAD.
  Energy threshold   = 1.00e-06
  Density threshold  = 1.00e-06
  Integral threshold = 0.00e+00

  ==> Primary Basis <==

  Basis Set: CC-PVTZ
    Blend: CC-PVTZ
    Number of shells: 20
    Number of basis function: 60
    Number of Cartesian functions: 70
    Spherical Harmonics?: true
    Max angular momentum: 3

   => Loading Basis Set <=

    Name: (CC-PVTZ AUX)
    Role: JKFIT
    Keyword: DF_BASIS_SCF
    atoms 1 entry O          line   229 file /home/akrom/software/anaconda3/envs/ffpenv/share/psi4/basis/cc-pvtz-jkfit.gbs 
    atoms 2 entry C          line   125 file /home/akrom/software/anaconda3/envs/ffpenv/share/psi4/basis/cc-pvtz-jkfit.gbs 

  ==> Pre-Iterations <==

   -------------------------------------------------------
    Irrep   Nso     Nmo     Nalpha   Nbeta   Ndocc  Nsocc
   -------------------------------------------------------
     A1        26      26       0       0       0       0
     A2         6       6       0       0       0       0
     B1        14      14       0       0       0       0
     B2        14      14       0       0       0       0
   -------------------------------------------------------
    Total      60      60       7       7       7       0
   -------------------------------------------------------

  ==> Integral Setup <==

  DFHelper Memory: AOs need 0.005 GiB; user supplied 0.366 GiB. Using in-core AOs.

  ==> MemDFJK: Density-Fitted J/K Matrices <==

    J tasked:                   Yes
    K tasked:                   Yes
    wK tasked:                   No
    OpenMP threads:               1
    Memory [MiB]:               375
    Algorithm:                 Core
    Schwarz Cutoff:           1E-12
    Mask sparsity (%):       0.0000
    Fitting Condition:        1E-10

   => Auxiliary Basis Set <=

  Basis Set: (CC-PVTZ AUX)
    Blend: CC-PVTZ-JKFIT
    Number of shells: 50
    Number of basis function: 158
    Number of Cartesian functions: 192
    Spherical Harmonics?: true
    Max angular momentum: 4

  Minimum eigenvalue in the overlap matrix is 3.1385010961E-03.
  Using Symmetric Orthogonalization.

  SCF Guess: Superposition of Atomic Densities via on-the-fly atomic UHF.

  ==> Iterations <==

                           Total Energy        Delta E     RMS |[F,P]|

   @DF-RHF iter SAD:  -111.85337318769419   -1.11853e+02   0.00000e+00 
   @DF-RHF iter   1:  -112.75050498963344   -8.97132e-01   8.38792e-03 DIIS
   @DF-RHF iter   2:  -112.75872884690934   -8.22386e-03   7.10769e-03 DIIS
   @DF-RHF iter   3:  -112.77714098836840   -1.84121e-02   4.74314e-04 DIIS
   @DF-RHF iter   4:  -112.77726075994566   -1.19772e-04   6.71444e-05 DIIS
   @DF-RHF iter   5:  -112.77726348134247   -2.72140e-06   1.37553e-05 DIIS
   @DF-RHF iter   6:  -112.77726367565073   -1.94308e-07   2.97092e-06 DIIS
   @DF-RHF iter   7:  -112.77726368210749   -6.45676e-09   3.71966e-07 DIIS
  Energy and wave function converged.


  ==> Post-Iterations <==

    Orbital Energies [Eh]
    ---------------------

    Doubly Occupied:                                                      

       1A1   -20.666448     2A1   -11.367934     3A1    -1.508588  
       4A1    -0.801993     1B1    -0.631015     1B2    -0.631015  
       5A1    -0.555627  

    Virtual:                                                              

       2B1     0.131901     2B2     0.131901     6A1     0.276564  
       7A1     0.437471     3B2     0.451870     3B1     0.451870  
       8A1     0.720175     9A1     0.811340    10A1     0.817471  
       1A2     0.817471     4B1     0.819473     4B2     0.819473  
       5B2     1.057210     5B1     1.057210    11A1     1.348681  
      12A1     1.568277    13A1     1.771691     2A2     1.771691  
       6B1     2.178957     6B2     2.178957    14A1     2.218425  
       7B2     2.304485     7B1     2.304485    15A1     2.763070  
       8B1     2.914818     8B2     2.914818    16A1     3.118022  
       3A2     3.118022     4A2     3.250593    17A1     3.250593  
       9B1     3.300616     9B2     3.300616    18A1     3.449186  
      10B1     3.605754    10B2     3.605754    19A1     3.724596  
      11B2     4.489002    11B1     4.489002    20A1     4.840482  
      12B1     5.522939    12B2     5.522939     5A2     5.909516  
      21A1     5.909516    22A1     6.585871    13B1     6.679405  
      13B2     6.679405     6A2     6.751093    23A1     6.751093  
      24A1     7.212703    14B1     7.234964    14B2     7.234964  
      25A1     7.486322    26A1    12.630520  

    Final Occupation by Irrep:
             A1    A2    B1    B2 
    DOCC [     5,    0,    1,    1 ]

  @DF-RHF Final Energy:  -112.77726368210749

   => Energetics <=

    Nuclear Repulsion Energy =             22.1513465937837957
    One-Electron Energy =                -197.5319920256370665
    Two-Electron Energy =                  62.6033817497457932
    Total Energy =                       -112.7772636821074883

Computation Completed


Properties will be evaluated at   0.000000,   0.000000,   0.000000 [a0]

Properties computed using the SCF density matrix

  Nuclear Dipole Moment: [e a0]
     X:     0.0000      Y:     0.0000      Z:     0.0024

  Electronic Dipole Moment: [e a0]
     X:     0.0000      Y:     0.0000      Z:    -0.1346

  Dipole Moment: [e a0]
     X:     0.0000      Y:     0.0000      Z:    -0.1322     Total:     0.1322

  Dipole Moment: [D]
     X:     0.0000      Y:     0.0000      Z:    -0.3360     Total:     0.3360


*** tstop() called on atlantis at Tue Apr 19 00:29:19 2022
Module time:
	user time   =       0.32 seconds =       0.01 minutes
	system time =       0.01 seconds =       0.00 minutes
	total time  =          1 seconds =       0.02 minutes
Total time:
	user time   =       0.32 seconds =       0.01 minutes
	system time =       0.01 seconds =       0.00 minutes
	total time  =          1 seconds =       0.02 minutes
gradient() will perform analytic gradient computation.

*** tstart() called on atlantis
*** at Tue Apr 19 00:29:19 2022

   => Loading Basis Set <=

    Name: CC-PVTZ
    Role: ORBITAL
    Keyword: BASIS
    atoms 1 entry O          line   262 file /home/akrom/software/anaconda3/envs/ffpenv/share/psi4/basis/cc-pvtz.gbs 
    atoms 2 entry C          line   186 file /home/akrom/software/anaconda3/envs/ffpenv/share/psi4/basis/cc-pvtz.gbs 


         ---------------------------------------------------------
                                   SCF
               by Justin Turney, Rob Parrish, Andy Simmonett
                          and Daniel G. A. Smith
                              RHF Reference
                        1 Threads,    500 MiB Core
         ---------------------------------------------------------

  ==> Geometry <==

    Molecular point group: c2v
    Full point group: C_inf_v

    Geometry (in Angstrom), charge = 0, multiplicity = 1:

       Center              X                  Y                   Z               Mass       
    ------------   -----------------  -----------------  -----------------  -----------------
         O            0.000000000000     0.000000000000     0.491523556581    15.994914619570
         C            0.000000000000     0.000000000000    -0.655156443419    12.000000000000

  Running in c2v symmetry.

  Rotational constants: A = ************  B =      1.86994  C =      1.86994 [cm^-1]
  Rotational constants: A = ************  B =  56059.43274  C =  56059.43274 [MHz]
  Nuclear repulsion =   22.151346593783796

  Charge       = 0
  Multiplicity = 1
  Electrons    = 14
  Nalpha       = 7
  Nbeta        = 7

  ==> Algorithm <==

  SCF Algorithm Type is DF.
  DIIS enabled.
  MOM disabled.
  Fractional occupation disabled.
  Guess Type is SAD.
  Energy threshold   = 1.00e-08
  Density threshold  = 1.00e-08
  Integral threshold = 0.00e+00

  ==> Primary Basis <==

  Basis Set: CC-PVTZ
    Blend: CC-PVTZ
    Number of shells: 20
    Number of basis function: 60
    Number of Cartesian functions: 70
    Spherical Harmonics?: true
    Max angular momentum: 3

   => Loading Basis Set <=

    Name: (CC-PVTZ AUX)
    Role: JKFIT
    Keyword: DF_BASIS_SCF
    atoms 1 entry O          line   229 file /home/akrom/software/anaconda3/envs/ffpenv/share/psi4/basis/cc-pvtz-jkfit.gbs 
    atoms 2 entry C          line   125 file /home/akrom/software/anaconda3/envs/ffpenv/share/psi4/basis/cc-pvtz-jkfit.gbs 

  ==> Pre-Iterations <==

   -------------------------------------------------------
    Irrep   Nso     Nmo     Nalpha   Nbeta   Ndocc  Nsocc
   -------------------------------------------------------
     A1        26      26       0       0       0       0
     A2         6       6       0       0       0       0
     B1        14      14       0       0       0       0
     B2        14      14       0       0       0       0
   -------------------------------------------------------
    Total      60      60       7       7       7       0
   -------------------------------------------------------

  ==> Integral Setup <==

  DFHelper Memory: AOs need 0.005 GiB; user supplied 0.366 GiB. Using in-core AOs.

  ==> MemDFJK: Density-Fitted J/K Matrices <==

    J tasked:                   Yes
    K tasked:                   Yes
    wK tasked:                   No
    OpenMP threads:               1
    Memory [MiB]:               375
    Algorithm:                 Core
    Schwarz Cutoff:           1E-12
    Mask sparsity (%):       0.0000
    Fitting Condition:        1E-10

   => Auxiliary Basis Set <=

  Basis Set: (CC-PVTZ AUX)
    Blend: CC-PVTZ-JKFIT
    Number of shells: 50
    Number of basis function: 158
    Number of Cartesian functions: 192
    Spherical Harmonics?: true
    Max angular momentum: 4

  Minimum eigenvalue in the overlap matrix is 3.1385010961E-03.
  Using Symmetric Orthogonalization.

  SCF Guess: Superposition of Atomic Densities via on-the-fly atomic UHF.

  ==> Iterations <==

                           Total Energy        Delta E     RMS |[F,P]|

   @DF-RHF iter SAD:  -111.85337318769419   -1.11853e+02   0.00000e+00 
   @DF-RHF iter   1:  -112.75050498963344   -8.97132e-01   8.38792e-03 DIIS
   @DF-RHF iter   2:  -112.75872884690934   -8.22386e-03   7.10769e-03 DIIS
   @DF-RHF iter   3:  -112.77714098836840   -1.84121e-02   4.74314e-04 DIIS
   @DF-RHF iter   4:  -112.77726075994566   -1.19772e-04   6.71444e-05 DIIS
   @DF-RHF iter   5:  -112.77726348134247   -2.72140e-06   1.37553e-05 DIIS
   @DF-RHF iter   6:  -112.77726367565073   -1.94308e-07   2.97092e-06 DIIS
   @DF-RHF iter   7:  -112.77726368210749   -6.45676e-09   3.71966e-07 DIIS
   @DF-RHF iter   8:  -112.77726368222437   -1.16884e-10   9.96428e-08 DIIS
   @DF-RHF iter   9:  -112.77726368223163   -7.26175e-12   2.09209e-08 DIIS
   @DF-RHF iter  10:  -112.77726368223206   -4.26326e-13   1.68352e-09 DIIS
  Energy and wave function converged.


  ==> Post-Iterations <==

    Orbital Energies [Eh]
    ---------------------

    Doubly Occupied:                                                      

       1A1   -20.666447     2A1   -11.367935     3A1    -1.508587  
       4A1    -0.801991     1B1    -0.631015     1B2    -0.631015  
       5A1    -0.555628  

    Virtual:                                                              

       2B1     0.131901     2B2     0.131901     6A1     0.276564  
       7A1     0.437471     3B2     0.451870     3B1     0.451870  
       8A1     0.720175     9A1     0.811340    10A1     0.817471  
       1A2     0.817471     4B1     0.819474     4B2     0.819474  
       5B2     1.057209     5B1     1.057209    11A1     1.348681  
      12A1     1.568277    13A1     1.771692     2A2     1.771692  
       6B1     2.178958     6B2     2.178958    14A1     2.218425  
       7B2     2.304484     7B1     2.304484    15A1     2.763070  
       8B1     2.914817     8B2     2.914817    16A1     3.118022  
       3A2     3.118022     4A2     3.250593    17A1     3.250593  
       9B1     3.300616     9B2     3.300616    18A1     3.449186  
      10B1     3.605754    10B2     3.605754    19A1     3.724596  
      11B2     4.489003    11B1     4.489003    20A1     4.840483  
      12B1     5.522940    12B2     5.522940     5A2     5.909517  
      21A1     5.909517    22A1     6.585872    13B1     6.679406  
      13B2     6.679406     6A2     6.751095    23A1     6.751095  
      24A1     7.212704    14B1     7.234965    14B2     7.234965  
      25A1     7.486323    26A1    12.630520  

    Final Occupation by Irrep:
             A1    A2    B1    B2 
    DOCC [     5,    0,    1,    1 ]

  @DF-RHF Final Energy:  -112.77726368223206

   => Energetics <=

    Nuclear Repulsion Energy =             22.1513465937837957
    One-Electron Energy =                -197.5319850554033394
    Two-Electron Energy =                  62.6033747793874937
    Total Energy =                       -112.7772636822320607

Computation Completed


Properties will be evaluated at   0.000000,   0.000000,   0.000000 [a0]

Properties computed using the SCF density matrix

  Nuclear Dipole Moment: [e a0]
     X:     0.0000      Y:     0.0000      Z:     0.0024

  Electronic Dipole Moment: [e a0]
     X:     0.0000      Y:     0.0000      Z:    -0.1346

  Dipole Moment: [e a0]
     X:     0.0000      Y:     0.0000      Z:    -0.1322     Total:     0.1322

  Dipole Moment: [D]
     X:     0.0000      Y:     0.0000      Z:    -0.3360     Total:     0.3360


*** tstop() called on atlantis at Tue Apr 19 00:29:19 2022
Module time:
	user time   =       0.33 seconds =       0.01 minutes
	system time =       0.00 seconds =       0.00 minutes
	total time  =          0 seconds =       0.00 minutes
Total time:
	user time   =       0.65 seconds =       0.01 minutes
	system time =       0.01 seconds =       0.00 minutes
	total time  =          1 seconds =       0.02 minutes

*** tstart() called on atlantis
*** at Tue Apr 19 00:29:19 2022


         ------------------------------------------------------------
                                   SCF GRAD                          
                          Rob Parrish, Justin Turney,                
                       Andy Simmonett, and Alex Sokolov              
         ------------------------------------------------------------

  ==> Geometry <==

    Molecular point group: c2v
    Full point group: C_inf_v

    Geometry (in Angstrom), charge = 0, multiplicity = 1:

       Center              X                  Y                   Z               Mass       
    ------------   -----------------  -----------------  -----------------  -----------------
         O            0.000000000000     0.000000000000     0.491523556581    15.994914619570
         C            0.000000000000     0.000000000000    -0.655156443419    12.000000000000

  Nuclear repulsion =   22.151346593783796

  ==> Basis Set <==

  Basis Set: CC-PVTZ
    Blend: CC-PVTZ
    Number of shells: 20
    Number of basis function: 60
    Number of Cartesian functions: 70
    Spherical Harmonics?: true
    Max angular momentum: 3

  ==> DFJKGrad: Density-Fitted SCF Gradients <==

    Gradient:                    1
    J tasked:                  Yes
    K tasked:                  Yes
    wK tasked:                  No
    OpenMP threads:              1
    Integrals threads:           1
    Memory [MiB]:              375
    Schwarz Cutoff:          0E+00
    Fitting Condition:       1E-10

   => Auxiliary Basis Set <=

  Basis Set: (CC-PVTZ AUX)
    Blend: CC-PVTZ-JKFIT
    Number of shells: 50
    Number of basis function: 158
    Number of Cartesian functions: 192
    Spherical Harmonics?: true
    Max angular momentum: 4


  -Total Gradient:
     Atom            X                  Y                   Z
    ------   -----------------  -----------------  -----------------
       1        0.000000000000     0.000000000000     0.105573135806
       2        0.000000000000    -0.000000000000    -0.105573135805


*** tstop() called on atlantis at Tue Apr 19 00:29:19 2022
Module time:
	user time   =       0.18 seconds =       0.00 minutes
	system time =       0.01 seconds =       0.00 minutes
	total time  =          0 seconds =       0.00 minutes
Total time:
	user time   =       0.83 seconds =       0.01 minutes
	system time =       0.02 seconds =       0.00 minutes
	total time  =          1 seconds =       0.02 minutes

  Based on options and gradient (rms=6.10E-02), recommend projecting translations and not projecting rotations.
hessian() will perform analytic frequency computation.

*** tstart() called on atlantis
*** at Tue Apr 19 00:29:19 2022

   => Loading Basis Set <=

    Name: CC-PVTZ
    Role: ORBITAL
    Keyword: BASIS
    atoms 1 entry O          line   262 file /home/akrom/software/anaconda3/envs/ffpenv/share/psi4/basis/cc-pvtz.gbs 
    atoms 2 entry C          line   186 file /home/akrom/software/anaconda3/envs/ffpenv/share/psi4/basis/cc-pvtz.gbs 


         ---------------------------------------------------------
                                   SCF
               by Justin Turney, Rob Parrish, Andy Simmonett
                          and Daniel G. A. Smith
                              RHF Reference
                        1 Threads,    500 MiB Core
         ---------------------------------------------------------

  ==> Geometry <==

    Molecular point group: c2v
    Full point group: C_inf_v

    Geometry (in Angstrom), charge = 0, multiplicity = 1:

       Center              X                  Y                   Z               Mass       
    ------------   -----------------  -----------------  -----------------  -----------------
         O            0.000000000000     0.000000000000     0.491523556581    15.994914619570
         C            0.000000000000     0.000000000000    -0.655156443419    12.000000000000

  Running in c2v symmetry.

  Rotational constants: A = ************  B =      1.86994  C =      1.86994 [cm^-1]
  Rotational constants: A = ************  B =  56059.43274  C =  56059.43274 [MHz]
  Nuclear repulsion =   22.151346593783796

  Charge       = 0
  Multiplicity = 1
  Electrons    = 14
  Nalpha       = 7
  Nbeta        = 7

  ==> Algorithm <==

  SCF Algorithm Type is DF.
  DIIS enabled.
  MOM disabled.
  Fractional occupation disabled.
  Guess Type is SAD.
  Energy threshold   = 1.00e-08
  Density threshold  = 1.00e-08
  Integral threshold = 0.00e+00

  ==> Primary Basis <==

  Basis Set: CC-PVTZ
    Blend: CC-PVTZ
    Number of shells: 20
    Number of basis function: 60
    Number of Cartesian functions: 70
    Spherical Harmonics?: true
    Max angular momentum: 3

   => Loading Basis Set <=

    Name: (CC-PVTZ AUX)
    Role: JKFIT
    Keyword: DF_BASIS_SCF
    atoms 1 entry O          line   229 file /home/akrom/software/anaconda3/envs/ffpenv/share/psi4/basis/cc-pvtz-jkfit.gbs 
    atoms 2 entry C          line   125 file /home/akrom/software/anaconda3/envs/ffpenv/share/psi4/basis/cc-pvtz-jkfit.gbs 

  ==> Pre-Iterations <==

   -------------------------------------------------------
    Irrep   Nso     Nmo     Nalpha   Nbeta   Ndocc  Nsocc
   -------------------------------------------------------
     A1        26      26       0       0       0       0
     A2         6       6       0       0       0       0
     B1        14      14       0       0       0       0
     B2        14      14       0       0       0       0
   -------------------------------------------------------
    Total      60      60       7       7       7       0
   -------------------------------------------------------

  ==> Integral Setup <==

  DFHelper Memory: AOs need 0.005 GiB; user supplied 0.366 GiB. Using in-core AOs.

  ==> MemDFJK: Density-Fitted J/K Matrices <==

    J tasked:                   Yes
    K tasked:                   Yes
    wK tasked:                   No
    OpenMP threads:               1
    Memory [MiB]:               375
    Algorithm:                 Core
    Schwarz Cutoff:           1E-12
    Mask sparsity (%):       0.0000
    Fitting Condition:        1E-10

   => Auxiliary Basis Set <=

  Basis Set: (CC-PVTZ AUX)
    Blend: CC-PVTZ-JKFIT
    Number of shells: 50
    Number of basis function: 158
    Number of Cartesian functions: 192
    Spherical Harmonics?: true
    Max angular momentum: 4

  Minimum eigenvalue in the overlap matrix is 3.1385010961E-03.
  Using Symmetric Orthogonalization.

  SCF Guess: Superposition of Atomic Densities via on-the-fly atomic UHF.

  ==> Iterations <==

                           Total Energy        Delta E     RMS |[F,P]|

   @DF-RHF iter SAD:  -111.85337318769419   -1.11853e+02   0.00000e+00 
   @DF-RHF iter   1:  -112.75050498963344   -8.97132e-01   8.38792e-03 DIIS
   @DF-RHF iter   2:  -112.75872884690934   -8.22386e-03   7.10769e-03 DIIS
   @DF-RHF iter   3:  -112.77714098836840   -1.84121e-02   4.74314e-04 DIIS
   @DF-RHF iter   4:  -112.77726075994566   -1.19772e-04   6.71444e-05 DIIS
   @DF-RHF iter   5:  -112.77726348134247   -2.72140e-06   1.37553e-05 DIIS
   @DF-RHF iter   6:  -112.77726367565073   -1.94308e-07   2.97092e-06 DIIS
   @DF-RHF iter   7:  -112.77726368210749   -6.45676e-09   3.71966e-07 DIIS
   @DF-RHF iter   8:  -112.77726368222437   -1.16884e-10   9.96428e-08 DIIS
   @DF-RHF iter   9:  -112.77726368223163   -7.26175e-12   2.09209e-08 DIIS
   @DF-RHF iter  10:  -112.77726368223206   -4.26326e-13   1.68352e-09 DIIS
  Energy and wave function converged.


  ==> Post-Iterations <==

    Orbital Energies [Eh]
    ---------------------

    Doubly Occupied:                                                      

       1A1   -20.666447     2A1   -11.367935     3A1    -1.508587  
       4A1    -0.801991     1B1    -0.631015     1B2    -0.631015  
       5A1    -0.555628  

    Virtual:                                                              

       2B1     0.131901     2B2     0.131901     6A1     0.276564  
       7A1     0.437471     3B2     0.451870     3B1     0.451870  
       8A1     0.720175     9A1     0.811340    10A1     0.817471  
       1A2     0.817471     4B1     0.819474     4B2     0.819474  
       5B2     1.057209     5B1     1.057209    11A1     1.348681  
      12A1     1.568277    13A1     1.771692     2A2     1.771692  
       6B1     2.178958     6B2     2.178958    14A1     2.218425  
       7B2     2.304484     7B1     2.304484    15A1     2.763070  
       8B1     2.914817     8B2     2.914817    16A1     3.118022  
       3A2     3.118022     4A2     3.250593    17A1     3.250593  
       9B1     3.300616     9B2     3.300616    18A1     3.449186  
      10B1     3.605754    10B2     3.605754    19A1     3.724596  
      11B2     4.489003    11B1     4.489003    20A1     4.840483  
      12B1     5.522940    12B2     5.522940     5A2     5.909517  
      21A1     5.909517    22A1     6.585872    13B1     6.679406  
      13B2     6.679406     6A2     6.751095    23A1     6.751095  
      24A1     7.212704    14B1     7.234965    14B2     7.234965  
      25A1     7.486323    26A1    12.630520  

    Final Occupation by Irrep:
             A1    A2    B1    B2 
    DOCC [     5,    0,    1,    1 ]

  @DF-RHF Final Energy:  -112.77726368223206

   => Energetics <=

    Nuclear Repulsion Energy =             22.1513465937837957
    One-Electron Energy =                -197.5319850554033394
    Two-Electron Energy =                  62.6033747793874937
    Total Energy =                       -112.7772636822320607

Computation Completed


Properties will be evaluated at   0.000000,   0.000000,   0.000000 [a0]

Properties computed using the SCF density matrix

  Nuclear Dipole Moment: [e a0]
     X:     0.0000      Y:     0.0000      Z:     0.0024

  Electronic Dipole Moment: [e a0]
     X:     0.0000      Y:     0.0000      Z:    -0.1346

  Dipole Moment: [e a0]
     X:     0.0000      Y:     0.0000      Z:    -0.1322     Total:     0.1322

  Dipole Moment: [D]
     X:     0.0000      Y:     0.0000      Z:    -0.3360     Total:     0.3360


*** tstop() called on atlantis at Tue Apr 19 00:29:20 2022
Module time:
	user time   =       0.31 seconds =       0.01 minutes
	system time =       0.00 seconds =       0.00 minutes
	total time  =          1 seconds =       0.02 minutes
Total time:
	user time   =       1.15 seconds =       0.02 minutes
	system time =       0.02 seconds =       0.00 minutes
	total time  =          2 seconds =       0.03 minutes

*** tstart() called on atlantis
*** at Tue Apr 19 00:29:20 2022


         ------------------------------------------------------------
                                   SCF HESS                          
                          Rob Parrish, Justin Turney,                
                       Andy Simmonett, and Alex Sokolov              
         ------------------------------------------------------------

  ==> Geometry <==

    Molecular point group: c2v
    Full point group: C_inf_v

    Geometry (in Angstrom), charge = 0, multiplicity = 1:

       Center              X                  Y                   Z               Mass       
    ------------   -----------------  -----------------  -----------------  -----------------
         O            0.000000000000     0.000000000000     0.491523556581    15.994914619570
         C            0.000000000000     0.000000000000    -0.655156443419    12.000000000000

  Nuclear repulsion =   22.151346593783796

  ==> Basis Set <==

  Basis Set: CC-PVTZ
    Blend: CC-PVTZ
    Number of shells: 20
    Number of basis function: 60
    Number of Cartesian functions: 70
    Spherical Harmonics?: true
    Max angular momentum: 3

  ==> DFJKGrad: Density-Fitted SCF Gradients <==

    Gradient:                    2
    J tasked:                  Yes
    K tasked:                  Yes
    wK tasked:                  No
    OpenMP threads:              1
    Integrals threads:           1
    Memory [MiB]:              375
    Schwarz Cutoff:          0E+00
    Fitting Condition:       1E-10

   => Auxiliary Basis Set <=

  Basis Set: (CC-PVTZ AUX)
    Blend: CC-PVTZ-JKFIT
    Number of shells: 50
    Number of basis function: 158
    Number of Cartesian functions: 192
    Spherical Harmonics?: true
    Max angular momentum: 4

  DFHelper Memory: AOs need 0.005 GiB; user supplied 0.439 GiB. Using in-core AOs.

  ==> MemDFJK: Density-Fitted J/K Matrices <==

    J tasked:                   Yes
    K tasked:                   Yes
    wK tasked:                   No
    OpenMP threads:               1
    Memory [MiB]:               450
    Algorithm:                 Core
    Schwarz Cutoff:           1E-12
    Mask sparsity (%):       0.0000
    Fitting Condition:        1E-10

   => Auxiliary Basis Set <=

  Basis Set: (CC-PVTZ AUX)
    Blend: CC-PVTZ-JKFIT
    Number of shells: 50
    Number of basis function: 158
    Number of Cartesian functions: 192
    Spherical Harmonics?: true
    Max angular momentum: 4


         ------------------------------------------------------------
                                     CPHF                           
                                  Rob Parrish                       
         ------------------------------------------------------------

  ==> Geometry <==

    Molecular point group: c2v
    Full point group: C_inf_v

    Geometry (in Angstrom), charge = 0, multiplicity = 1:

       Center              X                  Y                   Z               Mass       
    ------------   -----------------  -----------------  -----------------  -----------------
         O            0.000000000000     0.000000000000     0.491523556581    15.994914619570
         C            0.000000000000     0.000000000000    -0.655156443419    12.000000000000

  Nuclear repulsion =   22.151346593783796
  Reference energy  = -112.777263682232061

  ==> Basis Set <==

  Basis Set: CC-PVTZ
    Blend: CC-PVTZ
    Number of shells: 20
    Number of basis function: 60
    Number of Cartesian functions: 70
    Spherical Harmonics?: true
    Max angular momentum: 3

  ==> CGRSolver (by Rob Parrish) <==

   Number of roots    =         6
   Preconditioning    =    JACOBI
   Convergence cutoff =     1E-06
   Maximum iterations =       100

  ==> CPHFRHamiltonian (by Rob Parrish) <== 

  ==> MemDFJK: Density-Fitted J/K Matrices <==

    J tasked:                   Yes
    K tasked:                   Yes
    wK tasked:                   No
    OpenMP threads:               1
    Memory [MiB]:               450
    Algorithm:                 Core
    Schwarz Cutoff:           1E-12
    Mask sparsity (%):       0.0000
    Fitting Condition:        1E-10

   => Auxiliary Basis Set <=

  Basis Set: (CC-PVTZ AUX)
    Blend: CC-PVTZ-JKFIT
    Number of shells: 50
    Number of basis function: 158
    Number of Cartesian functions: 192
    Spherical Harmonics?: true
    Max angular momentum: 4

  ==> CPHF Iterations <==

  => Iterations <=

             Iter  Converged  Remaining    Residual
  CGR           1          0          6   1.045E-01
  CGR           2          0          6   3.151E-02
  CGR           3          0          6   5.481E-03
  CGR           4          0          6   9.861E-04
  CGR           5          0          6   1.196E-04
  CGR           6          0          6   2.146E-05
  CGR           7          0          6   2.089E-06
  CGR           8          6          0   1.778E-07

    CGRSolver converged.


*** tstop() called on atlantis at Tue Apr 19 00:30:05 2022
Module time:
	user time   =      45.37 seconds =       0.76 minutes
	system time =       0.14 seconds =       0.00 minutes
	total time  =         45 seconds =       0.75 minutes
Total time:
	user time   =      46.52 seconds =       0.78 minutes
	system time =       0.16 seconds =       0.00 minutes
	total time  =         47 seconds =       0.78 minutes


  ==> Harmonic Vibrational Analysis <==

  non-mass-weighted Hessian:       Symmetric? True   Hermitian? True   Lin Dep Dim?  0 (0)
  projection of translations (True) and rotations (False) removed 3 degrees of freedom (5)
  total projector:                 Symmetric? True   Hermitian? True   Lin Dep Dim?  3 (3)
  mass-weighted Hessian:           Symmetric? True   Hermitian? True   Lin Dep Dim?  0 (0)
  pre-proj  low-frequency mode:    0.0000i [cm^-1]
  pre-proj  low-frequency mode:    0.0000i [cm^-1]
  pre-proj  low-frequency mode:    0.0000i [cm^-1]
  pre-proj  low-frequency mode:  433.3297  [cm^-1]
  pre-proj  low-frequency mode:  433.3297  [cm^-1]
  pre-proj  all modes:['0.0043i' '0.0033i' '0.0029i' '433.3297' '433.3297' '2097.5994']
  projected mass-weighted Hessian: Symmetric? True   Hermitian? True   Lin Dep Dim?  3 (3)
  post-proj low-frequency mode:    0.0000i [cm^-1] (TR)
  post-proj low-frequency mode:    0.0000i [cm^-1] (TR)
  post-proj low-frequency mode:    0.0000  [cm^-1] (TR)
  post-proj low-frequency mode:  433.3297  [cm^-1] (V)
  post-proj low-frequency mode:  433.3297  [cm^-1] (V)
  post-proj  all modes:['0.0000i' '0.0000i' '0.0000' '433.3297' '433.3297' '2097.5994']

  Note that "Vibration"s include 2 un-projected rotation-like modes.
  Vibration                       4                   5                   6           
  Freq [cm^-1]                 433.3297            433.3297           2097.5994       
  Irrep                                                                   A1          
  Reduced mass [u]             13.4388             13.4388             13.4388        
  Force const [mDyne/A]         1.4868              1.4868             34.8381        
  Turning point v=0 [a0]        0.1438              0.1438              0.0654        
  RMS dev v=0 [a0 u^1/2]        0.3727              0.3727              0.1694        
  IR activ [km/mol]             0.5292              0.5292             149.1543       
  Char temp [K]                623.4649            623.4649           3017.9785       
  ----------------------------------------------------------------------------------
      1   O               -0.60  0.00 -0.00   -0.00 -0.60 -0.00    0.00  0.00 -0.60   
      2   C                0.80 -0.00  0.00    0.00  0.80  0.00   -0.00 -0.00  0.80   

  ==> Thermochemistry Components <==

  Entropy, S
    Electronic S            0.000 [cal/(mol K)]        0.000 [J/(mol K)]       0.00000000 [mEh/K] (multiplicity = 1)
    Translational S        35.923 [cal/(mol K)]      150.302 [J/(mol K)]       0.05724692 [mEh/K] (mol. weight = 27.9949 [u], P = 101325.00 [Pa])
    Rotational S           11.343 [cal/(mol K)]       47.458 [J/(mol K)]       0.01807582 [mEh/K] (symmetry no. = 1)
    Vibrational S           1.697 [cal/(mol K)]        7.098 [J/(mol K)]       0.00270366 [mEh/K]
  Total S                  48.962 [cal/(mol K)]      204.858 [J/(mol K)]       0.07802641 [mEh/K]
  Correction S              0.000 [cal/(mol K)]        0.000 [J/(mol K)]       0.00000000 [mEh/K]

  Constant volume heat capacity, Cv
    Electronic Cv           0.000 [cal/(mol K)]        0.000 [J/(mol K)]       0.00000000 [mEh/K]
    Translational Cv        2.981 [cal/(mol K)]       12.472 [J/(mol K)]       0.00475022 [mEh/K]
    Rotational Cv           1.987 [cal/(mol K)]        8.314 [J/(mol K)]       0.00316681 [mEh/K]
    Vibrational Cv          2.803 [cal/(mol K)]       11.729 [J/(mol K)]       0.00446748 [mEh/K]
  Total Cv                  7.771 [cal/(mol K)]       32.516 [J/(mol K)]       0.01238451 [mEh/K]
  Correction Cv             0.000 [cal/(mol K)]        0.000 [J/(mol K)]       0.00000000 [mEh/K]

  Constant pressure heat capacity, Cp
    Electronic Cp           0.000 [cal/(mol K)]        0.000 [J/(mol K)]       0.00000000 [mEh/K]
    Translational Cp        4.968 [cal/(mol K)]       20.786 [J/(mol K)]       0.00791703 [mEh/K]
    Rotational Cp           1.987 [cal/(mol K)]        8.314 [J/(mol K)]       0.00316681 [mEh/K]
    Vibrational Cp          2.803 [cal/(mol K)]       11.729 [J/(mol K)]       0.00446748 [mEh/K]
  Total Cp                  9.759 [cal/(mol K)]       40.830 [J/(mol K)]       0.01555132 [mEh/K]
  Correction Cp             0.000 [cal/(mol K)]        0.000 [J/(mol K)]       0.00000000 [mEh/K]

  ==> Thermochemistry Energy Analysis <==

  Raw electronic energy, E0
  Total E0, Electronic energy at well bottom at 0 [K]                 -112.77726368 [Eh]

  Zero-point energy, ZPE_vib = Sum_i nu_i / 2
    Electronic ZPE          0.000 [kcal/mol]        0.000 [kJ/mol]       0.00000000 [Eh]
    Translational ZPE       0.000 [kcal/mol]        0.000 [kJ/mol]       0.00000000 [Eh]
    Rotational ZPE          0.000 [kcal/mol]        0.000 [kJ/mol]       0.00000000 [Eh]
    Vibrational ZPE         4.238 [kcal/mol]       17.730 [kJ/mol]       0.00675308 [Eh]        1482.129 [cm^-1]
  Correction ZPE            4.238 [kcal/mol]       17.730 [kJ/mol]       0.00675308 [Eh]        1482.129 [cm^-1]
  Total ZPE, Electronic energy at 0 [K]                               -112.77051060 [Eh]

  Thermal Energy, E (includes ZPE)
    Electronic E            0.000 [kcal/mol]        0.000 [kJ/mol]       0.00000000 [Eh]
    Translational E         0.889 [kcal/mol]        3.718 [kJ/mol]       0.00141628 [Eh]
    Rotational E            0.592 [kcal/mol]        2.479 [kJ/mol]       0.00094418 [Eh]
    Vibrational E           4.587 [kcal/mol]       19.193 [kJ/mol]       0.00731011 [Eh]
  Correction E              6.068 [kcal/mol]       25.390 [kJ/mol]       0.00967057 [Eh]
  Total E, Electronic energy at  298.15 [K]                           -112.76759311 [Eh]

  Enthalpy, H_trans = E_trans + k_B * T
    Electronic H            0.000 [kcal/mol]        0.000 [kJ/mol]       0.00000000 [Eh]
    Translational H         1.481 [kcal/mol]        6.197 [kJ/mol]       0.00236046 [Eh]
    Rotational H            0.592 [kcal/mol]        2.479 [kJ/mol]       0.00094418 [Eh]
    Vibrational H           4.587 [kcal/mol]       19.193 [kJ/mol]       0.00731011 [Eh]
  Correction H              6.661 [kcal/mol]       27.869 [kJ/mol]       0.01061475 [Eh]
  Total H, Enthalpy at  298.15 [K]                                    -112.76664893 [Eh]

  Gibbs free energy, G = H - T * S
    Electronic G            0.000 [kcal/mol]        0.000 [kJ/mol]       0.00000000 [Eh]
    Translational G        -9.229 [kcal/mol]      -38.615 [kJ/mol]      -0.01470771 [Eh]
    Rotational G           -2.789 [kcal/mol]      -11.671 [kJ/mol]      -0.00444512 [Eh]
    Vibrational G           4.081 [kcal/mol]       17.076 [kJ/mol]       0.00650401 [Eh]
  Correction G             -7.937 [kcal/mol]      -33.209 [kJ/mol]      -0.01264882 [Eh]
  Total G, Free enthalpy at  298.15 [K]                               -112.78991250 [Eh]

    Psi4 stopped on: Tuesday, 19 April 2022 12:30AM
    Psi4 wall time for execution: 0:00:46.81

*** Psi4 exiting successfully. Buy a developer a beer!
