
    -----------------------------------------------------------------------
          Psi4: An Open-Source Ab Initio Electronic Structure Package
                               Psi4 1.3.2 release

                         Git: Rev {HEAD} ecbda83 


    R. M. Parrish, L. A. Burns, D. G. A. Smith, A. C. Simmonett,
    A. E. DePrince III, E. G. Hohenstein, U. Bozkaya, A. Yu. Sokolov,
    R. Di Remigio, R. M. Richard, J. F. Gonthier, A. M. James,
    H. R. McAlexander, A. Kumar, M. Saitow, X. Wang, B. P. Pritchard,
    P. Verma, H. F. Schaefer III, K. Patkowski, R. A. King, E. F. Valeev,
    F. A. Evangelista, J. M. Turney, T. D. Crawford, and C. D. Sherrill,
    J. Chem. Theory Comput. 13(7) pp 3185--3197 (2017).
    (doi: 10.1021/acs.jctc.7b00174)


                         Additional Contributions by
    P. Kraus, H. Kruse, M. H. Lechner, M. C. Schieber, R. A. Shaw,
    A. Alenaizan, R. Galvelis, Z. L. Glick, S. Lehtola, and J. P. Misiewicz

    -----------------------------------------------------------------------


    Psi4 started on: Tuesday, 19 April 2022 12:31AM

    Process ID: 25515
    Host:       atlantis
    PSIDATADIR: /home/akrom/software/anaconda3/envs/ffpenv/share/psi4
    Memory:     500.0 MiB
    Threads:    1
    
  ==> Input File <==

--------------------------------------------------------------------------
set basis  6-311++G**
molecule {
0 1
   O        0.00000        0.00000        0.49152
   C        0.00000        0.00000       -0.65516
}
energy('MP2')
frequencies('MP2')
--------------------------------------------------------------------------
    SCF Algorithm Type (re)set to DF.

*** tstart() called on atlantis
*** at Tue Apr 19 00:31:26 2022

   => Loading Basis Set <=

    Name: 6-311++G**
    Role: ORBITAL
    Keyword: BASIS
    atoms 1 entry O          line   161 file /home/akrom/software/anaconda3/envs/ffpenv/share/psi4/basis/6-311ppgss.gbs 
    atoms 2 entry C          line   119 file /home/akrom/software/anaconda3/envs/ffpenv/share/psi4/basis/6-311ppgss.gbs 


         ---------------------------------------------------------
                                   SCF
               by Justin Turney, Rob Parrish, Andy Simmonett
                          and Daniel G. A. Smith
                              RHF Reference
                        1 Threads,    500 MiB Core
         ---------------------------------------------------------

  ==> Geometry <==

    Molecular point group: c2v
    Full point group: C_inf_v

    Geometry (in Angstrom), charge = 0, multiplicity = 1:

       Center              X                  Y                   Z               Mass       
    ------------   -----------------  -----------------  -----------------  -----------------
         O            0.000000000000     0.000000000000     0.491523556581    15.994914619570
         C            0.000000000000     0.000000000000    -0.655156443419    12.000000000000

  Running in c2v symmetry.

  Rotational constants: A = ************  B =      1.86994  C =      1.86994 [cm^-1]
  Rotational constants: A = ************  B =  56059.43274  C =  56059.43274 [MHz]
  Nuclear repulsion =   22.151346593783796

  Charge       = 0
  Multiplicity = 1
  Electrons    = 14
  Nalpha       = 7
  Nbeta        = 7

  ==> Algorithm <==

  SCF Algorithm Type is DF.
  DIIS enabled.
  MOM disabled.
  Fractional occupation disabled.
  Guess Type is SAD.
  Energy threshold   = 1.00e-08
  Density threshold  = 1.00e-08
  Integral threshold = 0.00e+00

  ==> Primary Basis <==

  Basis Set: 6-311++G**
    Blend: 6-311++G**
    Number of shells: 20
    Number of basis function: 44
    Number of Cartesian functions: 46
    Spherical Harmonics?: true
    Max angular momentum: 2

   => Loading Basis Set <=

    Name: (6-311++G** AUX)
    Role: JKFIT
    Keyword: DF_BASIS_SCF
    atoms 1 entry O          line   286 file /home/akrom/software/anaconda3/envs/ffpenv/share/psi4/basis/aug-cc-pvtz-jkfit.gbs 
    atoms 2 entry C          line   162 file /home/akrom/software/anaconda3/envs/ffpenv/share/psi4/basis/aug-cc-pvtz-jkfit.gbs 

  ==> Pre-Iterations <==

   -------------------------------------------------------
    Irrep   Nso     Nmo     Nalpha   Nbeta   Ndocc  Nsocc
   -------------------------------------------------------
     A1        22      22       0       0       0       0
     A2         2       2       0       0       0       0
     B1        10      10       0       0       0       0
     B2        10      10       0       0       0       0
   -------------------------------------------------------
    Total      44      44       7       7       7       0
   -------------------------------------------------------

  ==> Integral Setup <==

  DFHelper Memory: AOs need 0.004 GiB; user supplied 0.366 GiB. Using in-core AOs.

  ==> MemDFJK: Density-Fitted J/K Matrices <==

    J tasked:                   Yes
    K tasked:                   Yes
    wK tasked:                   No
    OpenMP threads:               1
    Memory [MiB]:               375
    Algorithm:                 Core
    Schwarz Cutoff:           1E-12
    Mask sparsity (%):       0.0000
    Fitting Condition:        1E-10

   => Auxiliary Basis Set <=

  Basis Set: (6-311++G** AUX)
    Blend: AUG-CC-PVTZ-JKFIT
    Number of shells: 60
    Number of basis function: 208
    Number of Cartesian functions: 262
    Spherical Harmonics?: true
    Max angular momentum: 4

  Minimum eigenvalue in the overlap matrix is 3.8889751691E-03.
  Using Symmetric Orthogonalization.

  SCF Guess: Superposition of Atomic Densities via on-the-fly atomic UHF.

  ==> Iterations <==

                           Total Energy        Delta E     RMS |[F,P]|

   @DF-RHF iter SAD:  -111.82563573891970   -1.11826e+02   0.00000e+00 
   @DF-RHF iter   1:  -112.73748045658583   -9.11845e-01   1.11255e-02 DIIS
   @DF-RHF iter   2:  -112.74548887673656   -8.00842e-03   9.46551e-03 DIIS
   @DF-RHF iter   3:  -112.76651892967588   -2.10301e-02   6.52147e-04 DIIS
   @DF-RHF iter   4:  -112.76665809390283   -1.39164e-04   7.18967e-05 DIIS
   @DF-RHF iter   5:  -112.76666086678580   -2.77288e-06   1.44714e-05 DIIS
   @DF-RHF iter   6:  -112.76666102463682   -1.57851e-07   3.58655e-06 DIIS
   @DF-RHF iter   7:  -112.76666103119868   -6.56186e-09   6.13934e-07 DIIS
   @DF-RHF iter   8:  -112.76666103143043   -2.31751e-10   1.76229e-07 DIIS
   @DF-RHF iter   9:  -112.76666103144669   -1.62572e-11   2.72337e-08 DIIS
   @DF-RHF iter  10:  -112.76666103144726   -5.68434e-13   2.57355e-09 DIIS
  Energy and wave function converged.


  ==> Post-Iterations <==

    Orbital Energies [Eh]
    ---------------------

    Doubly Occupied:                                                      

       1A1   -20.670786     2A1   -11.374478     3A1    -1.515152  
       4A1    -0.805208     1B2    -0.633955     1B1    -0.633955  
       5A1    -0.558083  

    Virtual:                                                              

       2B2     0.082151     2B1     0.082151     6A1     0.084309  
       7A1     0.110750     3B2     0.168349     3B1     0.168349  
       8A1     0.262998     4B1     0.300012     4B2     0.300012  
       9A1     0.363033    10A1     0.528007     5B1     0.706277  
       5B2     0.706277    11A1     0.846758    12A1     1.051310  
      13A1     1.254213     6B1     1.264597     6B2     1.264597  
       1A2     1.507957    14A1     1.507957    15A1     1.642355  
       7B1     1.672449     7B2     1.672449    16A1     2.343696  
       8B1     2.999435     8B2     2.999435    17A1     3.155406  
       2A2     3.155406    18A1     3.390774     9B1     3.729303  
       9B2     3.729303    19A1     4.074978    10B1     5.473526  
      10B2     5.473526    20A1     6.107348    21A1    24.902796  
      22A1    51.525226  

    Final Occupation by Irrep:
             A1    A2    B1    B2 
    DOCC [     5,    0,    1,    1 ]

  @DF-RHF Final Energy:  -112.76666103144726

   => Energetics <=

    Nuclear Repulsion Energy =             22.1513465937837957
    One-Electron Energy =                -197.4527835325503133
    Two-Electron Energy =                  62.5347759073192719
    Total Energy =                       -112.7666610314472564

Computation Completed


Properties will be evaluated at   0.000000,   0.000000,   0.000000 [a0]

Properties computed using the SCF density matrix

  Nuclear Dipole Moment: [e a0]
     X:     0.0000      Y:     0.0000      Z:     0.0024

  Electronic Dipole Moment: [e a0]
     X:     0.0000      Y:     0.0000      Z:    -0.1602

  Dipole Moment: [e a0]
     X:     0.0000      Y:     0.0000      Z:    -0.1578     Total:     0.1578

  Dipole Moment: [D]
     X:     0.0000      Y:     0.0000      Z:    -0.4011     Total:     0.4011


*** tstop() called on atlantis at Tue Apr 19 00:31:26 2022
Module time:
	user time   =       0.28 seconds =       0.00 minutes
	system time =       0.02 seconds =       0.00 minutes
	total time  =          0 seconds =       0.00 minutes
Total time:
	user time   =       0.28 seconds =       0.00 minutes
	system time =       0.02 seconds =       0.00 minutes
	total time  =          0 seconds =       0.00 minutes

*** tstart() called on atlantis
*** at Tue Apr 19 00:31:26 2022


  //>>>>>>>>>>>>>>>>>>>>>>>>>>>>>>>>>>>//
  //               DFMP2               //
  //<<<<<<<<<<<<<<<<<<<<<<<<<<<<<<<<<<<//

   => Loading Basis Set <=

    Name: (6-311++G** AUX)
    Role: RIFIT
    Keyword: DF_BASIS_MP2
    atoms 1 entry O          line   264 file /home/akrom/software/anaconda3/envs/ffpenv/share/psi4/basis/aug-cc-pvtz-ri.gbs 
    atoms 2 entry C          line   148 file /home/akrom/software/anaconda3/envs/ffpenv/share/psi4/basis/aug-cc-pvtz-ri.gbs 

	 --------------------------------------------------------
	                          DF-MP2                         
	      2nd-Order Density-Fitted Moller-Plesset Theory     
	              RMP2 Wavefunction,   1 Threads             
	                                                         
	        Rob Parrish, Justin Turney, Andy Simmonett,      
	           Ed Hohenstein, and C. David Sherrill          
	 --------------------------------------------------------

   => Auxiliary Basis Set <=

  Basis Set: (6-311++G** AUX)
    Blend: AUG-CC-PVTZ-RI
    Number of shells: 56
    Number of basis function: 212
    Number of Cartesian functions: 272
    Spherical Harmonics?: true
    Max angular momentum: 4

	 --------------------------------------------------------
	                 NBF =    44, NAUX =   212
	 --------------------------------------------------------
	   CLASS    FOCC     OCC    AOCC    AVIR     VIR    FVIR
	   PAIRS       0       7       7      37      37       0
	 --------------------------------------------------------

	-----------------------------------------------------------
	 ==================> DF-MP2 Energies <==================== 
	-----------------------------------------------------------
	 Reference Energy          =    -112.7666610314472564 [Eh]
	 Singles Energy            =      -0.0000000000000000 [Eh]
	 Same-Spin Energy          =      -0.0862377632975935 [Eh]
	 Opposite-Spin Energy      =      -0.2619609710608698 [Eh]
	 Correlation Energy        =      -0.3481987343584633 [Eh]
	 Total Energy              =    -113.1148597658057184 [Eh]
	-----------------------------------------------------------
	 ================> DF-SCS-MP2 Energies <================== 
	-----------------------------------------------------------
	 SCS Same-Spin Scale       =       0.3333333333333333 [-]
	 SCS Opposite-Spin Scale   =       1.2000000000000000 [-]
	 SCS Same-Spin Energy      =      -0.0287459210991978 [Eh]
	 SCS Opposite-Spin Energy  =      -0.3143531652730437 [Eh]
	 SCS Correlation Energy    =      -0.3430990863722416 [Eh]
	 SCS Total Energy          =    -113.1097601178195049 [Eh]
	-----------------------------------------------------------


*** tstop() called on atlantis at Tue Apr 19 00:31:26 2022
Module time:
	user time   =       0.07 seconds =       0.00 minutes
	system time =       0.00 seconds =       0.00 minutes
	total time  =          0 seconds =       0.00 minutes
Total time:
	user time   =       0.35 seconds =       0.01 minutes
	system time =       0.02 seconds =       0.00 minutes
	total time  =          0 seconds =       0.00 minutes
gradient() will perform analytic gradient computation.
    SCF Algorithm Type (re)set to DF.

*** tstart() called on atlantis
*** at Tue Apr 19 00:31:26 2022

   => Loading Basis Set <=

    Name: 6-311++G**
    Role: ORBITAL
    Keyword: BASIS
    atoms 1 entry O          line   161 file /home/akrom/software/anaconda3/envs/ffpenv/share/psi4/basis/6-311ppgss.gbs 
    atoms 2 entry C          line   119 file /home/akrom/software/anaconda3/envs/ffpenv/share/psi4/basis/6-311ppgss.gbs 


         ---------------------------------------------------------
                                   SCF
               by Justin Turney, Rob Parrish, Andy Simmonett
                          and Daniel G. A. Smith
                              RHF Reference
                        1 Threads,    500 MiB Core
         ---------------------------------------------------------

  ==> Geometry <==

    Molecular point group: c2v
    Full point group: C_inf_v

    Geometry (in Angstrom), charge = 0, multiplicity = 1:

       Center              X                  Y                   Z               Mass       
    ------------   -----------------  -----------------  -----------------  -----------------
         O            0.000000000000     0.000000000000     0.491523556581    15.994914619570
         C            0.000000000000     0.000000000000    -0.655156443419    12.000000000000

  Running in c2v symmetry.

  Rotational constants: A = ************  B =      1.86994  C =      1.86994 [cm^-1]
  Rotational constants: A = ************  B =  56059.43274  C =  56059.43274 [MHz]
  Nuclear repulsion =   22.151346593783796

  Charge       = 0
  Multiplicity = 1
  Electrons    = 14
  Nalpha       = 7
  Nbeta        = 7

  ==> Algorithm <==

  SCF Algorithm Type is DF.
  DIIS enabled.
  MOM disabled.
  Fractional occupation disabled.
  Guess Type is SAD.
  Energy threshold   = 1.00e-10
  Density threshold  = 1.00e-10
  Integral threshold = 0.00e+00

  ==> Primary Basis <==

  Basis Set: 6-311++G**
    Blend: 6-311++G**
    Number of shells: 20
    Number of basis function: 44
    Number of Cartesian functions: 46
    Spherical Harmonics?: true
    Max angular momentum: 2

   => Loading Basis Set <=

    Name: (6-311++G** AUX)
    Role: JKFIT
    Keyword: DF_BASIS_SCF
    atoms 1 entry O          line   286 file /home/akrom/software/anaconda3/envs/ffpenv/share/psi4/basis/aug-cc-pvtz-jkfit.gbs 
    atoms 2 entry C          line   162 file /home/akrom/software/anaconda3/envs/ffpenv/share/psi4/basis/aug-cc-pvtz-jkfit.gbs 

  ==> Pre-Iterations <==

   -------------------------------------------------------
    Irrep   Nso     Nmo     Nalpha   Nbeta   Ndocc  Nsocc
   -------------------------------------------------------
     A1        22      22       0       0       0       0
     A2         2       2       0       0       0       0
     B1        10      10       0       0       0       0
     B2        10      10       0       0       0       0
   -------------------------------------------------------
    Total      44      44       7       7       7       0
   -------------------------------------------------------

  ==> Integral Setup <==

  DFHelper Memory: AOs need 0.004 GiB; user supplied 0.366 GiB. Using in-core AOs.

  ==> MemDFJK: Density-Fitted J/K Matrices <==

    J tasked:                   Yes
    K tasked:                   Yes
    wK tasked:                   No
    OpenMP threads:               1
    Memory [MiB]:               375
    Algorithm:                 Core
    Schwarz Cutoff:           1E-12
    Mask sparsity (%):       0.0000
    Fitting Condition:        1E-10

   => Auxiliary Basis Set <=

  Basis Set: (6-311++G** AUX)
    Blend: AUG-CC-PVTZ-JKFIT
    Number of shells: 60
    Number of basis function: 208
    Number of Cartesian functions: 262
    Spherical Harmonics?: true
    Max angular momentum: 4

  Minimum eigenvalue in the overlap matrix is 3.8889751691E-03.
  Using Symmetric Orthogonalization.

  SCF Guess: Superposition of Atomic Densities via on-the-fly atomic UHF.

  ==> Iterations <==

                           Total Energy        Delta E     RMS |[F,P]|

   @DF-RHF iter SAD:  -111.82563573891970   -1.11826e+02   0.00000e+00 
   @DF-RHF iter   1:  -112.73748045658583   -9.11845e-01   1.11255e-02 DIIS
   @DF-RHF iter   2:  -112.74548887673656   -8.00842e-03   9.46551e-03 DIIS
   @DF-RHF iter   3:  -112.76651892967588   -2.10301e-02   6.52147e-04 DIIS
   @DF-RHF iter   4:  -112.76665809390283   -1.39164e-04   7.18967e-05 DIIS
   @DF-RHF iter   5:  -112.76666086678580   -2.77288e-06   1.44714e-05 DIIS
   @DF-RHF iter   6:  -112.76666102463682   -1.57851e-07   3.58655e-06 DIIS
   @DF-RHF iter   7:  -112.76666103119868   -6.56186e-09   6.13934e-07 DIIS
   @DF-RHF iter   8:  -112.76666103143043   -2.31751e-10   1.76229e-07 DIIS
   @DF-RHF iter   9:  -112.76666103144669   -1.62572e-11   2.72337e-08 DIIS
   @DF-RHF iter  10:  -112.76666103144726   -5.68434e-13   2.57355e-09 DIIS
   @DF-RHF iter  11:  -112.76666103144710    1.56319e-13   4.55472e-10 DIIS
   @DF-RHF iter  12:  -112.76666103144716   -5.68434e-14   4.44832e-11 DIIS
  Energy and wave function converged.


  ==> Post-Iterations <==

    Orbital Energies [Eh]
    ---------------------

    Doubly Occupied:                                                      

       1A1   -20.670786     2A1   -11.374478     3A1    -1.515152  
       4A1    -0.805208     1B2    -0.633955     1B1    -0.633955  
       5A1    -0.558083  

    Virtual:                                                              

       2B2     0.082151     2B1     0.082151     6A1     0.084309  
       7A1     0.110750     3B2     0.168349     3B1     0.168349  
       8A1     0.262998     4B1     0.300012     4B2     0.300012  
       9A1     0.363033    10A1     0.528007     5B1     0.706277  
       5B2     0.706277    11A1     0.846758    12A1     1.051310  
      13A1     1.254213     6B1     1.264597     6B2     1.264597  
       1A2     1.507957    14A1     1.507957    15A1     1.642355  
       7B1     1.672449     7B2     1.672449    16A1     2.343696  
       8B1     2.999435     8B2     2.999435    17A1     3.155406  
       2A2     3.155406    18A1     3.390774     9B1     3.729303  
       9B2     3.729303    19A1     4.074978    10B1     5.473526  
      10B2     5.473526    20A1     6.107348    21A1    24.902796  
      22A1    51.525226  

    Final Occupation by Irrep:
             A1    A2    B1    B2 
    DOCC [     5,    0,    1,    1 ]

  @DF-RHF Final Energy:  -112.76666103144716

   => Energetics <=

    Nuclear Repulsion Energy =             22.1513465937837957
    One-Electron Energy =                -197.4527834799334300
    Two-Electron Energy =                  62.5347758547024881
    Total Energy =                       -112.7666610314471569

Computation Completed


Properties will be evaluated at   0.000000,   0.000000,   0.000000 [a0]

Properties computed using the SCF density matrix

  Nuclear Dipole Moment: [e a0]
     X:     0.0000      Y:     0.0000      Z:     0.0024

  Electronic Dipole Moment: [e a0]
     X:     0.0000      Y:     0.0000      Z:    -0.1602

  Dipole Moment: [e a0]
     X:     0.0000      Y:     0.0000      Z:    -0.1578     Total:     0.1578

  Dipole Moment: [D]
     X:     0.0000      Y:     0.0000      Z:    -0.4011     Total:     0.4011


*** tstop() called on atlantis at Tue Apr 19 00:31:26 2022
Module time:
	user time   =       0.29 seconds =       0.00 minutes
	system time =       0.00 seconds =       0.00 minutes
	total time  =          0 seconds =       0.00 minutes
Total time:
	user time   =       0.65 seconds =       0.01 minutes
	system time =       0.02 seconds =       0.00 minutes
	total time  =          0 seconds =       0.00 minutes

*** tstart() called on atlantis
*** at Tue Apr 19 00:31:26 2022


  //>>>>>>>>>>>>>>>>>>>>>>>>>>>>>>>>>>>//
  //               DFMP2               //
  //<<<<<<<<<<<<<<<<<<<<<<<<<<<<<<<<<<<//

   => Loading Basis Set <=

    Name: (6-311++G** AUX)
    Role: RIFIT
    Keyword: DF_BASIS_MP2
    atoms 1 entry O          line   264 file /home/akrom/software/anaconda3/envs/ffpenv/share/psi4/basis/aug-cc-pvtz-ri.gbs 
    atoms 2 entry C          line   148 file /home/akrom/software/anaconda3/envs/ffpenv/share/psi4/basis/aug-cc-pvtz-ri.gbs 

	 --------------------------------------------------------
	                          DF-MP2                         
	      2nd-Order Density-Fitted Moller-Plesset Theory     
	              RMP2 Wavefunction,   1 Threads             
	                                                         
	        Rob Parrish, Justin Turney, Andy Simmonett,      
	           Ed Hohenstein, and C. David Sherrill          
	 --------------------------------------------------------

   => Auxiliary Basis Set <=

  Basis Set: (6-311++G** AUX)
    Blend: AUG-CC-PVTZ-RI
    Number of shells: 56
    Number of basis function: 212
    Number of Cartesian functions: 272
    Spherical Harmonics?: true
    Max angular momentum: 4

	 --------------------------------------------------------
	                 NBF =    44, NAUX =   212
	 --------------------------------------------------------
	   CLASS    FOCC     OCC    AOCC    AVIR     VIR    FVIR
	   PAIRS       0       7       7      37      37       0
	 --------------------------------------------------------

  DFHelper Memory: AOs need 0.004 GiB; user supplied 0.366 GiB. Using in-core AOs.


         ------------------------------------------------------------
                                     CPHF                           
                                  Rob Parrish                       
         ------------------------------------------------------------

  ==> Geometry <==

    Molecular point group: c2v
    Full point group: C_inf_v

    Geometry (in Angstrom), charge = 0, multiplicity = 1:

       Center              X                  Y                   Z               Mass       
    ------------   -----------------  -----------------  -----------------  -----------------
         O            0.000000000000     0.000000000000     0.491523556581    15.994914619570
         C            0.000000000000     0.000000000000    -0.655156443419    12.000000000000

  Nuclear repulsion =   22.151346593783796
  Reference energy  = -112.766661031447157

  ==> Basis Set <==

  Basis Set: 6-311++G**
    Blend: 6-311++G**
    Number of shells: 20
    Number of basis function: 44
    Number of Cartesian functions: 46
    Spherical Harmonics?: true
    Max angular momentum: 2

  ==> CGRSolver (by Rob Parrish) <==

   Number of roots    =         1
   Preconditioning    =    JACOBI
   Convergence cutoff =     1E-06
   Maximum iterations =       100

  ==> CPHFRHamiltonian (by Rob Parrish) <== 

  ==> MemDFJK: Density-Fitted J/K Matrices <==

    J tasked:                   Yes
    K tasked:                   Yes
    wK tasked:                   No
    OpenMP threads:               1
    Memory [MiB]:               375
    Algorithm:                 Core
    Schwarz Cutoff:           1E-12
    Mask sparsity (%):       0.0000
    Fitting Condition:        1E-10

   => Auxiliary Basis Set <=

  Basis Set: (6-311++G** AUX)
    Blend: AUG-CC-PVTZ-JKFIT
    Number of shells: 60
    Number of basis function: 208
    Number of Cartesian functions: 262
    Spherical Harmonics?: true
    Max angular momentum: 4

  ==> CPHF Iterations <==

  => Iterations <=

             Iter  Converged  Remaining    Residual
  CGR           1          0          1   1.283E-01
  CGR           2          0          1   3.664E-02
  CGR           3          0          1   8.732E-03
  CGR           4          0          1   2.065E-03
  CGR           5          0          1   3.348E-04
  CGR           6          0          1   2.683E-05
  CGR           7          0          1   4.388E-06
  CGR           8          1          0   4.201E-07

    CGRSolver converged.

Problem determining natural orbital and density matrix symmetries.
Future calls to oeprop using this density will not work. Try disabling symmetry.

  ==> DFCorrGrad: Density-Fitted Correlated Gradients <==

    OpenMP threads:              1
    Integrals threads:           1
    Memory [GiB]:            0.366
    Schwarz Cutoff:          0E+00
    Fitting Condition:       1E-10

   => Auxiliary Basis Set <=

  Basis Set: (6-311++G** AUX)
    Blend: AUG-CC-PVTZ-JKFIT
    Number of shells: 60
    Number of basis function: 208
    Number of Cartesian functions: 262
    Spherical Harmonics?: true
    Max angular momentum: 4

	-----------------------------------------------------------
	 ==================> DF-MP2 Energies <==================== 
	-----------------------------------------------------------
	 Reference Energy          =    -112.7666610314471569 [Eh]
	 Singles Energy            =      -0.0000000000000000 [Eh]
	 Same-Spin Energy          =      -0.0862377635598129 [Eh]
	 Opposite-Spin Energy      =      -0.2619609715823735 [Eh]
	 Correlation Energy        =      -0.3481987351421864 [Eh]
	 Total Energy              =    -113.1148597665893476 [Eh]
	-----------------------------------------------------------
	 ================> DF-SCS-MP2 Energies <================== 
	-----------------------------------------------------------
	 SCS Same-Spin Scale       =       0.3333333333333333 [-]
	 SCS Opposite-Spin Scale   =       1.2000000000000000 [-]
	 SCS Same-Spin Energy      =      -0.0287459211866043 [Eh]
	 SCS Opposite-Spin Energy  =      -0.3143531658988482 [Eh]
	 SCS Correlation Energy    =      -0.3430990870854525 [Eh]
	 SCS Total Energy          =    -113.1097601185326056 [Eh]
	-----------------------------------------------------------


  -Total Gradient:
     Atom            X                  Y                   Z
    ------   -----------------  -----------------  -----------------
       1        0.000000000000     0.000000000000     0.015961446053
       2        0.000000000000    -0.000000000000    -0.015961446054


*** tstop() called on atlantis at Tue Apr 19 00:31:27 2022
Module time:
	user time   =       0.41 seconds =       0.01 minutes
	system time =       0.01 seconds =       0.00 minutes
	total time  =          1 seconds =       0.02 minutes
Total time:
	user time   =       1.06 seconds =       0.02 minutes
	system time =       0.03 seconds =       0.00 minutes
	total time  =          1 seconds =       0.02 minutes

  Based on options and gradient (rms=9.22E-03), recommend projecting translations and projecting rotations.
hessian() will perform frequency computation by finite difference of analytic gradients.

         ----------------------------------------------------------
                                   FINDIF
                     R. A. King and Jonathon Misiewicz
         ---------------------------------------------------------

  Using finite-differences of gradients to determine vibrational frequencies and 
  normal modes.  Resulting frequencies are only valid at stationary points.
    Generating geometries for use with 3-point formula.
    Displacement size will be 5.00e-03.
    Number of atoms is 2.
    Number of irreps is 4.
    Number of SALCs is 1.
    Translations projected? 1. Rotations projected? 1.
    Index of SALCs per irrep:
     1 :  0 
     2 : 
     3 : 
     4 : 
    Number of SALCs per irrep:
     Irrep 1: 1
     Irrep 2: 0
     Irrep 3: 0
     Irrep 4: 0
    Number of geometries (including reference) is 3.
    Number of displacements per irrep:
      Irrep 1: 2
      Irrep 2: 0
      Irrep 3: 0
      Irrep 4: 0

  //>>>>>>>>>>>>>>>>>>>>>>>>>>>>>>>>>>>//
  //    Loading displacement 1 of 3    //
  //<<<<<<<<<<<<<<<<<<<<<<<<<<<<<<<<<<<//
gradient() will perform analytic gradient computation.
    SCF Algorithm Type (re)set to DF.

*** tstart() called on atlantis
*** at Tue Apr 19 00:31:27 2022

   => Loading Basis Set <=

    Name: 6-311++G**
    Role: ORBITAL
    Keyword: BASIS
    atoms 1 entry O          line   161 file /home/akrom/software/anaconda3/envs/ffpenv/share/psi4/basis/6-311ppgss.gbs 
    atoms 2 entry C          line   119 file /home/akrom/software/anaconda3/envs/ffpenv/share/psi4/basis/6-311ppgss.gbs 


         ---------------------------------------------------------
                                   SCF
               by Justin Turney, Rob Parrish, Andy Simmonett
                          and Daniel G. A. Smith
                              RHF Reference
                        1 Threads,    500 MiB Core
         ---------------------------------------------------------

  ==> Geometry <==

    Molecular point group: c2v
    Full point group: C_inf_v

    Geometry (in Angstrom), charge = 0, multiplicity = 1:

       Center              X                  Y                   Z               Mass       
    ------------   -----------------  -----------------  -----------------  -----------------
         O            0.000000000000     0.000000000000     0.491523556581    15.994914619570
         C            0.000000000000     0.000000000000    -0.655156443419    12.000000000000

  Running in c2v symmetry.

  Rotational constants: A = ************  B =      1.86994  C =      1.86994 [cm^-1]
  Rotational constants: A = ************  B =  56059.43274  C =  56059.43274 [MHz]
  Nuclear repulsion =   22.151346593783796

  Charge       = 0
  Multiplicity = 1
  Electrons    = 14
  Nalpha       = 7
  Nbeta        = 7

  ==> Algorithm <==

  SCF Algorithm Type is DF.
  DIIS enabled.
  MOM disabled.
  Fractional occupation disabled.
  Guess Type is SAD.
  Energy threshold   = 1.00e-10
  Density threshold  = 1.00e-10
  Integral threshold = 0.00e+00

  ==> Primary Basis <==

  Basis Set: 6-311++G**
    Blend: 6-311++G**
    Number of shells: 20
    Number of basis function: 44
    Number of Cartesian functions: 46
    Spherical Harmonics?: true
    Max angular momentum: 2

   => Loading Basis Set <=

    Name: (6-311++G** AUX)
    Role: JKFIT
    Keyword: DF_BASIS_SCF
    atoms 1 entry O          line   286 file /home/akrom/software/anaconda3/envs/ffpenv/share/psi4/basis/aug-cc-pvtz-jkfit.gbs 
    atoms 2 entry C          line   162 file /home/akrom/software/anaconda3/envs/ffpenv/share/psi4/basis/aug-cc-pvtz-jkfit.gbs 

  ==> Pre-Iterations <==

   -------------------------------------------------------
    Irrep   Nso     Nmo     Nalpha   Nbeta   Ndocc  Nsocc
   -------------------------------------------------------
     A1        22      22       0       0       0       0
     A2         2       2       0       0       0       0
     B1        10      10       0       0       0       0
     B2        10      10       0       0       0       0
   -------------------------------------------------------
    Total      44      44       7       7       7       0
   -------------------------------------------------------

  ==> Integral Setup <==

  DFHelper Memory: AOs need 0.004 GiB; user supplied 0.366 GiB. Using in-core AOs.

  ==> MemDFJK: Density-Fitted J/K Matrices <==

    J tasked:                   Yes
    K tasked:                   Yes
    wK tasked:                   No
    OpenMP threads:               1
    Memory [MiB]:               375
    Algorithm:                 Core
    Schwarz Cutoff:           1E-12
    Mask sparsity (%):       0.0000
    Fitting Condition:        1E-10

   => Auxiliary Basis Set <=

  Basis Set: (6-311++G** AUX)
    Blend: AUG-CC-PVTZ-JKFIT
    Number of shells: 60
    Number of basis function: 208
    Number of Cartesian functions: 262
    Spherical Harmonics?: true
    Max angular momentum: 4

  Minimum eigenvalue in the overlap matrix is 3.8889751691E-03.
  Using Symmetric Orthogonalization.

  SCF Guess: Superposition of Atomic Densities via on-the-fly atomic UHF.

  ==> Iterations <==

                           Total Energy        Delta E     RMS |[F,P]|

   @DF-RHF iter SAD:  -111.82563573891970   -1.11826e+02   0.00000e+00 
   @DF-RHF iter   1:  -112.73748045658583   -9.11845e-01   1.11255e-02 DIIS
   @DF-RHF iter   2:  -112.74548887673656   -8.00842e-03   9.46551e-03 DIIS
   @DF-RHF iter   3:  -112.76651892967588   -2.10301e-02   6.52147e-04 DIIS
   @DF-RHF iter   4:  -112.76665809390283   -1.39164e-04   7.18967e-05 DIIS
   @DF-RHF iter   5:  -112.76666086678580   -2.77288e-06   1.44714e-05 DIIS
   @DF-RHF iter   6:  -112.76666102463682   -1.57851e-07   3.58655e-06 DIIS
   @DF-RHF iter   7:  -112.76666103119868   -6.56186e-09   6.13934e-07 DIIS
   @DF-RHF iter   8:  -112.76666103143043   -2.31751e-10   1.76229e-07 DIIS
   @DF-RHF iter   9:  -112.76666103144669   -1.62572e-11   2.72337e-08 DIIS
   @DF-RHF iter  10:  -112.76666103144726   -5.68434e-13   2.57355e-09 DIIS
   @DF-RHF iter  11:  -112.76666103144710    1.56319e-13   4.55472e-10 DIIS
   @DF-RHF iter  12:  -112.76666103144716   -5.68434e-14   4.44832e-11 DIIS
  Energy and wave function converged.


  ==> Post-Iterations <==

    Orbital Energies [Eh]
    ---------------------

    Doubly Occupied:                                                      

       1A1   -20.670786     2A1   -11.374478     3A1    -1.515152  
       4A1    -0.805208     1B2    -0.633955     1B1    -0.633955  
       5A1    -0.558083  

    Virtual:                                                              

       2B2     0.082151     2B1     0.082151     6A1     0.084309  
       7A1     0.110750     3B2     0.168349     3B1     0.168349  
       8A1     0.262998     4B1     0.300012     4B2     0.300012  
       9A1     0.363033    10A1     0.528007     5B1     0.706277  
       5B2     0.706277    11A1     0.846758    12A1     1.051310  
      13A1     1.254213     6B1     1.264597     6B2     1.264597  
       1A2     1.507957    14A1     1.507957    15A1     1.642355  
       7B1     1.672449     7B2     1.672449    16A1     2.343696  
       8B1     2.999435     8B2     2.999435    17A1     3.155406  
       2A2     3.155406    18A1     3.390774     9B1     3.729303  
       9B2     3.729303    19A1     4.074978    10B1     5.473526  
      10B2     5.473526    20A1     6.107348    21A1    24.902796  
      22A1    51.525226  

    Final Occupation by Irrep:
             A1    A2    B1    B2 
    DOCC [     5,    0,    1,    1 ]

  @DF-RHF Final Energy:  -112.76666103144716

   => Energetics <=

    Nuclear Repulsion Energy =             22.1513465937837957
    One-Electron Energy =                -197.4527834799334300
    Two-Electron Energy =                  62.5347758547024881
    Total Energy =                       -112.7666610314471569

Computation Completed


Properties will be evaluated at   0.000000,   0.000000,   0.000000 [a0]

Properties computed using the SCF density matrix

  Nuclear Dipole Moment: [e a0]
     X:     0.0000      Y:     0.0000      Z:     0.0024

  Electronic Dipole Moment: [e a0]
     X:     0.0000      Y:     0.0000      Z:    -0.1602

  Dipole Moment: [e a0]
     X:     0.0000      Y:     0.0000      Z:    -0.1578     Total:     0.1578

  Dipole Moment: [D]
     X:     0.0000      Y:     0.0000      Z:    -0.4011     Total:     0.4011


*** tstop() called on atlantis at Tue Apr 19 00:31:27 2022
Module time:
	user time   =       0.28 seconds =       0.00 minutes
	system time =       0.00 seconds =       0.00 minutes
	total time  =          0 seconds =       0.00 minutes
Total time:
	user time   =       1.62 seconds =       0.03 minutes
	system time =       0.03 seconds =       0.00 minutes
	total time  =          1 seconds =       0.02 minutes

*** tstart() called on atlantis
*** at Tue Apr 19 00:31:27 2022


  //>>>>>>>>>>>>>>>>>>>>>>>>>>>>>>>>>>>//
  //               DFMP2               //
  //<<<<<<<<<<<<<<<<<<<<<<<<<<<<<<<<<<<//

   => Loading Basis Set <=

    Name: (6-311++G** AUX)
    Role: RIFIT
    Keyword: DF_BASIS_MP2
    atoms 1 entry O          line   264 file /home/akrom/software/anaconda3/envs/ffpenv/share/psi4/basis/aug-cc-pvtz-ri.gbs 
    atoms 2 entry C          line   148 file /home/akrom/software/anaconda3/envs/ffpenv/share/psi4/basis/aug-cc-pvtz-ri.gbs 

	 --------------------------------------------------------
	                          DF-MP2                         
	      2nd-Order Density-Fitted Moller-Plesset Theory     
	              RMP2 Wavefunction,   1 Threads             
	                                                         
	        Rob Parrish, Justin Turney, Andy Simmonett,      
	           Ed Hohenstein, and C. David Sherrill          
	 --------------------------------------------------------

   => Auxiliary Basis Set <=

  Basis Set: (6-311++G** AUX)
    Blend: AUG-CC-PVTZ-RI
    Number of shells: 56
    Number of basis function: 212
    Number of Cartesian functions: 272
    Spherical Harmonics?: true
    Max angular momentum: 4

	 --------------------------------------------------------
	                 NBF =    44, NAUX =   212
	 --------------------------------------------------------
	   CLASS    FOCC     OCC    AOCC    AVIR     VIR    FVIR
	   PAIRS       0       7       7      37      37       0
	 --------------------------------------------------------

  DFHelper Memory: AOs need 0.004 GiB; user supplied 0.366 GiB. Using in-core AOs.


         ------------------------------------------------------------
                                     CPHF                           
                                  Rob Parrish                       
         ------------------------------------------------------------

  ==> Geometry <==

    Molecular point group: c2v
    Full point group: C_inf_v

    Geometry (in Angstrom), charge = 0, multiplicity = 1:

       Center              X                  Y                   Z               Mass       
    ------------   -----------------  -----------------  -----------------  -----------------
         O            0.000000000000     0.000000000000     0.491523556581    15.994914619570
         C            0.000000000000     0.000000000000    -0.655156443419    12.000000000000

  Nuclear repulsion =   22.151346593783796
  Reference energy  = -112.766661031447157

  ==> Basis Set <==

  Basis Set: 6-311++G**
    Blend: 6-311++G**
    Number of shells: 20
    Number of basis function: 44
    Number of Cartesian functions: 46
    Spherical Harmonics?: true
    Max angular momentum: 2

  ==> CGRSolver (by Rob Parrish) <==

   Number of roots    =         1
   Preconditioning    =    JACOBI
   Convergence cutoff =     1E-06
   Maximum iterations =       100

  ==> CPHFRHamiltonian (by Rob Parrish) <== 

  ==> MemDFJK: Density-Fitted J/K Matrices <==

    J tasked:                   Yes
    K tasked:                   Yes
    wK tasked:                   No
    OpenMP threads:               1
    Memory [MiB]:               375
    Algorithm:                 Core
    Schwarz Cutoff:           1E-12
    Mask sparsity (%):       0.0000
    Fitting Condition:        1E-10

   => Auxiliary Basis Set <=

  Basis Set: (6-311++G** AUX)
    Blend: AUG-CC-PVTZ-JKFIT
    Number of shells: 60
    Number of basis function: 208
    Number of Cartesian functions: 262
    Spherical Harmonics?: true
    Max angular momentum: 4

  ==> CPHF Iterations <==

  => Iterations <=

             Iter  Converged  Remaining    Residual
  CGR           1          0          1   1.283E-01
  CGR           2          0          1   3.664E-02
  CGR           3          0          1   8.732E-03
  CGR           4          0          1   2.065E-03
  CGR           5          0          1   3.348E-04
  CGR           6          0          1   2.683E-05
  CGR           7          0          1   4.388E-06
  CGR           8          1          0   4.201E-07

    CGRSolver converged.

Problem determining natural orbital and density matrix symmetries.
Future calls to oeprop using this density will not work. Try disabling symmetry.

  ==> DFCorrGrad: Density-Fitted Correlated Gradients <==

    OpenMP threads:              1
    Integrals threads:           1
    Memory [GiB]:            0.366
    Schwarz Cutoff:          0E+00
    Fitting Condition:       1E-10

   => Auxiliary Basis Set <=

  Basis Set: (6-311++G** AUX)
    Blend: AUG-CC-PVTZ-JKFIT
    Number of shells: 60
    Number of basis function: 208
    Number of Cartesian functions: 262
    Spherical Harmonics?: true
    Max angular momentum: 4

	-----------------------------------------------------------
	 ==================> DF-MP2 Energies <==================== 
	-----------------------------------------------------------
	 Reference Energy          =    -112.7666610314471569 [Eh]
	 Singles Energy            =      -0.0000000000000000 [Eh]
	 Same-Spin Energy          =      -0.0862377635598129 [Eh]
	 Opposite-Spin Energy      =      -0.2619609715823735 [Eh]
	 Correlation Energy        =      -0.3481987351421864 [Eh]
	 Total Energy              =    -113.1148597665893476 [Eh]
	-----------------------------------------------------------
	 ================> DF-SCS-MP2 Energies <================== 
	-----------------------------------------------------------
	 SCS Same-Spin Scale       =       0.3333333333333333 [-]
	 SCS Opposite-Spin Scale   =       1.2000000000000000 [-]
	 SCS Same-Spin Energy      =      -0.0287459211866043 [Eh]
	 SCS Opposite-Spin Energy  =      -0.3143531658988482 [Eh]
	 SCS Correlation Energy    =      -0.3430990870854525 [Eh]
	 SCS Total Energy          =    -113.1097601185326056 [Eh]
	-----------------------------------------------------------


  -Total Gradient:
     Atom            X                  Y                   Z
    ------   -----------------  -----------------  -----------------
       1        0.000000000000     0.000000000000     0.015961446053
       2        0.000000000000    -0.000000000000    -0.015961446054


*** tstop() called on atlantis at Tue Apr 19 00:31:28 2022
Module time:
	user time   =       0.42 seconds =       0.01 minutes
	system time =       0.01 seconds =       0.00 minutes
	total time  =          1 seconds =       0.02 minutes
Total time:
	user time   =       2.04 seconds =       0.03 minutes
	system time =       0.04 seconds =       0.00 minutes
	total time  =          2 seconds =       0.03 minutes

  //>>>>>>>>>>>>>>>>>>>>>>>>>>>>>>>>>>>//
  //    Loading displacement 2 of 3    //
  //<<<<<<<<<<<<<<<<<<<<<<<<<<<<<<<<<<<//
gradient() will perform analytic gradient computation.
    SCF Algorithm Type (re)set to DF.

*** tstart() called on atlantis
*** at Tue Apr 19 00:31:28 2022

   => Loading Basis Set <=

    Name: 6-311++G**
    Role: ORBITAL
    Keyword: BASIS
    atoms 1 entry O          line   161 file /home/akrom/software/anaconda3/envs/ffpenv/share/psi4/basis/6-311ppgss.gbs 
    atoms 2 entry C          line   119 file /home/akrom/software/anaconda3/envs/ffpenv/share/psi4/basis/6-311ppgss.gbs 


         ---------------------------------------------------------
                                   SCF
               by Justin Turney, Rob Parrish, Andy Simmonett
                          and Daniel G. A. Smith
                              RHF Reference
                        1 Threads,    500 MiB Core
         ---------------------------------------------------------

  ==> Geometry <==

    Molecular point group: c2v
    Full point group: C_inf_v

    Geometry (in Angstrom), charge = 0, multiplicity = 1:

       Center              X                  Y                   Z               Mass       
    ------------   -----------------  -----------------  -----------------  -----------------
         O            0.000000000000     0.000000000000     0.491090413658    15.994914619570
         C            0.000000000000     0.000000000000    -0.654579103079    12.000000000000

  Running in c2v symmetry.

  Rotational constants: A = ************  B =      1.87324  C =      1.87324 [cm^-1]
  Rotational constants: A = ************  B =  56158.36546  C =  56158.36546 [MHz]
  Nuclear repulsion =   22.170884134640527

  Charge       = 0
  Multiplicity = 1
  Electrons    = 14
  Nalpha       = 7
  Nbeta        = 7

  ==> Algorithm <==

  SCF Algorithm Type is DF.
  DIIS enabled.
  MOM disabled.
  Fractional occupation disabled.
  Guess Type is SAD.
  Energy threshold   = 1.00e-10
  Density threshold  = 1.00e-10
  Integral threshold = 0.00e+00

  ==> Primary Basis <==

  Basis Set: 6-311++G**
    Blend: 6-311++G**
    Number of shells: 20
    Number of basis function: 44
    Number of Cartesian functions: 46
    Spherical Harmonics?: true
    Max angular momentum: 2

   => Loading Basis Set <=

    Name: (6-311++G** AUX)
    Role: JKFIT
    Keyword: DF_BASIS_SCF
    atoms 1 entry O          line   286 file /home/akrom/software/anaconda3/envs/ffpenv/share/psi4/basis/aug-cc-pvtz-jkfit.gbs 
    atoms 2 entry C          line   162 file /home/akrom/software/anaconda3/envs/ffpenv/share/psi4/basis/aug-cc-pvtz-jkfit.gbs 

  ==> Pre-Iterations <==

   -------------------------------------------------------
    Irrep   Nso     Nmo     Nalpha   Nbeta   Ndocc  Nsocc
   -------------------------------------------------------
     A1        22      22       0       0       0       0
     A2         2       2       0       0       0       0
     B1        10      10       0       0       0       0
     B2        10      10       0       0       0       0
   -------------------------------------------------------
    Total      44      44       7       7       7       0
   -------------------------------------------------------

  ==> Integral Setup <==

  DFHelper Memory: AOs need 0.004 GiB; user supplied 0.366 GiB. Using in-core AOs.

  ==> MemDFJK: Density-Fitted J/K Matrices <==

    J tasked:                   Yes
    K tasked:                   Yes
    wK tasked:                   No
    OpenMP threads:               1
    Memory [MiB]:               375
    Algorithm:                 Core
    Schwarz Cutoff:           1E-12
    Mask sparsity (%):       0.0000
    Fitting Condition:        1E-10

   => Auxiliary Basis Set <=

  Basis Set: (6-311++G** AUX)
    Blend: AUG-CC-PVTZ-JKFIT
    Number of shells: 60
    Number of basis function: 208
    Number of Cartesian functions: 262
    Spherical Harmonics?: true
    Max angular momentum: 4

  Minimum eigenvalue in the overlap matrix is 3.8764772988E-03.
  Using Symmetric Orthogonalization.

  SCF Guess: Superposition of Atomic Densities via on-the-fly atomic UHF.

  ==> Iterations <==

                           Total Energy        Delta E     RMS |[F,P]|

   @DF-RHF iter SAD:  -111.82772176837501   -1.11828e+02   0.00000e+00 
   @DF-RHF iter   1:  -112.73779757381028   -9.10076e-01   1.11088e-02 DIIS
   @DF-RHF iter   2:  -112.74585083655548   -8.05326e-03   9.43193e-03 DIIS
   @DF-RHF iter   3:  -112.76671651717746   -2.08657e-02   6.51584e-04 DIIS
   @DF-RHF iter   4:  -112.76685531927191   -1.38802e-04   7.15521e-05 DIIS
   @DF-RHF iter   5:  -112.76685806552520   -2.74625e-06   1.43265e-05 DIIS
   @DF-RHF iter   6:  -112.76685822015213   -1.54627e-07   3.51014e-06 DIIS
   @DF-RHF iter   7:  -112.76685822646078   -6.30865e-09   5.92791e-07 DIIS
   @DF-RHF iter   8:  -112.76685822667842   -2.17639e-10   1.69728e-07 DIIS
   @DF-RHF iter   9:  -112.76685822669350   -1.50777e-11   2.69719e-08 DIIS
   @DF-RHF iter  10:  -112.76685822669401   -5.11591e-13   2.56890e-09 DIIS
   @DF-RHF iter  11:  -112.76685822669401    0.00000e+00   4.55281e-10 DIIS
   @DF-RHF iter  12:  -112.76685822669410   -8.52651e-14   4.43236e-11 DIIS
  Energy and wave function converged.


  ==> Post-Iterations <==

    Orbital Energies [Eh]
    ---------------------

    Doubly Occupied:                                                      

       1A1   -20.670759     2A1   -11.374037     3A1    -1.515843  
       4A1    -0.805296     1B1    -0.634382     1B2    -0.634382  
       5A1    -0.557968  

    Virtual:                                                              

       2B1     0.082273     2B2     0.082273     6A1     0.084291  
       7A1     0.110787     3B2     0.168619     3B1     0.168619  
       8A1     0.262999     4B1     0.300025     4B2     0.300025  
       9A1     0.362988    10A1     0.528236     5B2     0.706389  
       5B1     0.706389    11A1     0.847379    12A1     1.051851  
      13A1     1.254930     6B2     1.264456     6B1     1.264456  
      14A1     1.507981     1A2     1.507981    15A1     1.642172  
       7B1     1.673134     7B2     1.673134    16A1     2.345163  
       8B1     2.999947     8B2     2.999947     2A2     3.155511  
      17A1     3.155511    18A1     3.390721     9B1     3.730311  
       9B2     3.730311    19A1     4.075546    10B2     5.473680  
      10B1     5.473680    20A1     6.109034    21A1    24.905022  
      22A1    51.526166  

    Final Occupation by Irrep:
             A1    A2    B1    B2 
    DOCC [     5,    0,    1,    1 ]

  @DF-RHF Final Energy:  -112.76685822669410

   => Energetics <=

    Nuclear Repulsion Energy =             22.1708841346405272
    One-Electron Energy =                -197.4901491159694729
    Two-Electron Energy =                  62.5524067546348661
    Total Energy =                       -112.7668582266940973

Computation Completed


Properties will be evaluated at   0.000000,   0.000000,   0.000000 [a0]

Properties computed using the SCF density matrix

  Nuclear Dipole Moment: [e a0]
     X:     0.0000      Y:     0.0000      Z:     0.0024

  Electronic Dipole Moment: [e a0]
     X:     0.0000      Y:     0.0000      Z:    -0.1580

  Dipole Moment: [e a0]
     X:     0.0000      Y:     0.0000      Z:    -0.1557     Total:     0.1557

  Dipole Moment: [D]
     X:     0.0000      Y:     0.0000      Z:    -0.3957     Total:     0.3957


*** tstop() called on atlantis at Tue Apr 19 00:31:28 2022
Module time:
	user time   =       0.27 seconds =       0.00 minutes
	system time =       0.00 seconds =       0.00 minutes
	total time  =          0 seconds =       0.00 minutes
Total time:
	user time   =       2.32 seconds =       0.04 minutes
	system time =       0.04 seconds =       0.00 minutes
	total time  =          2 seconds =       0.03 minutes

*** tstart() called on atlantis
*** at Tue Apr 19 00:31:28 2022


  //>>>>>>>>>>>>>>>>>>>>>>>>>>>>>>>>>>>//
  //               DFMP2               //
  //<<<<<<<<<<<<<<<<<<<<<<<<<<<<<<<<<<<//

   => Loading Basis Set <=

    Name: (6-311++G** AUX)
    Role: RIFIT
    Keyword: DF_BASIS_MP2
    atoms 1 entry O          line   264 file /home/akrom/software/anaconda3/envs/ffpenv/share/psi4/basis/aug-cc-pvtz-ri.gbs 
    atoms 2 entry C          line   148 file /home/akrom/software/anaconda3/envs/ffpenv/share/psi4/basis/aug-cc-pvtz-ri.gbs 

	 --------------------------------------------------------
	                          DF-MP2                         
	      2nd-Order Density-Fitted Moller-Plesset Theory     
	              RMP2 Wavefunction,   1 Threads             
	                                                         
	        Rob Parrish, Justin Turney, Andy Simmonett,      
	           Ed Hohenstein, and C. David Sherrill          
	 --------------------------------------------------------

   => Auxiliary Basis Set <=

  Basis Set: (6-311++G** AUX)
    Blend: AUG-CC-PVTZ-RI
    Number of shells: 56
    Number of basis function: 212
    Number of Cartesian functions: 272
    Spherical Harmonics?: true
    Max angular momentum: 4

	 --------------------------------------------------------
	                 NBF =    44, NAUX =   212
	 --------------------------------------------------------
	   CLASS    FOCC     OCC    AOCC    AVIR     VIR    FVIR
	   PAIRS       0       7       7      37      37       0
	 --------------------------------------------------------

  DFHelper Memory: AOs need 0.004 GiB; user supplied 0.366 GiB. Using in-core AOs.


         ------------------------------------------------------------
                                     CPHF                           
                                  Rob Parrish                       
         ------------------------------------------------------------

  ==> Geometry <==

    Molecular point group: c2v
    Full point group: C_inf_v

    Geometry (in Angstrom), charge = 0, multiplicity = 1:

       Center              X                  Y                   Z               Mass       
    ------------   -----------------  -----------------  -----------------  -----------------
         O            0.000000000000     0.000000000000     0.491090413658    15.994914619570
         C            0.000000000000     0.000000000000    -0.654579103079    12.000000000000

  Nuclear repulsion =   22.170884134640527
  Reference energy  = -112.766858226694097

  ==> Basis Set <==

  Basis Set: 6-311++G**
    Blend: 6-311++G**
    Number of shells: 20
    Number of basis function: 44
    Number of Cartesian functions: 46
    Spherical Harmonics?: true
    Max angular momentum: 2

  ==> CGRSolver (by Rob Parrish) <==

   Number of roots    =         1
   Preconditioning    =    JACOBI
   Convergence cutoff =     1E-06
   Maximum iterations =       100

  ==> CPHFRHamiltonian (by Rob Parrish) <== 

  ==> MemDFJK: Density-Fitted J/K Matrices <==

    J tasked:                   Yes
    K tasked:                   Yes
    wK tasked:                   No
    OpenMP threads:               1
    Memory [MiB]:               375
    Algorithm:                 Core
    Schwarz Cutoff:           1E-12
    Mask sparsity (%):       0.0000
    Fitting Condition:        1E-10

   => Auxiliary Basis Set <=

  Basis Set: (6-311++G** AUX)
    Blend: AUG-CC-PVTZ-JKFIT
    Number of shells: 60
    Number of basis function: 208
    Number of Cartesian functions: 262
    Spherical Harmonics?: true
    Max angular momentum: 4

  ==> CPHF Iterations <==

  => Iterations <=

             Iter  Converged  Remaining    Residual
  CGR           1          0          1   1.280E-01
  CGR           2          0          1   3.650E-02
  CGR           3          0          1   8.686E-03
  CGR           4          0          1   2.055E-03
  CGR           5          0          1   3.333E-04
  CGR           6          0          1   2.671E-05
  CGR           7          0          1   4.366E-06
  CGR           8          1          0   4.182E-07

    CGRSolver converged.

  ==> DFCorrGrad: Density-Fitted Correlated Gradients <==

    OpenMP threads:              1
    Integrals threads:           1
    Memory [GiB]:            0.366
    Schwarz Cutoff:          0E+00
    Fitting Condition:       1E-10

   => Auxiliary Basis Set <=

  Basis Set: (6-311++G** AUX)
    Blend: AUG-CC-PVTZ-JKFIT
    Number of shells: 60
    Number of basis function: 208
    Number of Cartesian functions: 262
    Spherical Harmonics?: true
    Max angular momentum: 4

	-----------------------------------------------------------
	 ==================> DF-MP2 Energies <==================== 
	-----------------------------------------------------------
	 Reference Energy          =    -112.7668582266940973 [Eh]
	 Singles Energy            =      -0.0000000000000000 [Eh]
	 Same-Spin Energy          =      -0.0861877486544781 [Eh]
	 Opposite-Spin Energy      =      -0.2618422364145992 [Eh]
	 Correlation Energy        =      -0.3480299850690773 [Eh]
	 Total Energy              =    -113.1148882117631729 [Eh]
	-----------------------------------------------------------
	 ================> DF-SCS-MP2 Energies <================== 
	-----------------------------------------------------------
	 SCS Same-Spin Scale       =       0.3333333333333333 [-]
	 SCS Opposite-Spin Scale   =       1.2000000000000000 [-]
	 SCS Same-Spin Energy      =      -0.0287292495514927 [Eh]
	 SCS Opposite-Spin Energy  =      -0.3142106836975190 [Eh]
	 SCS Correlation Energy    =      -0.3429399332490117 [Eh]
	 SCS Total Energy          =    -113.1097981599431108 [Eh]
	-----------------------------------------------------------


  -Total Gradient:
     Atom            X                  Y                   Z
    ------   -----------------  -----------------  -----------------
       1        0.000000000000     0.000000000000     0.013828715075
       2        0.000000000000    -0.000000000000    -0.013828715073


*** tstop() called on atlantis at Tue Apr 19 00:31:29 2022
Module time:
	user time   =       0.43 seconds =       0.01 minutes
	system time =       0.00 seconds =       0.00 minutes
	total time  =          1 seconds =       0.02 minutes
Total time:
	user time   =       2.75 seconds =       0.05 minutes
	system time =       0.04 seconds =       0.00 minutes
	total time  =          3 seconds =       0.05 minutes

  //>>>>>>>>>>>>>>>>>>>>>>>>>>>>>>>>>>>//
  //    Loading displacement 3 of 3    //
  //<<<<<<<<<<<<<<<<<<<<<<<<<<<<<<<<<<<//
gradient() will perform analytic gradient computation.
    SCF Algorithm Type (re)set to DF.

*** tstart() called on atlantis
*** at Tue Apr 19 00:31:29 2022

   => Loading Basis Set <=

    Name: 6-311++G**
    Role: ORBITAL
    Keyword: BASIS
    atoms 1 entry O          line   161 file /home/akrom/software/anaconda3/envs/ffpenv/share/psi4/basis/6-311ppgss.gbs 
    atoms 2 entry C          line   119 file /home/akrom/software/anaconda3/envs/ffpenv/share/psi4/basis/6-311ppgss.gbs 


         ---------------------------------------------------------
                                   SCF
               by Justin Turney, Rob Parrish, Andy Simmonett
                          and Daniel G. A. Smith
                              RHF Reference
                        1 Threads,    500 MiB Core
         ---------------------------------------------------------

  ==> Geometry <==

    Molecular point group: c2v
    Full point group: C_inf_v

    Geometry (in Angstrom), charge = 0, multiplicity = 1:

       Center              X                  Y                   Z               Mass       
    ------------   -----------------  -----------------  -----------------  -----------------
         O            0.000000000000     0.000000000000     0.491956699505    15.994914619570
         C            0.000000000000     0.000000000000    -0.655733783759    12.000000000000

  Running in c2v symmetry.

  Rotational constants: A = ************  B =      1.86665  C =      1.86665 [cm^-1]
  Rotational constants: A = ************  B =  55960.76123  C =  55960.76123 [MHz]
  Nuclear repulsion =   22.131843456554755

  Charge       = 0
  Multiplicity = 1
  Electrons    = 14
  Nalpha       = 7
  Nbeta        = 7

  ==> Algorithm <==

  SCF Algorithm Type is DF.
  DIIS enabled.
  MOM disabled.
  Fractional occupation disabled.
  Guess Type is SAD.
  Energy threshold   = 1.00e-10
  Density threshold  = 1.00e-10
  Integral threshold = 0.00e+00

  ==> Primary Basis <==

  Basis Set: 6-311++G**
    Blend: 6-311++G**
    Number of shells: 20
    Number of basis function: 44
    Number of Cartesian functions: 46
    Spherical Harmonics?: true
    Max angular momentum: 2

   => Loading Basis Set <=

    Name: (6-311++G** AUX)
    Role: JKFIT
    Keyword: DF_BASIS_SCF
    atoms 1 entry O          line   286 file /home/akrom/software/anaconda3/envs/ffpenv/share/psi4/basis/aug-cc-pvtz-jkfit.gbs 
    atoms 2 entry C          line   162 file /home/akrom/software/anaconda3/envs/ffpenv/share/psi4/basis/aug-cc-pvtz-jkfit.gbs 

  ==> Pre-Iterations <==

   -------------------------------------------------------
    Irrep   Nso     Nmo     Nalpha   Nbeta   Ndocc  Nsocc
   -------------------------------------------------------
     A1        22      22       0       0       0       0
     A2         2       2       0       0       0       0
     B1        10      10       0       0       0       0
     B2        10      10       0       0       0       0
   -------------------------------------------------------
    Total      44      44       7       7       7       0
   -------------------------------------------------------

  ==> Integral Setup <==

  DFHelper Memory: AOs need 0.004 GiB; user supplied 0.366 GiB. Using in-core AOs.

  ==> MemDFJK: Density-Fitted J/K Matrices <==

    J tasked:                   Yes
    K tasked:                   Yes
    wK tasked:                   No
    OpenMP threads:               1
    Memory [MiB]:               375
    Algorithm:                 Core
    Schwarz Cutoff:           1E-12
    Mask sparsity (%):       0.0000
    Fitting Condition:        1E-10

   => Auxiliary Basis Set <=

  Basis Set: (6-311++G** AUX)
    Blend: AUG-CC-PVTZ-JKFIT
    Number of shells: 60
    Number of basis function: 208
    Number of Cartesian functions: 262
    Spherical Harmonics?: true
    Max angular momentum: 4

  Minimum eigenvalue in the overlap matrix is 3.9014938677E-03.
  Using Symmetric Orthogonalization.

  SCF Guess: Superposition of Atomic Densities via on-the-fly atomic UHF.

  ==> Iterations <==

                           Total Energy        Delta E     RMS |[F,P]|

   @DF-RHF iter SAD:  -111.82355159388015   -1.11824e+02   0.00000e+00 
   @DF-RHF iter   1:  -112.73715825118862   -9.13607e-01   1.11422e-02 DIIS
   @DF-RHF iter   2:  -112.74512122136339   -7.96297e-03   9.49927e-03 DIIS
   @DF-RHF iter   3:  -112.76631712902359   -2.11959e-02   6.52722e-04 DIIS
   @DF-RHF iter   4:  -112.76645666071450   -1.39532e-04   7.22501e-05 DIIS
   @DF-RHF iter   5:  -112.76645946096122   -2.80025e-06   1.46175e-05 DIIS
   @DF-RHF iter   6:  -112.76645962211376   -1.61153e-07   3.66352e-06 DIIS
   @DF-RHF iter   7:  -112.76645962893610   -6.82235e-09   6.35560e-07 DIIS
   @DF-RHF iter   8:  -112.76645962918280   -2.46700e-10   1.82681e-07 DIIS
   @DF-RHF iter   9:  -112.76645962920034   -1.75362e-11   2.74530e-08 DIIS
   @DF-RHF iter  10:  -112.76645962920095   -6.11067e-13   2.58004e-09 DIIS
   @DF-RHF iter  11:  -112.76645962920085    9.94760e-14   4.55834e-10 DIIS
   @DF-RHF iter  12:  -112.76645962920098   -1.27898e-13   4.46467e-11 DIIS
  Energy and wave function converged.


  ==> Post-Iterations <==

    Orbital Energies [Eh]
    ---------------------

    Doubly Occupied:                                                      

       1A1   -20.670812     2A1   -11.374918     3A1    -1.514462  
       4A1    -0.805121     1B1    -0.633527     1B2    -0.633527  
       5A1    -0.558197  

    Virtual:                                                              

       2B1     0.082028     2B2     0.082028     6A1     0.084327  
       7A1     0.110714     3B1     0.168080     3B2     0.168080  
       8A1     0.262997     4B1     0.300000     4B2     0.300000  
       9A1     0.363077    10A1     0.527777     5B1     0.706166  
       5B2     0.706166    11A1     0.846135    12A1     1.050765  
      13A1     1.253505     6B1     1.264738     6B2     1.264738  
       1A2     1.507932    14A1     1.507932    15A1     1.642538  
       7B1     1.671766     7B2     1.671766    16A1     2.342234  
       8B1     2.998923     8B2     2.998923     2A2     3.155303  
      17A1     3.155303    18A1     3.390812     9B1     3.728294  
       9B2     3.728294    19A1     4.074422    10B2     5.473373  
      10B1     5.473373    20A1     6.105668    21A1    24.900565  
      22A1    51.524291  

    Final Occupation by Irrep:
             A1    A2    B1    B2 
    DOCC [     5,    0,    1,    1 ]

  @DF-RHF Final Energy:  -112.76645962920098

   => Energetics <=

    Nuclear Repulsion Energy =             22.1318434565547548
    One-Electron Energy =                -197.4154761586477207
    Two-Electron Energy =                  62.5171730728919925
    Total Energy =                       -112.7664596292009804

Computation Completed


Properties will be evaluated at   0.000000,   0.000000,   0.000000 [a0]

Properties computed using the SCF density matrix

  Nuclear Dipole Moment: [e a0]
     X:     0.0000      Y:     0.0000      Z:     0.0024

  Electronic Dipole Moment: [e a0]
     X:     0.0000      Y:     0.0000      Z:    -0.1623

  Dipole Moment: [e a0]
     X:     0.0000      Y:     0.0000      Z:    -0.1599     Total:     0.1599

  Dipole Moment: [D]
     X:     0.0000      Y:     0.0000      Z:    -0.4064     Total:     0.4064


*** tstop() called on atlantis at Tue Apr 19 00:31:29 2022
Module time:
	user time   =       0.27 seconds =       0.00 minutes
	system time =       0.00 seconds =       0.00 minutes
	total time  =          0 seconds =       0.00 minutes
Total time:
	user time   =       3.02 seconds =       0.05 minutes
	system time =       0.04 seconds =       0.00 minutes
	total time  =          3 seconds =       0.05 minutes

*** tstart() called on atlantis
*** at Tue Apr 19 00:31:29 2022


  //>>>>>>>>>>>>>>>>>>>>>>>>>>>>>>>>>>>//
  //               DFMP2               //
  //<<<<<<<<<<<<<<<<<<<<<<<<<<<<<<<<<<<//

   => Loading Basis Set <=

    Name: (6-311++G** AUX)
    Role: RIFIT
    Keyword: DF_BASIS_MP2
    atoms 1 entry O          line   264 file /home/akrom/software/anaconda3/envs/ffpenv/share/psi4/basis/aug-cc-pvtz-ri.gbs 
    atoms 2 entry C          line   148 file /home/akrom/software/anaconda3/envs/ffpenv/share/psi4/basis/aug-cc-pvtz-ri.gbs 

	 --------------------------------------------------------
	                          DF-MP2                         
	      2nd-Order Density-Fitted Moller-Plesset Theory     
	              RMP2 Wavefunction,   1 Threads             
	                                                         
	        Rob Parrish, Justin Turney, Andy Simmonett,      
	           Ed Hohenstein, and C. David Sherrill          
	 --------------------------------------------------------

   => Auxiliary Basis Set <=

  Basis Set: (6-311++G** AUX)
    Blend: AUG-CC-PVTZ-RI
    Number of shells: 56
    Number of basis function: 212
    Number of Cartesian functions: 272
    Spherical Harmonics?: true
    Max angular momentum: 4

	 --------------------------------------------------------
	                 NBF =    44, NAUX =   212
	 --------------------------------------------------------
	   CLASS    FOCC     OCC    AOCC    AVIR     VIR    FVIR
	   PAIRS       0       7       7      37      37       0
	 --------------------------------------------------------

  DFHelper Memory: AOs need 0.004 GiB; user supplied 0.366 GiB. Using in-core AOs.


         ------------------------------------------------------------
                                     CPHF                           
                                  Rob Parrish                       
         ------------------------------------------------------------

  ==> Geometry <==

    Molecular point group: c2v
    Full point group: C_inf_v

    Geometry (in Angstrom), charge = 0, multiplicity = 1:

       Center              X                  Y                   Z               Mass       
    ------------   -----------------  -----------------  -----------------  -----------------
         O            0.000000000000     0.000000000000     0.491956699505    15.994914619570
         C            0.000000000000     0.000000000000    -0.655733783759    12.000000000000

  Nuclear repulsion =   22.131843456554755
  Reference energy  = -112.766459629200980

  ==> Basis Set <==

  Basis Set: 6-311++G**
    Blend: 6-311++G**
    Number of shells: 20
    Number of basis function: 44
    Number of Cartesian functions: 46
    Spherical Harmonics?: true
    Max angular momentum: 2

  ==> CGRSolver (by Rob Parrish) <==

   Number of roots    =         1
   Preconditioning    =    JACOBI
   Convergence cutoff =     1E-06
   Maximum iterations =       100

  ==> CPHFRHamiltonian (by Rob Parrish) <== 

  ==> MemDFJK: Density-Fitted J/K Matrices <==

    J tasked:                   Yes
    K tasked:                   Yes
    wK tasked:                   No
    OpenMP threads:               1
    Memory [MiB]:               375
    Algorithm:                 Core
    Schwarz Cutoff:           1E-12
    Mask sparsity (%):       0.0000
    Fitting Condition:        1E-10

   => Auxiliary Basis Set <=

  Basis Set: (6-311++G** AUX)
    Blend: AUG-CC-PVTZ-JKFIT
    Number of shells: 60
    Number of basis function: 208
    Number of Cartesian functions: 262
    Spherical Harmonics?: true
    Max angular momentum: 4

  ==> CPHF Iterations <==

  => Iterations <=

             Iter  Converged  Remaining    Residual
  CGR           1          0          1   1.286E-01
  CGR           2          0          1   3.678E-02
  CGR           3          0          1   8.779E-03
  CGR           4          0          1   2.076E-03
  CGR           5          0          1   3.364E-04
  CGR           6          0          1   2.694E-05
  CGR           7          0          1   4.410E-06
  CGR           8          1          0   4.220E-07

    CGRSolver converged.

  ==> DFCorrGrad: Density-Fitted Correlated Gradients <==

    OpenMP threads:              1
    Integrals threads:           1
    Memory [GiB]:            0.366
    Schwarz Cutoff:          0E+00
    Fitting Condition:       1E-10

   => Auxiliary Basis Set <=

  Basis Set: (6-311++G** AUX)
    Blend: AUG-CC-PVTZ-JKFIT
    Number of shells: 60
    Number of basis function: 208
    Number of Cartesian functions: 262
    Spherical Harmonics?: true
    Max angular momentum: 4

	-----------------------------------------------------------
	 ==================> DF-MP2 Energies <==================== 
	-----------------------------------------------------------
	 Reference Energy          =    -112.7664596292009804 [Eh]
	 Singles Energy            =      -0.0000000000000000 [Eh]
	 Same-Spin Energy          =      -0.0862878451784648 [Eh]
	 Opposite-Spin Energy      =      -0.2620797893640880 [Eh]
	 Correlation Energy        =      -0.3483676345425528 [Eh]
	 Total Energy              =    -113.1148272637435355 [Eh]
	-----------------------------------------------------------
	 ================> DF-SCS-MP2 Energies <================== 
	-----------------------------------------------------------
	 SCS Same-Spin Scale       =       0.3333333333333333 [-]
	 SCS Opposite-Spin Scale   =       1.2000000000000000 [-]
	 SCS Same-Spin Energy      =      -0.0287626150594883 [Eh]
	 SCS Opposite-Spin Energy  =      -0.3144957472369057 [Eh]
	 SCS Correlation Energy    =      -0.3432583622963939 [Eh]
	 SCS Total Energy          =    -113.1097179914973765 [Eh]
	-----------------------------------------------------------


  -Total Gradient:
     Atom            X                  Y                   Z
    ------   -----------------  -----------------  -----------------
       1        0.000000000000     0.000000000000     0.018078656515
       2        0.000000000000    -0.000000000000    -0.018078656515


*** tstop() called on atlantis at Tue Apr 19 00:31:29 2022
Module time:
	user time   =       0.43 seconds =       0.01 minutes
	system time =       0.00 seconds =       0.00 minutes
	total time  =          0 seconds =       0.00 minutes
Total time:
	user time   =       3.45 seconds =       0.06 minutes
	system time =       0.04 seconds =       0.00 minutes
	total time  =          3 seconds =       0.05 minutes

         ----------------------------------------------------------
                                   FINDIF
                     R. A. King and Jonathon Misiewicz
         ---------------------------------------------------------

  Computing second-derivative from gradients using projected, 
  symmetry-adapted, cartesian coordinates.

  3 gradients passed in, including the reference geometry.
  Generating complete list of displacements from unique ones.


-------------------------------------------------------------


  ==> Harmonic Vibrational Analysis <==

  non-mass-weighted Hessian:       Symmetric? True   Hermitian? True   Lin Dep Dim?  5 (0)
  projection of translations (True) and rotations (True) removed 5 degrees of freedom (5)
  total projector:                 Symmetric? True   Hermitian? True   Lin Dep Dim?  5 (5)
  mass-weighted Hessian:           Symmetric? True   Hermitian? True   Lin Dep Dim?  5 (0)
  pre-proj  low-frequency mode:    0.0000  [cm^-1]
  pre-proj  low-frequency mode:    0.0000  [cm^-1]
  pre-proj  low-frequency mode:    0.0000  [cm^-1]
  pre-proj  low-frequency mode:    0.0000  [cm^-1]
  pre-proj  low-frequency mode:    0.0000  [cm^-1]
  pre-proj  all modes:['0.0000' '0.0000' '0.0000' '0.0000' '0.0000' '2070.9745']
  projected mass-weighted Hessian: Symmetric? True   Hermitian? True   Lin Dep Dim?  5 (5)
  post-proj low-frequency mode:    0.0000i [cm^-1] (TR)
  post-proj low-frequency mode:    0.0000  [cm^-1] (TR)
  post-proj low-frequency mode:    0.0000  [cm^-1] (TR)
  post-proj low-frequency mode:    0.0000  [cm^-1] (TR)
  post-proj low-frequency mode:    0.0000  [cm^-1] (TR)
  post-proj  all modes:['0.0000i' '0.0000' '0.0000' '0.0000' '0.0000' '2070.9745']

  Vibration                       6           
  Freq [cm^-1]                2070.9745       
  Irrep                           A1          
  Reduced mass [u]             13.4388        
  Force const [mDyne/A]        33.9593        
  Turning point v=0 [a0]        0.0658        
  RMS dev v=0 [a0 u^1/2]        0.1705        
  Char temp [K]               2979.6712       
  ----------------------------------------------------------------------------------
      1   O                0.00  0.00 -0.60   
      2   C                0.00  0.00  0.80   

  ==> Thermochemistry Components <==

  Entropy, S
    Electronic S            0.000 [cal/(mol K)]        0.000 [J/(mol K)]       0.00000000 [mEh/K] (multiplicity = 1)
    Translational S        35.923 [cal/(mol K)]      150.302 [J/(mol K)]       0.05724692 [mEh/K] (mol. weight = 27.9949 [u], P = 101325.00 [Pa])
    Rotational S           11.343 [cal/(mol K)]       47.458 [J/(mol K)]       0.01807582 [mEh/K] (symmetry no. = 1)
    Vibrational S           0.001 [cal/(mol K)]        0.004 [J/(mol K)]       0.00000159 [mEh/K]
  Total S                  47.267 [cal/(mol K)]      197.764 [J/(mol K)]       0.07532434 [mEh/K]
  Correction S              0.000 [cal/(mol K)]        0.000 [J/(mol K)]       0.00000000 [mEh/K]

  Constant volume heat capacity, Cv
    Electronic Cv           0.000 [cal/(mol K)]        0.000 [J/(mol K)]       0.00000000 [mEh/K]
    Translational Cv        2.981 [cal/(mol K)]       12.472 [J/(mol K)]       0.00475022 [mEh/K]
    Rotational Cv           1.987 [cal/(mol K)]        8.314 [J/(mol K)]       0.00316681 [mEh/K]
    Vibrational Cv          0.009 [cal/(mol K)]        0.038 [J/(mol K)]       0.00001445 [mEh/K]
  Total Cv                  4.977 [cal/(mol K)]       20.824 [J/(mol K)]       0.00793148 [mEh/K]
  Correction Cv             0.000 [cal/(mol K)]        0.000 [J/(mol K)]       0.00000000 [mEh/K]

  Constant pressure heat capacity, Cp
    Electronic Cp           0.000 [cal/(mol K)]        0.000 [J/(mol K)]       0.00000000 [mEh/K]
    Translational Cp        4.968 [cal/(mol K)]       20.786 [J/(mol K)]       0.00791703 [mEh/K]
    Rotational Cp           1.987 [cal/(mol K)]        8.314 [J/(mol K)]       0.00316681 [mEh/K]
    Vibrational Cp          0.009 [cal/(mol K)]        0.038 [J/(mol K)]       0.00001445 [mEh/K]
  Total Cp                  6.964 [cal/(mol K)]       29.139 [J/(mol K)]       0.01109829 [mEh/K]
  Correction Cp             0.000 [cal/(mol K)]        0.000 [J/(mol K)]       0.00000000 [mEh/K]

  ==> Thermochemistry Energy Analysis <==

  Raw electronic energy, E0
  Total E0, Electronic energy at well bottom at 0 [K]                 -113.11485977 [Eh]

  Zero-point energy, ZPE_vib = Sum_i nu_i / 2
    Electronic ZPE          0.000 [kcal/mol]        0.000 [kJ/mol]       0.00000000 [Eh]
    Translational ZPE       0.000 [kcal/mol]        0.000 [kJ/mol]       0.00000000 [Eh]
    Rotational ZPE          0.000 [kcal/mol]        0.000 [kJ/mol]       0.00000000 [Eh]
    Vibrational ZPE         2.961 [kcal/mol]       12.387 [kJ/mol]       0.00471803 [Eh]        1035.487 [cm^-1]
  Correction ZPE            2.961 [kcal/mol]       12.387 [kJ/mol]       0.00471803 [Eh]        1035.487 [cm^-1]
  Total ZPE, Electronic energy at 0 [K]                               -113.11014174 [Eh]

  Thermal Energy, E (includes ZPE)
    Electronic E            0.000 [kcal/mol]        0.000 [kJ/mol]       0.00000000 [Eh]
    Translational E         0.889 [kcal/mol]        3.718 [kJ/mol]       0.00141628 [Eh]
    Rotational E            0.592 [kcal/mol]        2.479 [kJ/mol]       0.00094418 [Eh]
    Vibrational E           2.961 [kcal/mol]       12.388 [kJ/mol]       0.00471846 [Eh]
  Correction E              4.442 [kcal/mol]       18.586 [kJ/mol]       0.00707892 [Eh]
  Total E, Electronic energy at  298.15 [K]                           -113.10778085 [Eh]

  Enthalpy, H_trans = E_trans + k_B * T
    Electronic H            0.000 [kcal/mol]        0.000 [kJ/mol]       0.00000000 [Eh]
    Translational H         1.481 [kcal/mol]        6.197 [kJ/mol]       0.00236046 [Eh]
    Rotational H            0.592 [kcal/mol]        2.479 [kJ/mol]       0.00094418 [Eh]
    Vibrational H           2.961 [kcal/mol]       12.388 [kJ/mol]       0.00471846 [Eh]
  Correction H              5.035 [kcal/mol]       21.065 [kJ/mol]       0.00802310 [Eh]
  Total H, Enthalpy at  298.15 [K]                                    -113.10683666 [Eh]

  Gibbs free energy, G = H - T * S
    Electronic G            0.000 [kcal/mol]        0.000 [kJ/mol]       0.00000000 [Eh]
    Translational G        -9.229 [kcal/mol]      -38.615 [kJ/mol]      -0.01470771 [Eh]
    Rotational G           -2.789 [kcal/mol]      -11.671 [kJ/mol]      -0.00444512 [Eh]
    Vibrational G           2.961 [kcal/mol]       12.387 [kJ/mol]       0.00471798 [Eh]
  Correction G             -9.058 [kcal/mol]      -37.899 [kJ/mol]      -0.01443485 [Eh]
  Total G, Free enthalpy at  298.15 [K]                               -113.12929461 [Eh]

    Psi4 stopped on: Tuesday, 19 April 2022 12:31AM
    Psi4 wall time for execution: 0:00:03.61

*** Psi4 exiting successfully. Buy a developer a beer!
