
    -----------------------------------------------------------------------
          Psi4: An Open-Source Ab Initio Electronic Structure Package
                               Psi4 1.3.2 release

                         Git: Rev {HEAD} ecbda83 


    R. M. Parrish, L. A. Burns, D. G. A. Smith, A. C. Simmonett,
    A. E. DePrince III, E. G. Hohenstein, U. Bozkaya, A. Yu. Sokolov,
    R. Di Remigio, R. M. Richard, J. F. Gonthier, A. M. James,
    H. R. McAlexander, A. Kumar, M. Saitow, X. Wang, B. P. Pritchard,
    P. Verma, H. F. Schaefer III, K. Patkowski, R. A. King, E. F. Valeev,
    F. A. Evangelista, J. M. Turney, T. D. Crawford, and C. D. Sherrill,
    J. Chem. Theory Comput. 13(7) pp 3185--3197 (2017).
    (doi: 10.1021/acs.jctc.7b00174)


                         Additional Contributions by
    P. Kraus, H. Kruse, M. H. Lechner, M. C. Schieber, R. A. Shaw,
    A. Alenaizan, R. Galvelis, Z. L. Glick, S. Lehtola, and J. P. Misiewicz

    -----------------------------------------------------------------------


    Psi4 started on: Tuesday, 19 April 2022 12:35AM

    Process ID: 25593
    Host:       atlantis
    PSIDATADIR: /home/akrom/software/anaconda3/envs/ffpenv/share/psi4
    Memory:     500.0 MiB
    Threads:    1
    
  ==> Input File <==

--------------------------------------------------------------------------
set basis  6-31+G*
molecule {
0 1
   O        0.00000        0.00000        0.49152
   C        0.00000        0.00000       -0.65516
}
energy('B3LYP')
frequencies('B3LYP')
--------------------------------------------------------------------------

*** tstart() called on atlantis
*** at Tue Apr 19 00:35:26 2022

   => Loading Basis Set <=

    Name: 6-31+G*
    Role: ORBITAL
    Keyword: BASIS
    atoms 1 entry O          line   157 file /home/akrom/software/anaconda3/envs/ffpenv/share/psi4/basis/6-31pgs.gbs 
    atoms 2 entry C          line   119 file /home/akrom/software/anaconda3/envs/ffpenv/share/psi4/basis/6-31pgs.gbs 


         ---------------------------------------------------------
                                   SCF
               by Justin Turney, Rob Parrish, Andy Simmonett
                          and Daniel G. A. Smith
                              RKS Reference
                        1 Threads,    500 MiB Core
         ---------------------------------------------------------

  ==> Geometry <==

    Molecular point group: c2v
    Full point group: C_inf_v

    Geometry (in Angstrom), charge = 0, multiplicity = 1:

       Center              X                  Y                   Z               Mass       
    ------------   -----------------  -----------------  -----------------  -----------------
         O            0.000000000000     0.000000000000     0.491523556581    15.994914619570
         C            0.000000000000     0.000000000000    -0.655156443419    12.000000000000

  Running in c2v symmetry.

  Rotational constants: A = ************  B =      1.86994  C =      1.86994 [cm^-1]
  Rotational constants: A = ************  B =  56059.43274  C =  56059.43274 [MHz]
  Nuclear repulsion =   22.151346593783796

  Charge       = 0
  Multiplicity = 1
  Electrons    = 14
  Nalpha       = 7
  Nbeta        = 7

  ==> Algorithm <==

  SCF Algorithm Type is DF.
  DIIS enabled.
  MOM disabled.
  Fractional occupation disabled.
  Guess Type is SAD.
  Energy threshold   = 1.00e-06
  Density threshold  = 1.00e-06
  Integral threshold = 0.00e+00

  ==> Primary Basis <==

  Basis Set: 6-31+G*
    Blend: 6-31+G*
    Number of shells: 16
    Number of basis function: 38
    Number of Cartesian functions: 38
    Spherical Harmonics?: false
    Max angular momentum: 2

  ==> DFT Potential <==

   => Composite Functional: B3LYP <= 

    B3LYP Hyb-GGA Exchange-Correlation Functional

    P. J. Stephens, F. J. Devlin, C. F. Chabalowski, and M. J. Frisch, J. Phys. Chem. 98, 11623 (1994)

    Deriv               =              1
    GGA                 =           TRUE
    Meta                =          FALSE

    Exchange Hybrid     =           TRUE
    MP2 Hybrid          =          FALSE

   => Exchange Functionals <=

    0.0800   Slater exchange
    0.7200         Becke 88

   => Exact (HF) Exchange <=

    0.2000               HF 

   => Correlation Functionals <=

    0.1900   Vosko, Wilk & Nusair (VWN5_RPA)
    0.8100   Lee, Yang & Parr

   => Molecular Quadrature <=

    Radial Scheme          =       TREUTLER
    Pruning Scheme         =           FLAT
    Nuclear Scheme         =       TREUTLER

    BS radius alpha        =              1
    Pruning alpha          =              1
    Radial Points          =             75
    Spherical Points       =            302
    Total Points           =          45300
    Total Blocks           =            420
    Max Points             =            256
    Max Functions          =             38

   => Loading Basis Set <=

    Name: (6-31+G* AUX)
    Role: JKFIT
    Keyword: DF_BASIS_SCF
    atoms 1 entry O          line   310 file /home/akrom/software/anaconda3/envs/ffpenv/share/psi4/basis/heavy-aug-cc-pvdz-jkfit.gbs 
    atoms 2 entry C          line   194 file /home/akrom/software/anaconda3/envs/ffpenv/share/psi4/basis/heavy-aug-cc-pvdz-jkfit.gbs 

  ==> Pre-Iterations <==

   -------------------------------------------------------
    Irrep   Nso     Nmo     Nalpha   Nbeta   Ndocc  Nsocc
   -------------------------------------------------------
     A1        20      20       0       0       0       0
     A2         2       2       0       0       0       0
     B1         8       8       0       0       0       0
     B2         8       8       0       0       0       0
   -------------------------------------------------------
    Total      38      38       7       7       7       0
   -------------------------------------------------------

  ==> Integral Setup <==

  DFHelper Memory: AOs need 0.003 GiB; user supplied 0.319 GiB. Using in-core AOs.

  ==> MemDFJK: Density-Fitted J/K Matrices <==

    J tasked:                   Yes
    K tasked:                   Yes
    wK tasked:                   No
    OpenMP threads:               1
    Memory [MiB]:               326
    Algorithm:                 Core
    Schwarz Cutoff:           1E-12
    Mask sparsity (%):       0.0000
    Fitting Condition:        1E-10

   => Auxiliary Basis Set <=

  Basis Set: (6-31+G* AUX)
    Blend: HEAVY-AUG-CC-PVDZ-JKFIT
    Number of shells: 56
    Number of basis function: 202
    Number of Cartesian functions: 202
    Spherical Harmonics?: false
    Max angular momentum: 3

  Cached 100.0% of DFT collocation blocks in 0.047 [GiB].

  Minimum eigenvalue in the overlap matrix is 5.3645347376E-03.
  Using Symmetric Orthogonalization.

  SCF Guess: Superposition of Atomic Densities via on-the-fly atomic UHF.

  ==> Iterations <==

                           Total Energy        Delta E     RMS |[F,P]|

   @DF-RKS iter SAD:  -112.76826381290535   -1.12768e+02   0.00000e+00 
   @DF-RKS iter   1:  -113.25127753167854   -4.83014e-01   1.80801e-02 DIIS
   @DF-RKS iter   2:  -113.08253694971768    1.68741e-01   3.44710e-02 DIIS
   @DF-RKS iter   3:  -113.30630792865799   -2.23771e-01   6.56353e-03 DIIS
   @DF-RKS iter   4:  -113.31705633870369   -1.07484e-02   3.11569e-04 DIIS
   @DF-RKS iter   5:  -113.31707808397807   -2.17453e-05   8.79812e-05 DIIS
   @DF-RKS iter   6:  -113.31707978485564   -1.70088e-06   1.10703e-05 DIIS
   @DF-RKS iter   7:  -113.31707981000864   -2.51530e-08   1.46332e-07 DIIS
  Energy and wave function converged.


  ==> Post-Iterations <==

    Orbital Energies [Eh]
    ---------------------

    Doubly Occupied:                                                      

       1A1   -19.275032     2A1   -10.324327     3A1    -1.168921  
       4A1    -0.584509     1B2    -0.479144     1B1    -0.479144  
       5A1    -0.388140  

    Virtual:                                                              

       2B2    -0.047302     2B1    -0.047302     6A1     0.028338  
       7A1     0.058826     3B2     0.071314     3B1     0.071314  
       8A1     0.179064     4B1     0.208469     4B2     0.208469  
       9A1     0.260592    10A1     0.418125     5B1     0.632358  
       5B2     0.632358    11A1     0.725756    12A1     1.031212  
       6B2     1.134850     6B1     1.134850    13A1     1.144566  
      14A1     1.468159     1A2     1.468159    15A1     1.472564  
       7B2     1.521145     7B1     1.521145    16A1     1.924100  
       2A2     1.924100    17A1     2.444645     8B1     2.588502  
       8B2     2.588502    18A1     3.014010    19A1     3.986518  
      20A1     4.146364  

    Final Occupation by Irrep:
             A1    A2    B1    B2 
    DOCC [     5,    0,    1,    1 ]

  @DF-RKS Final Energy:  -113.31707981000864

   => Energetics <=

    Nuclear Repulsion Energy =             22.1513465937837957
    One-Electron Energy =                -197.4845772073349508
    Two-Electron Energy =                  73.2129031430066277
    DFT Exchange-Correlation Energy =     -11.1967523394641013
    Empirical Dispersion Energy =           0.0000000000000000
    VV10 Nonlocal Energy =                  0.0000000000000000
    Total Energy =                       -113.3170798100086358

Computation Completed


Properties will be evaluated at   0.000000,   0.000000,   0.000000 [a0]

Properties computed using the SCF density matrix

  Nuclear Dipole Moment: [e a0]
     X:     0.0000      Y:     0.0000      Z:     0.0024

  Electronic Dipole Moment: [e a0]
     X:     0.0000      Y:     0.0000      Z:    -0.0055

  Dipole Moment: [e a0]
     X:     0.0000      Y:     0.0000      Z:    -0.0031     Total:     0.0031

  Dipole Moment: [D]
     X:     0.0000      Y:     0.0000      Z:    -0.0079     Total:     0.0079


*** tstop() called on atlantis at Tue Apr 19 00:35:27 2022
Module time:
	user time   =       0.80 seconds =       0.01 minutes
	system time =       0.02 seconds =       0.00 minutes
	total time  =          1 seconds =       0.02 minutes
Total time:
	user time   =       0.80 seconds =       0.01 minutes
	system time =       0.02 seconds =       0.00 minutes
	total time  =          1 seconds =       0.02 minutes
gradient() will perform analytic gradient computation.

*** tstart() called on atlantis
*** at Tue Apr 19 00:35:27 2022

   => Loading Basis Set <=

    Name: 6-31+G*
    Role: ORBITAL
    Keyword: BASIS
    atoms 1 entry O          line   157 file /home/akrom/software/anaconda3/envs/ffpenv/share/psi4/basis/6-31pgs.gbs 
    atoms 2 entry C          line   119 file /home/akrom/software/anaconda3/envs/ffpenv/share/psi4/basis/6-31pgs.gbs 


         ---------------------------------------------------------
                                   SCF
               by Justin Turney, Rob Parrish, Andy Simmonett
                          and Daniel G. A. Smith
                              RKS Reference
                        1 Threads,    500 MiB Core
         ---------------------------------------------------------

  ==> Geometry <==

    Molecular point group: c2v
    Full point group: C_inf_v

    Geometry (in Angstrom), charge = 0, multiplicity = 1:

       Center              X                  Y                   Z               Mass       
    ------------   -----------------  -----------------  -----------------  -----------------
         O            0.000000000000     0.000000000000     0.491523556581    15.994914619570
         C            0.000000000000     0.000000000000    -0.655156443419    12.000000000000

  Running in c2v symmetry.

  Rotational constants: A = ************  B =      1.86994  C =      1.86994 [cm^-1]
  Rotational constants: A = ************  B =  56059.43274  C =  56059.43274 [MHz]
  Nuclear repulsion =   22.151346593783796

  Charge       = 0
  Multiplicity = 1
  Electrons    = 14
  Nalpha       = 7
  Nbeta        = 7

  ==> Algorithm <==

  SCF Algorithm Type is DF.
  DIIS enabled.
  MOM disabled.
  Fractional occupation disabled.
  Guess Type is SAD.
  Energy threshold   = 1.00e-08
  Density threshold  = 1.00e-08
  Integral threshold = 0.00e+00

  ==> Primary Basis <==

  Basis Set: 6-31+G*
    Blend: 6-31+G*
    Number of shells: 16
    Number of basis function: 38
    Number of Cartesian functions: 38
    Spherical Harmonics?: false
    Max angular momentum: 2

  ==> DFT Potential <==

   => Composite Functional: B3LYP <= 

    B3LYP Hyb-GGA Exchange-Correlation Functional

    P. J. Stephens, F. J. Devlin, C. F. Chabalowski, and M. J. Frisch, J. Phys. Chem. 98, 11623 (1994)

    Deriv               =              1
    GGA                 =           TRUE
    Meta                =          FALSE

    Exchange Hybrid     =           TRUE
    MP2 Hybrid          =          FALSE

   => Exchange Functionals <=

    0.0800   Slater exchange
    0.7200         Becke 88

   => Exact (HF) Exchange <=

    0.2000               HF 

   => Correlation Functionals <=

    0.1900   Vosko, Wilk & Nusair (VWN5_RPA)
    0.8100   Lee, Yang & Parr

   => Molecular Quadrature <=

    Radial Scheme          =       TREUTLER
    Pruning Scheme         =           FLAT
    Nuclear Scheme         =       TREUTLER

    BS radius alpha        =              1
    Pruning alpha          =              1
    Radial Points          =             75
    Spherical Points       =            302
    Total Points           =          45300
    Total Blocks           =            420
    Max Points             =            256
    Max Functions          =             38

   => Loading Basis Set <=

    Name: (6-31+G* AUX)
    Role: JKFIT
    Keyword: DF_BASIS_SCF
    atoms 1 entry O          line   310 file /home/akrom/software/anaconda3/envs/ffpenv/share/psi4/basis/heavy-aug-cc-pvdz-jkfit.gbs 
    atoms 2 entry C          line   194 file /home/akrom/software/anaconda3/envs/ffpenv/share/psi4/basis/heavy-aug-cc-pvdz-jkfit.gbs 

  ==> Pre-Iterations <==

   -------------------------------------------------------
    Irrep   Nso     Nmo     Nalpha   Nbeta   Ndocc  Nsocc
   -------------------------------------------------------
     A1        20      20       0       0       0       0
     A2         2       2       0       0       0       0
     B1         8       8       0       0       0       0
     B2         8       8       0       0       0       0
   -------------------------------------------------------
    Total      38      38       7       7       7       0
   -------------------------------------------------------

  ==> Integral Setup <==

  DFHelper Memory: AOs need 0.003 GiB; user supplied 0.319 GiB. Using in-core AOs.

  ==> MemDFJK: Density-Fitted J/K Matrices <==

    J tasked:                   Yes
    K tasked:                   Yes
    wK tasked:                   No
    OpenMP threads:               1
    Memory [MiB]:               326
    Algorithm:                 Core
    Schwarz Cutoff:           1E-12
    Mask sparsity (%):       0.0000
    Fitting Condition:        1E-10

   => Auxiliary Basis Set <=

  Basis Set: (6-31+G* AUX)
    Blend: HEAVY-AUG-CC-PVDZ-JKFIT
    Number of shells: 56
    Number of basis function: 202
    Number of Cartesian functions: 202
    Spherical Harmonics?: false
    Max angular momentum: 3

  Cached 100.0% of DFT collocation blocks in 0.047 [GiB].

  Minimum eigenvalue in the overlap matrix is 5.3645347376E-03.
  Using Symmetric Orthogonalization.

  SCF Guess: Superposition of Atomic Densities via on-the-fly atomic UHF.

  ==> Iterations <==

                           Total Energy        Delta E     RMS |[F,P]|

   @DF-RKS iter SAD:  -112.76826381290535   -1.12768e+02   0.00000e+00 
   @DF-RKS iter   1:  -113.25127753167854   -4.83014e-01   1.80801e-02 DIIS
   @DF-RKS iter   2:  -113.08253694971768    1.68741e-01   3.44710e-02 DIIS
   @DF-RKS iter   3:  -113.30630792865799   -2.23771e-01   6.56353e-03 DIIS
   @DF-RKS iter   4:  -113.31705633870369   -1.07484e-02   3.11569e-04 DIIS
   @DF-RKS iter   5:  -113.31707808397807   -2.17453e-05   8.79812e-05 DIIS
   @DF-RKS iter   6:  -113.31707978485564   -1.70088e-06   1.10703e-05 DIIS
   @DF-RKS iter   7:  -113.31707981000864   -2.51530e-08   1.46332e-07 DIIS
   @DF-RKS iter   8:  -113.31707981001367   -5.03064e-12   1.27126e-08 DIIS
   @DF-RKS iter   9:  -113.31707981001361    5.68434e-14   1.84310e-09 DIIS
  Energy and wave function converged.


  ==> Post-Iterations <==

    Orbital Energies [Eh]
    ---------------------

    Doubly Occupied:                                                      

       1A1   -19.275033     2A1   -10.324327     3A1    -1.168921  
       4A1    -0.584509     1B2    -0.479144     1B1    -0.479144  
       5A1    -0.388140  

    Virtual:                                                              

       2B2    -0.047302     2B1    -0.047302     6A1     0.028338  
       7A1     0.058826     3B2     0.071314     3B1     0.071314  
       8A1     0.179064     4B1     0.208469     4B2     0.208469  
       9A1     0.260592    10A1     0.418125     5B1     0.632358  
       5B2     0.632358    11A1     0.725756    12A1     1.031212  
       6B2     1.134850     6B1     1.134850    13A1     1.144566  
      14A1     1.468159     1A2     1.468159    15A1     1.472564  
       7B2     1.521145     7B1     1.521145    16A1     1.924100  
       2A2     1.924100    17A1     2.444645     8B1     2.588502  
       8B2     2.588502    18A1     3.014011    19A1     3.986518  
      20A1     4.146364  

    Final Occupation by Irrep:
             A1    A2    B1    B2 
    DOCC [     5,    0,    1,    1 ]

  @DF-RKS Final Energy:  -113.31707981001361

   => Energetics <=

    Nuclear Repulsion Energy =             22.1513465937837957
    One-Electron Energy =                -197.4845836690921601
    Two-Electron Energy =                  73.2129104269269533
    DFT Exchange-Correlation Energy =     -11.1967531616321878
    Empirical Dispersion Energy =           0.0000000000000000
    VV10 Nonlocal Energy =                  0.0000000000000000
    Total Energy =                       -113.3170798100136096

Computation Completed


Properties will be evaluated at   0.000000,   0.000000,   0.000000 [a0]

Properties computed using the SCF density matrix

  Nuclear Dipole Moment: [e a0]
     X:     0.0000      Y:     0.0000      Z:     0.0024

  Electronic Dipole Moment: [e a0]
     X:     0.0000      Y:     0.0000      Z:    -0.0055

  Dipole Moment: [e a0]
     X:     0.0000      Y:     0.0000      Z:    -0.0031     Total:     0.0031

  Dipole Moment: [D]
     X:     0.0000      Y:     0.0000      Z:    -0.0079     Total:     0.0079


*** tstop() called on atlantis at Tue Apr 19 00:35:28 2022
Module time:
	user time   =       0.92 seconds =       0.02 minutes
	system time =       0.02 seconds =       0.00 minutes
	total time  =          1 seconds =       0.02 minutes
Total time:
	user time   =       1.73 seconds =       0.03 minutes
	system time =       0.04 seconds =       0.00 minutes
	total time  =          2 seconds =       0.03 minutes

*** tstart() called on atlantis
*** at Tue Apr 19 00:35:28 2022


         ------------------------------------------------------------
                                   SCF GRAD                          
                          Rob Parrish, Justin Turney,                
                       Andy Simmonett, and Alex Sokolov              
         ------------------------------------------------------------

  ==> Geometry <==

    Molecular point group: c2v
    Full point group: C_inf_v

    Geometry (in Angstrom), charge = 0, multiplicity = 1:

       Center              X                  Y                   Z               Mass       
    ------------   -----------------  -----------------  -----------------  -----------------
         O            0.000000000000     0.000000000000     0.491523556581    15.994914619570
         C            0.000000000000     0.000000000000    -0.655156443419    12.000000000000

  Nuclear repulsion =   22.151346593783796

  ==> Basis Set <==

  Basis Set: 6-31+G*
    Blend: 6-31+G*
    Number of shells: 16
    Number of basis function: 38
    Number of Cartesian functions: 38
    Spherical Harmonics?: false
    Max angular momentum: 2

  ==> DFJKGrad: Density-Fitted SCF Gradients <==

    Gradient:                    1
    J tasked:                  Yes
    K tasked:                  Yes
    wK tasked:                  No
    OpenMP threads:              1
    Integrals threads:           1
    Memory [MiB]:              375
    Schwarz Cutoff:          0E+00
    Fitting Condition:       1E-10

   => Auxiliary Basis Set <=

  Basis Set: (6-31+G* AUX)
    Blend: HEAVY-AUG-CC-PVDZ-JKFIT
    Number of shells: 56
    Number of basis function: 202
    Number of Cartesian functions: 202
    Spherical Harmonics?: false
    Max angular momentum: 3

  ==> DFT Potential <==

   => Composite Functional: B3LYP <= 

    B3LYP Hyb-GGA Exchange-Correlation Functional

    P. J. Stephens, F. J. Devlin, C. F. Chabalowski, and M. J. Frisch, J. Phys. Chem. 98, 11623 (1994)

    Deriv               =              1
    GGA                 =           TRUE
    Meta                =          FALSE

    Exchange Hybrid     =           TRUE
    MP2 Hybrid          =          FALSE

   => Exchange Functionals <=

    0.0800   Slater exchange
    0.7200         Becke 88

   => Exact (HF) Exchange <=

    0.2000               HF 

   => Correlation Functionals <=

    0.1900   Vosko, Wilk & Nusair (VWN5_RPA)
    0.8100   Lee, Yang & Parr

   => Molecular Quadrature <=

    Radial Scheme          =       TREUTLER
    Pruning Scheme         =           FLAT
    Nuclear Scheme         =       TREUTLER

    BS radius alpha        =              1
    Pruning alpha          =              1
    Radial Points          =             75
    Spherical Points       =            302
    Total Points           =          45300
    Total Blocks           =            420
    Max Points             =            256
    Max Functions          =             38


  -Total Gradient:
     Atom            X                  Y                   Z
    ------   -----------------  -----------------  -----------------
       1        0.000000000000     0.000000000000     0.021649178336
       2        0.000000000000    -0.000000000000    -0.021652920996


*** tstop() called on atlantis at Tue Apr 19 00:35:28 2022
Module time:
	user time   =       0.21 seconds =       0.00 minutes
	system time =       0.00 seconds =       0.00 minutes
	total time  =          0 seconds =       0.00 minutes
Total time:
	user time   =       1.94 seconds =       0.03 minutes
	system time =       0.04 seconds =       0.00 minutes
	total time  =          2 seconds =       0.03 minutes

  Based on options and gradient (rms=1.25E-02), recommend projecting translations and not projecting rotations.
hessian() will perform frequency computation by finite difference of analytic gradients.

         ----------------------------------------------------------
                                   FINDIF
                     R. A. King and Jonathon Misiewicz
         ---------------------------------------------------------

  Using finite-differences of gradients to determine vibrational frequencies and 
  normal modes.  Resulting frequencies are only valid at stationary points.
    Generating geometries for use with 3-point formula.
    Displacement size will be 5.00e-03.
    Number of atoms is 2.
    Number of irreps is 4.
    Number of SALCs is 3.
    Translations projected? 1. Rotations projected? 0.
    Index of SALCs per irrep:
     1 :  0 
     2 : 
     3 :  1 
     4 :  2 
    Number of SALCs per irrep:
     Irrep 1: 1
     Irrep 2: 0
     Irrep 3: 1
     Irrep 4: 1
    Number of geometries (including reference) is 5.
    Number of displacements per irrep:
      Irrep 1: 2
      Irrep 2: 0
      Irrep 3: 1
      Irrep 4: 1

  //>>>>>>>>>>>>>>>>>>>>>>>>>>>>>>>>>>>//
  //    Loading displacement 1 of 5    //
  //<<<<<<<<<<<<<<<<<<<<<<<<<<<<<<<<<<<//
gradient() will perform analytic gradient computation.

*** tstart() called on atlantis
*** at Tue Apr 19 00:35:28 2022

   => Loading Basis Set <=

    Name: 6-31+G*
    Role: ORBITAL
    Keyword: BASIS
    atoms 1 entry O          line   157 file /home/akrom/software/anaconda3/envs/ffpenv/share/psi4/basis/6-31pgs.gbs 
    atoms 2 entry C          line   119 file /home/akrom/software/anaconda3/envs/ffpenv/share/psi4/basis/6-31pgs.gbs 


         ---------------------------------------------------------
                                   SCF
               by Justin Turney, Rob Parrish, Andy Simmonett
                          and Daniel G. A. Smith
                              RKS Reference
                        1 Threads,    500 MiB Core
         ---------------------------------------------------------

  ==> Geometry <==

    Molecular point group: c2v
    Full point group: C_inf_v

    Geometry (in Angstrom), charge = 0, multiplicity = 1:

       Center              X                  Y                   Z               Mass       
    ------------   -----------------  -----------------  -----------------  -----------------
         O            0.000000000000     0.000000000000     0.491523556581    15.994914619570
         C            0.000000000000     0.000000000000    -0.655156443419    12.000000000000

  Running in c2v symmetry.

  Rotational constants: A = ************  B =      1.86994  C =      1.86994 [cm^-1]
  Rotational constants: A = ************  B =  56059.43274  C =  56059.43274 [MHz]
  Nuclear repulsion =   22.151346593783796

  Charge       = 0
  Multiplicity = 1
  Electrons    = 14
  Nalpha       = 7
  Nbeta        = 7

  ==> Algorithm <==

  SCF Algorithm Type is DF.
  DIIS enabled.
  MOM disabled.
  Fractional occupation disabled.
  Guess Type is SAD.
  Energy threshold   = 1.00e-08
  Density threshold  = 1.00e-08
  Integral threshold = 0.00e+00

  ==> Primary Basis <==

  Basis Set: 6-31+G*
    Blend: 6-31+G*
    Number of shells: 16
    Number of basis function: 38
    Number of Cartesian functions: 38
    Spherical Harmonics?: false
    Max angular momentum: 2

  ==> DFT Potential <==

   => Composite Functional: B3LYP <= 

    B3LYP Hyb-GGA Exchange-Correlation Functional

    P. J. Stephens, F. J. Devlin, C. F. Chabalowski, and M. J. Frisch, J. Phys. Chem. 98, 11623 (1994)

    Deriv               =              1
    GGA                 =           TRUE
    Meta                =          FALSE

    Exchange Hybrid     =           TRUE
    MP2 Hybrid          =          FALSE

   => Exchange Functionals <=

    0.0800   Slater exchange
    0.7200         Becke 88

   => Exact (HF) Exchange <=

    0.2000               HF 

   => Correlation Functionals <=

    0.1900   Vosko, Wilk & Nusair (VWN5_RPA)
    0.8100   Lee, Yang & Parr

   => Molecular Quadrature <=

    Radial Scheme          =       TREUTLER
    Pruning Scheme         =           FLAT
    Nuclear Scheme         =       TREUTLER

    BS radius alpha        =              1
    Pruning alpha          =              1
    Radial Points          =             75
    Spherical Points       =            302
    Total Points           =          45300
    Total Blocks           =            420
    Max Points             =            256
    Max Functions          =             38

   => Loading Basis Set <=

    Name: (6-31+G* AUX)
    Role: JKFIT
    Keyword: DF_BASIS_SCF
    atoms 1 entry O          line   310 file /home/akrom/software/anaconda3/envs/ffpenv/share/psi4/basis/heavy-aug-cc-pvdz-jkfit.gbs 
    atoms 2 entry C          line   194 file /home/akrom/software/anaconda3/envs/ffpenv/share/psi4/basis/heavy-aug-cc-pvdz-jkfit.gbs 

  ==> Pre-Iterations <==

   -------------------------------------------------------
    Irrep   Nso     Nmo     Nalpha   Nbeta   Ndocc  Nsocc
   -------------------------------------------------------
     A1        20      20       0       0       0       0
     A2         2       2       0       0       0       0
     B1         8       8       0       0       0       0
     B2         8       8       0       0       0       0
   -------------------------------------------------------
    Total      38      38       7       7       7       0
   -------------------------------------------------------

  ==> Integral Setup <==

  DFHelper Memory: AOs need 0.003 GiB; user supplied 0.319 GiB. Using in-core AOs.

  ==> MemDFJK: Density-Fitted J/K Matrices <==

    J tasked:                   Yes
    K tasked:                   Yes
    wK tasked:                   No
    OpenMP threads:               1
    Memory [MiB]:               326
    Algorithm:                 Core
    Schwarz Cutoff:           1E-12
    Mask sparsity (%):       0.0000
    Fitting Condition:        1E-10

   => Auxiliary Basis Set <=

  Basis Set: (6-31+G* AUX)
    Blend: HEAVY-AUG-CC-PVDZ-JKFIT
    Number of shells: 56
    Number of basis function: 202
    Number of Cartesian functions: 202
    Spherical Harmonics?: false
    Max angular momentum: 3

  Cached 100.0% of DFT collocation blocks in 0.047 [GiB].

  Minimum eigenvalue in the overlap matrix is 5.3645347376E-03.
  Using Symmetric Orthogonalization.

  SCF Guess: Superposition of Atomic Densities via on-the-fly atomic UHF.

  ==> Iterations <==

                           Total Energy        Delta E     RMS |[F,P]|

   @DF-RKS iter SAD:  -112.76826381290535   -1.12768e+02   0.00000e+00 
   @DF-RKS iter   1:  -113.25127753167854   -4.83014e-01   1.80801e-02 DIIS
   @DF-RKS iter   2:  -113.08253694971768    1.68741e-01   3.44710e-02 DIIS
   @DF-RKS iter   3:  -113.30630792865799   -2.23771e-01   6.56353e-03 DIIS
   @DF-RKS iter   4:  -113.31705633870369   -1.07484e-02   3.11569e-04 DIIS
   @DF-RKS iter   5:  -113.31707808397807   -2.17453e-05   8.79812e-05 DIIS
   @DF-RKS iter   6:  -113.31707978485564   -1.70088e-06   1.10703e-05 DIIS
   @DF-RKS iter   7:  -113.31707981000864   -2.51530e-08   1.46332e-07 DIIS
   @DF-RKS iter   8:  -113.31707981001367   -5.03064e-12   1.27126e-08 DIIS
   @DF-RKS iter   9:  -113.31707981001361    5.68434e-14   1.84310e-09 DIIS
  Energy and wave function converged.


  ==> Post-Iterations <==

    Orbital Energies [Eh]
    ---------------------

    Doubly Occupied:                                                      

       1A1   -19.275033     2A1   -10.324327     3A1    -1.168921  
       4A1    -0.584509     1B2    -0.479144     1B1    -0.479144  
       5A1    -0.388140  

    Virtual:                                                              

       2B2    -0.047302     2B1    -0.047302     6A1     0.028338  
       7A1     0.058826     3B2     0.071314     3B1     0.071314  
       8A1     0.179064     4B1     0.208469     4B2     0.208469  
       9A1     0.260592    10A1     0.418125     5B1     0.632358  
       5B2     0.632358    11A1     0.725756    12A1     1.031212  
       6B2     1.134850     6B1     1.134850    13A1     1.144566  
      14A1     1.468159     1A2     1.468159    15A1     1.472564  
       7B2     1.521145     7B1     1.521145    16A1     1.924100  
       2A2     1.924100    17A1     2.444645     8B1     2.588502  
       8B2     2.588502    18A1     3.014011    19A1     3.986518  
      20A1     4.146364  

    Final Occupation by Irrep:
             A1    A2    B1    B2 
    DOCC [     5,    0,    1,    1 ]

  @DF-RKS Final Energy:  -113.31707981001361

   => Energetics <=

    Nuclear Repulsion Energy =             22.1513465937837957
    One-Electron Energy =                -197.4845836690921601
    Two-Electron Energy =                  73.2129104269269533
    DFT Exchange-Correlation Energy =     -11.1967531616321878
    Empirical Dispersion Energy =           0.0000000000000000
    VV10 Nonlocal Energy =                  0.0000000000000000
    Total Energy =                       -113.3170798100136096

Computation Completed


Properties will be evaluated at   0.000000,   0.000000,   0.000000 [a0]

Properties computed using the SCF density matrix

  Nuclear Dipole Moment: [e a0]
     X:     0.0000      Y:     0.0000      Z:     0.0024

  Electronic Dipole Moment: [e a0]
     X:     0.0000      Y:     0.0000      Z:    -0.0055

  Dipole Moment: [e a0]
     X:     0.0000      Y:     0.0000      Z:    -0.0031     Total:     0.0031

  Dipole Moment: [D]
     X:     0.0000      Y:     0.0000      Z:    -0.0079     Total:     0.0079


*** tstop() called on atlantis at Tue Apr 19 00:35:29 2022
Module time:
	user time   =       0.92 seconds =       0.02 minutes
	system time =       0.02 seconds =       0.00 minutes
	total time  =          1 seconds =       0.02 minutes
Total time:
	user time   =       3.12 seconds =       0.05 minutes
	system time =       0.07 seconds =       0.00 minutes
	total time  =          3 seconds =       0.05 minutes

*** tstart() called on atlantis
*** at Tue Apr 19 00:35:29 2022


         ------------------------------------------------------------
                                   SCF GRAD                          
                          Rob Parrish, Justin Turney,                
                       Andy Simmonett, and Alex Sokolov              
         ------------------------------------------------------------

  ==> Geometry <==

    Molecular point group: c2v
    Full point group: C_inf_v

    Geometry (in Angstrom), charge = 0, multiplicity = 1:

       Center              X                  Y                   Z               Mass       
    ------------   -----------------  -----------------  -----------------  -----------------
         O            0.000000000000     0.000000000000     0.491523556581    15.994914619570
         C            0.000000000000     0.000000000000    -0.655156443419    12.000000000000

  Nuclear repulsion =   22.151346593783796

  ==> Basis Set <==

  Basis Set: 6-31+G*
    Blend: 6-31+G*
    Number of shells: 16
    Number of basis function: 38
    Number of Cartesian functions: 38
    Spherical Harmonics?: false
    Max angular momentum: 2

  ==> DFJKGrad: Density-Fitted SCF Gradients <==

    Gradient:                    1
    J tasked:                  Yes
    K tasked:                  Yes
    wK tasked:                  No
    OpenMP threads:              1
    Integrals threads:           1
    Memory [MiB]:              375
    Schwarz Cutoff:          0E+00
    Fitting Condition:       1E-10

   => Auxiliary Basis Set <=

  Basis Set: (6-31+G* AUX)
    Blend: HEAVY-AUG-CC-PVDZ-JKFIT
    Number of shells: 56
    Number of basis function: 202
    Number of Cartesian functions: 202
    Spherical Harmonics?: false
    Max angular momentum: 3

  ==> DFT Potential <==

   => Composite Functional: B3LYP <= 

    B3LYP Hyb-GGA Exchange-Correlation Functional

    P. J. Stephens, F. J. Devlin, C. F. Chabalowski, and M. J. Frisch, J. Phys. Chem. 98, 11623 (1994)

    Deriv               =              1
    GGA                 =           TRUE
    Meta                =          FALSE

    Exchange Hybrid     =           TRUE
    MP2 Hybrid          =          FALSE

   => Exchange Functionals <=

    0.0800   Slater exchange
    0.7200         Becke 88

   => Exact (HF) Exchange <=

    0.2000               HF 

   => Correlation Functionals <=

    0.1900   Vosko, Wilk & Nusair (VWN5_RPA)
    0.8100   Lee, Yang & Parr

   => Molecular Quadrature <=

    Radial Scheme          =       TREUTLER
    Pruning Scheme         =           FLAT
    Nuclear Scheme         =       TREUTLER

    BS radius alpha        =              1
    Pruning alpha          =              1
    Radial Points          =             75
    Spherical Points       =            302
    Total Points           =          45300
    Total Blocks           =            420
    Max Points             =            256
    Max Functions          =             38


  -Total Gradient:
     Atom            X                  Y                   Z
    ------   -----------------  -----------------  -----------------
       1        0.000000000000     0.000000000000     0.021649178336
       2        0.000000000000    -0.000000000000    -0.021652920996


*** tstop() called on atlantis at Tue Apr 19 00:35:29 2022
Module time:
	user time   =       0.20 seconds =       0.00 minutes
	system time =       0.00 seconds =       0.00 minutes
	total time  =          0 seconds =       0.00 minutes
Total time:
	user time   =       3.32 seconds =       0.06 minutes
	system time =       0.07 seconds =       0.00 minutes
	total time  =          3 seconds =       0.05 minutes

  //>>>>>>>>>>>>>>>>>>>>>>>>>>>>>>>>>>>//
  //    Loading displacement 2 of 5    //
  //<<<<<<<<<<<<<<<<<<<<<<<<<<<<<<<<<<<//
gradient() will perform analytic gradient computation.

*** tstart() called on atlantis
*** at Tue Apr 19 00:35:29 2022

   => Loading Basis Set <=

    Name: 6-31+G*
    Role: ORBITAL
    Keyword: BASIS
    atoms 1 entry O          line   157 file /home/akrom/software/anaconda3/envs/ffpenv/share/psi4/basis/6-31pgs.gbs 
    atoms 2 entry C          line   119 file /home/akrom/software/anaconda3/envs/ffpenv/share/psi4/basis/6-31pgs.gbs 


         ---------------------------------------------------------
                                   SCF
               by Justin Turney, Rob Parrish, Andy Simmonett
                          and Daniel G. A. Smith
                              RKS Reference
                        1 Threads,    500 MiB Core
         ---------------------------------------------------------

  ==> Geometry <==

    Molecular point group: c2v
    Full point group: C_inf_v

    Geometry (in Angstrom), charge = 0, multiplicity = 1:

       Center              X                  Y                   Z               Mass       
    ------------   -----------------  -----------------  -----------------  -----------------
         O            0.000000000000     0.000000000000     0.491090413658    15.994914619570
         C            0.000000000000     0.000000000000    -0.654579103079    12.000000000000

  Running in c2v symmetry.

  Rotational constants: A = ************  B =      1.87324  C =      1.87324 [cm^-1]
  Rotational constants: A = ************  B =  56158.36546  C =  56158.36546 [MHz]
  Nuclear repulsion =   22.170884134640527

  Charge       = 0
  Multiplicity = 1
  Electrons    = 14
  Nalpha       = 7
  Nbeta        = 7

  ==> Algorithm <==

  SCF Algorithm Type is DF.
  DIIS enabled.
  MOM disabled.
  Fractional occupation disabled.
  Guess Type is SAD.
  Energy threshold   = 1.00e-08
  Density threshold  = 1.00e-08
  Integral threshold = 0.00e+00

  ==> Primary Basis <==

  Basis Set: 6-31+G*
    Blend: 6-31+G*
    Number of shells: 16
    Number of basis function: 38
    Number of Cartesian functions: 38
    Spherical Harmonics?: false
    Max angular momentum: 2

  ==> DFT Potential <==

   => Composite Functional: B3LYP <= 

    B3LYP Hyb-GGA Exchange-Correlation Functional

    P. J. Stephens, F. J. Devlin, C. F. Chabalowski, and M. J. Frisch, J. Phys. Chem. 98, 11623 (1994)

    Deriv               =              1
    GGA                 =           TRUE
    Meta                =          FALSE

    Exchange Hybrid     =           TRUE
    MP2 Hybrid          =          FALSE

   => Exchange Functionals <=

    0.0800   Slater exchange
    0.7200         Becke 88

   => Exact (HF) Exchange <=

    0.2000               HF 

   => Correlation Functionals <=

    0.1900   Vosko, Wilk & Nusair (VWN5_RPA)
    0.8100   Lee, Yang & Parr

   => Molecular Quadrature <=

    Radial Scheme          =       TREUTLER
    Pruning Scheme         =           FLAT
    Nuclear Scheme         =       TREUTLER

    BS radius alpha        =              1
    Pruning alpha          =              1
    Radial Points          =             75
    Spherical Points       =            302
    Total Points           =          45300
    Total Blocks           =            421
    Max Points             =            256
    Max Functions          =             38

   => Loading Basis Set <=

    Name: (6-31+G* AUX)
    Role: JKFIT
    Keyword: DF_BASIS_SCF
    atoms 1 entry O          line   310 file /home/akrom/software/anaconda3/envs/ffpenv/share/psi4/basis/heavy-aug-cc-pvdz-jkfit.gbs 
    atoms 2 entry C          line   194 file /home/akrom/software/anaconda3/envs/ffpenv/share/psi4/basis/heavy-aug-cc-pvdz-jkfit.gbs 

  ==> Pre-Iterations <==

   -------------------------------------------------------
    Irrep   Nso     Nmo     Nalpha   Nbeta   Ndocc  Nsocc
   -------------------------------------------------------
     A1        20      20       0       0       0       0
     A2         2       2       0       0       0       0
     B1         8       8       0       0       0       0
     B2         8       8       0       0       0       0
   -------------------------------------------------------
    Total      38      38       7       7       7       0
   -------------------------------------------------------

  ==> Integral Setup <==

  DFHelper Memory: AOs need 0.003 GiB; user supplied 0.319 GiB. Using in-core AOs.

  ==> MemDFJK: Density-Fitted J/K Matrices <==

    J tasked:                   Yes
    K tasked:                   Yes
    wK tasked:                   No
    OpenMP threads:               1
    Memory [MiB]:               326
    Algorithm:                 Core
    Schwarz Cutoff:           1E-12
    Mask sparsity (%):       0.0000
    Fitting Condition:        1E-10

   => Auxiliary Basis Set <=

  Basis Set: (6-31+G* AUX)
    Blend: HEAVY-AUG-CC-PVDZ-JKFIT
    Number of shells: 56
    Number of basis function: 202
    Number of Cartesian functions: 202
    Spherical Harmonics?: false
    Max angular momentum: 3

  Cached 100.0% of DFT collocation blocks in 0.047 [GiB].

  Minimum eigenvalue in the overlap matrix is 5.3486879286E-03.
  Using Symmetric Orthogonalization.

  SCF Guess: Superposition of Atomic Densities via on-the-fly atomic UHF.

  ==> Iterations <==

                           Total Energy        Delta E     RMS |[F,P]|

   @DF-RKS iter SAD:  -112.76970690775177   -1.12770e+02   0.00000e+00 
   @DF-RKS iter   1:  -113.25128770009036   -4.81581e-01   1.80810e-02 DIIS
   @DF-RKS iter   2:  -113.08417272192835    1.67115e-01   3.43614e-02 DIIS
   @DF-RKS iter   3:  -113.30634439182657   -2.22172e-01   6.56799e-03 DIIS
   @DF-RKS iter   4:  -113.31709580784286   -1.07514e-02   3.09699e-04 DIIS
   @DF-RKS iter   5:  -113.31711730541964   -2.14976e-05   8.75354e-05 DIIS
   @DF-RKS iter   6:  -113.31711898902824   -1.68361e-06   1.09950e-05 DIIS
   @DF-RKS iter   7:  -113.31711901382739   -2.47991e-08   1.45709e-07 DIIS
   @DF-RKS iter   8:  -113.31711901383220   -4.80327e-12   1.26013e-08 DIIS
   @DF-RKS iter   9:  -113.31711901383224   -4.26326e-14   1.84808e-09 DIIS
  Energy and wave function converged.


  ==> Post-Iterations <==

    Orbital Energies [Eh]
    ---------------------

    Doubly Occupied:                                                      

       1A1   -19.275007     2A1   -10.324013     3A1    -1.169489  
       4A1    -0.584507     1B2    -0.479480     1B1    -0.479480  
       5A1    -0.388047  

    Virtual:                                                              

       2B2    -0.046948     2B1    -0.046948     6A1     0.028338  
       7A1     0.058863     3B2     0.071346     3B1     0.071346  
       8A1     0.179086     4B2     0.208484     4B1     0.208484  
       9A1     0.260609    10A1     0.418601     5B2     0.632414  
       5B1     0.632414    11A1     0.726747    12A1     1.031457  
       6B1     1.134821     6B2     1.134821    13A1     1.144844  
      14A1     1.467816     1A2     1.467817    15A1     1.472793  
       7B2     1.521856     7B1     1.521856    16A1     1.924640  
       2A2     1.924640    17A1     2.446585     8B1     2.589621  
       8B2     2.589621    18A1     3.015900    19A1     3.987095  
      20A1     4.146643  

    Final Occupation by Irrep:
             A1    A2    B1    B2 
    DOCC [     5,    0,    1,    1 ]

  @DF-RKS Final Energy:  -113.31711901383224

   => Energetics <=

    Nuclear Repulsion Energy =             22.1708841346405272
    One-Electron Energy =                -197.5215759004916549
    Two-Electron Energy =                  73.2311342431769674
    DFT Exchange-Correlation Energy =     -11.1975614911580745
    Empirical Dispersion Energy =           0.0000000000000000
    VV10 Nonlocal Energy =                  0.0000000000000000
    Total Energy =                       -113.3171190138322402

Computation Completed


Properties will be evaluated at   0.000000,   0.000000,   0.000000 [a0]

Properties computed using the SCF density matrix

  Nuclear Dipole Moment: [e a0]
     X:     0.0000      Y:     0.0000      Z:     0.0024

  Electronic Dipole Moment: [e a0]
     X:     0.0000      Y:     0.0000      Z:    -0.0040

  Dipole Moment: [e a0]
     X:     0.0000      Y:     0.0000      Z:    -0.0016     Total:     0.0016

  Dipole Moment: [D]
     X:     0.0000      Y:     0.0000      Z:    -0.0041     Total:     0.0041


*** tstop() called on atlantis at Tue Apr 19 00:35:30 2022
Module time:
	user time   =       0.91 seconds =       0.02 minutes
	system time =       0.01 seconds =       0.00 minutes
	total time  =          1 seconds =       0.02 minutes
Total time:
	user time   =       4.24 seconds =       0.07 minutes
	system time =       0.08 seconds =       0.00 minutes
	total time  =          4 seconds =       0.07 minutes

*** tstart() called on atlantis
*** at Tue Apr 19 00:35:30 2022


         ------------------------------------------------------------
                                   SCF GRAD                          
                          Rob Parrish, Justin Turney,                
                       Andy Simmonett, and Alex Sokolov              
         ------------------------------------------------------------

  ==> Geometry <==

    Molecular point group: c2v
    Full point group: C_inf_v

    Geometry (in Angstrom), charge = 0, multiplicity = 1:

       Center              X                  Y                   Z               Mass       
    ------------   -----------------  -----------------  -----------------  -----------------
         O            0.000000000000     0.000000000000     0.491090413658    15.994914619570
         C            0.000000000000     0.000000000000    -0.654579103079    12.000000000000

  Nuclear repulsion =   22.170884134640527

  ==> Basis Set <==

  Basis Set: 6-31+G*
    Blend: 6-31+G*
    Number of shells: 16
    Number of basis function: 38
    Number of Cartesian functions: 38
    Spherical Harmonics?: false
    Max angular momentum: 2

  ==> DFJKGrad: Density-Fitted SCF Gradients <==

    Gradient:                    1
    J tasked:                  Yes
    K tasked:                  Yes
    wK tasked:                  No
    OpenMP threads:              1
    Integrals threads:           1
    Memory [MiB]:              375
    Schwarz Cutoff:          0E+00
    Fitting Condition:       1E-10

   => Auxiliary Basis Set <=

  Basis Set: (6-31+G* AUX)
    Blend: HEAVY-AUG-CC-PVDZ-JKFIT
    Number of shells: 56
    Number of basis function: 202
    Number of Cartesian functions: 202
    Spherical Harmonics?: false
    Max angular momentum: 3

  ==> DFT Potential <==

   => Composite Functional: B3LYP <= 

    B3LYP Hyb-GGA Exchange-Correlation Functional

    P. J. Stephens, F. J. Devlin, C. F. Chabalowski, and M. J. Frisch, J. Phys. Chem. 98, 11623 (1994)

    Deriv               =              1
    GGA                 =           TRUE
    Meta                =          FALSE

    Exchange Hybrid     =           TRUE
    MP2 Hybrid          =          FALSE

   => Exchange Functionals <=

    0.0800   Slater exchange
    0.7200         Becke 88

   => Exact (HF) Exchange <=

    0.2000               HF 

   => Correlation Functionals <=

    0.1900   Vosko, Wilk & Nusair (VWN5_RPA)
    0.8100   Lee, Yang & Parr

   => Molecular Quadrature <=

    Radial Scheme          =       TREUTLER
    Pruning Scheme         =           FLAT
    Nuclear Scheme         =       TREUTLER

    BS radius alpha        =              1
    Pruning alpha          =              1
    Radial Points          =             75
    Spherical Points       =            302
    Total Points           =          45300
    Total Blocks           =            421
    Max Points             =            256
    Max Functions          =             38


  -Total Gradient:
     Atom            X                  Y                   Z
    ------   -----------------  -----------------  -----------------
       1        0.000000000000     0.000000000000     0.019392489861
       2        0.000000000000     0.000000000000    -0.019396313646


*** tstop() called on atlantis at Tue Apr 19 00:35:30 2022
Module time:
	user time   =       0.21 seconds =       0.00 minutes
	system time =       0.00 seconds =       0.00 minutes
	total time  =          0 seconds =       0.00 minutes
Total time:
	user time   =       4.45 seconds =       0.07 minutes
	system time =       0.08 seconds =       0.00 minutes
	total time  =          4 seconds =       0.07 minutes

  //>>>>>>>>>>>>>>>>>>>>>>>>>>>>>>>>>>>//
  //    Loading displacement 3 of 5    //
  //<<<<<<<<<<<<<<<<<<<<<<<<<<<<<<<<<<<//
gradient() will perform analytic gradient computation.

*** tstart() called on atlantis
*** at Tue Apr 19 00:35:30 2022

   => Loading Basis Set <=

    Name: 6-31+G*
    Role: ORBITAL
    Keyword: BASIS
    atoms 1 entry O          line   157 file /home/akrom/software/anaconda3/envs/ffpenv/share/psi4/basis/6-31pgs.gbs 
    atoms 2 entry C          line   119 file /home/akrom/software/anaconda3/envs/ffpenv/share/psi4/basis/6-31pgs.gbs 


         ---------------------------------------------------------
                                   SCF
               by Justin Turney, Rob Parrish, Andy Simmonett
                          and Daniel G. A. Smith
                              RKS Reference
                        1 Threads,    500 MiB Core
         ---------------------------------------------------------

  ==> Geometry <==

    Molecular point group: c2v
    Full point group: C_inf_v

    Geometry (in Angstrom), charge = 0, multiplicity = 1:

       Center              X                  Y                   Z               Mass       
    ------------   -----------------  -----------------  -----------------  -----------------
         O            0.000000000000     0.000000000000     0.491956699505    15.994914619570
         C            0.000000000000     0.000000000000    -0.655733783759    12.000000000000

  Running in c2v symmetry.

  Rotational constants: A = ************  B =      1.86665  C =      1.86665 [cm^-1]
  Rotational constants: A = ************  B =  55960.76123  C =  55960.76123 [MHz]
  Nuclear repulsion =   22.131843456554755

  Charge       = 0
  Multiplicity = 1
  Electrons    = 14
  Nalpha       = 7
  Nbeta        = 7

  ==> Algorithm <==

  SCF Algorithm Type is DF.
  DIIS enabled.
  MOM disabled.
  Fractional occupation disabled.
  Guess Type is SAD.
  Energy threshold   = 1.00e-08
  Density threshold  = 1.00e-08
  Integral threshold = 0.00e+00

  ==> Primary Basis <==

  Basis Set: 6-31+G*
    Blend: 6-31+G*
    Number of shells: 16
    Number of basis function: 38
    Number of Cartesian functions: 38
    Spherical Harmonics?: false
    Max angular momentum: 2

  ==> DFT Potential <==

   => Composite Functional: B3LYP <= 

    B3LYP Hyb-GGA Exchange-Correlation Functional

    P. J. Stephens, F. J. Devlin, C. F. Chabalowski, and M. J. Frisch, J. Phys. Chem. 98, 11623 (1994)

    Deriv               =              1
    GGA                 =           TRUE
    Meta                =          FALSE

    Exchange Hybrid     =           TRUE
    MP2 Hybrid          =          FALSE

   => Exchange Functionals <=

    0.0800   Slater exchange
    0.7200         Becke 88

   => Exact (HF) Exchange <=

    0.2000               HF 

   => Correlation Functionals <=

    0.1900   Vosko, Wilk & Nusair (VWN5_RPA)
    0.8100   Lee, Yang & Parr

   => Molecular Quadrature <=

    Radial Scheme          =       TREUTLER
    Pruning Scheme         =           FLAT
    Nuclear Scheme         =       TREUTLER

    BS radius alpha        =              1
    Pruning alpha          =              1
    Radial Points          =             75
    Spherical Points       =            302
    Total Points           =          45300
    Total Blocks           =            421
    Max Points             =            256
    Max Functions          =             38

   => Loading Basis Set <=

    Name: (6-31+G* AUX)
    Role: JKFIT
    Keyword: DF_BASIS_SCF
    atoms 1 entry O          line   310 file /home/akrom/software/anaconda3/envs/ffpenv/share/psi4/basis/heavy-aug-cc-pvdz-jkfit.gbs 
    atoms 2 entry C          line   194 file /home/akrom/software/anaconda3/envs/ffpenv/share/psi4/basis/heavy-aug-cc-pvdz-jkfit.gbs 

  ==> Pre-Iterations <==

   -------------------------------------------------------
    Irrep   Nso     Nmo     Nalpha   Nbeta   Ndocc  Nsocc
   -------------------------------------------------------
     A1        20      20       0       0       0       0
     A2         2       2       0       0       0       0
     B1         8       8       0       0       0       0
     B2         8       8       0       0       0       0
   -------------------------------------------------------
    Total      38      38       7       7       7       0
   -------------------------------------------------------

  ==> Integral Setup <==

  DFHelper Memory: AOs need 0.003 GiB; user supplied 0.319 GiB. Using in-core AOs.

  ==> MemDFJK: Density-Fitted J/K Matrices <==

    J tasked:                   Yes
    K tasked:                   Yes
    wK tasked:                   No
    OpenMP threads:               1
    Memory [MiB]:               326
    Algorithm:                 Core
    Schwarz Cutoff:           1E-12
    Mask sparsity (%):       0.0000
    Fitting Condition:        1E-10

   => Auxiliary Basis Set <=

  Basis Set: (6-31+G* AUX)
    Blend: HEAVY-AUG-CC-PVDZ-JKFIT
    Number of shells: 56
    Number of basis function: 202
    Number of Cartesian functions: 202
    Spherical Harmonics?: false
    Max angular momentum: 3

  Cached 100.0% of DFT collocation blocks in 0.047 [GiB].

  Minimum eigenvalue in the overlap matrix is 5.3803739182E-03.
  Using Symmetric Orthogonalization.

  SCF Guess: Superposition of Atomic Densities via on-the-fly atomic UHF.

  ==> Iterations <==

                           Total Energy        Delta E     RMS |[F,P]|

   @DF-RKS iter SAD:  -112.76682150018353   -1.12767e+02   0.00000e+00 
   @DF-RKS iter   1:  -113.25126157623632   -4.84440e-01   1.80793e-02 DIIS
   @DF-RKS iter   2:  -113.08087938747154    1.70382e-01   3.45813e-02 DIIS
   @DF-RKS iter   3:  -113.30626736177786   -2.25388e-01   6.55901e-03 DIIS
   @DF-RKS iter   4:  -113.31701256989960   -1.07452e-02   3.13470e-04 DIIS
   @DF-RKS iter   5:  -113.31703456881135   -2.19989e-05   8.84304e-05 DIIS
   @DF-RKS iter   6:  -113.31703628718105   -1.71837e-06   1.11461e-05 DIIS
   @DF-RKS iter   7:  -113.31703631269282   -2.55118e-08   1.46964e-07 DIIS
   @DF-RKS iter   8:  -113.31703631269772   -4.90274e-12   1.28248e-08 DIIS
   @DF-RKS iter   9:  -113.31703631269779   -7.10543e-14   1.83781e-09 DIIS
  Energy and wave function converged.


  ==> Post-Iterations <==

    Orbital Energies [Eh]
    ---------------------

    Doubly Occupied:                                                      

       1A1   -19.275058     2A1   -10.324641     3A1    -1.168354  
       4A1    -0.584511     1B2    -0.478809     1B1    -0.478809  
       5A1    -0.388232  

    Virtual:                                                              

       2B1    -0.047656     2B2    -0.047656     6A1     0.028339  
       7A1     0.058789     3B1     0.071282     3B2     0.071282  
       8A1     0.179043     4B2     0.208454     4B1     0.208454  
       9A1     0.260575    10A1     0.417646     5B1     0.632302  
       5B2     0.632302    11A1     0.724769    12A1     1.030967  
       6B1     1.134879     6B2     1.134879    13A1     1.144291  
      14A1     1.468501     1A2     1.468501    15A1     1.472338  
       7B2     1.520436     7B1     1.520436    16A1     1.923561  
       2A2     1.923561    17A1     2.442707     8B1     2.587384  
       8B2     2.587384    18A1     3.012131    19A1     3.985947  
      20A1     4.146082  

    Final Occupation by Irrep:
             A1    A2    B1    B2 
    DOCC [     5,    0,    1,    1 ]

  @DF-RKS Final Energy:  -113.31703631269779

   => Energetics <=

    Nuclear Repulsion Energy =             22.1318434565547548
    One-Electron Energy =                -197.4476484252415389
    Two-Electron Energy =                  73.1947154167777683
    DFT Exchange-Correlation Energy =     -11.1959467607887735
    Empirical Dispersion Energy =           0.0000000000000000
    VV10 Nonlocal Energy =                  0.0000000000000000
    Total Energy =                       -113.3170363126977946

Computation Completed


Properties will be evaluated at   0.000000,   0.000000,   0.000000 [a0]

Properties computed using the SCF density matrix

  Nuclear Dipole Moment: [e a0]
     X:     0.0000      Y:     0.0000      Z:     0.0024

  Electronic Dipole Moment: [e a0]
     X:     0.0000      Y:     0.0000      Z:    -0.0070

  Dipole Moment: [e a0]
     X:     0.0000      Y:     0.0000      Z:    -0.0046     Total:     0.0046

  Dipole Moment: [D]
     X:     0.0000      Y:     0.0000      Z:    -0.0117     Total:     0.0117


*** tstop() called on atlantis at Tue Apr 19 00:35:31 2022
Module time:
	user time   =       0.93 seconds =       0.02 minutes
	system time =       0.01 seconds =       0.00 minutes
	total time  =          1 seconds =       0.02 minutes
Total time:
	user time   =       5.38 seconds =       0.09 minutes
	system time =       0.09 seconds =       0.00 minutes
	total time  =          5 seconds =       0.08 minutes

*** tstart() called on atlantis
*** at Tue Apr 19 00:35:31 2022


         ------------------------------------------------------------
                                   SCF GRAD                          
                          Rob Parrish, Justin Turney,                
                       Andy Simmonett, and Alex Sokolov              
         ------------------------------------------------------------

  ==> Geometry <==

    Molecular point group: c2v
    Full point group: C_inf_v

    Geometry (in Angstrom), charge = 0, multiplicity = 1:

       Center              X                  Y                   Z               Mass       
    ------------   -----------------  -----------------  -----------------  -----------------
         O            0.000000000000     0.000000000000     0.491956699505    15.994914619570
         C            0.000000000000     0.000000000000    -0.655733783759    12.000000000000

  Nuclear repulsion =   22.131843456554755

  ==> Basis Set <==

  Basis Set: 6-31+G*
    Blend: 6-31+G*
    Number of shells: 16
    Number of basis function: 38
    Number of Cartesian functions: 38
    Spherical Harmonics?: false
    Max angular momentum: 2

  ==> DFJKGrad: Density-Fitted SCF Gradients <==

    Gradient:                    1
    J tasked:                  Yes
    K tasked:                  Yes
    wK tasked:                  No
    OpenMP threads:              1
    Integrals threads:           1
    Memory [MiB]:              375
    Schwarz Cutoff:          0E+00
    Fitting Condition:       1E-10

   => Auxiliary Basis Set <=

  Basis Set: (6-31+G* AUX)
    Blend: HEAVY-AUG-CC-PVDZ-JKFIT
    Number of shells: 56
    Number of basis function: 202
    Number of Cartesian functions: 202
    Spherical Harmonics?: false
    Max angular momentum: 3

  ==> DFT Potential <==

   => Composite Functional: B3LYP <= 

    B3LYP Hyb-GGA Exchange-Correlation Functional

    P. J. Stephens, F. J. Devlin, C. F. Chabalowski, and M. J. Frisch, J. Phys. Chem. 98, 11623 (1994)

    Deriv               =              1
    GGA                 =           TRUE
    Meta                =          FALSE

    Exchange Hybrid     =           TRUE
    MP2 Hybrid          =          FALSE

   => Exchange Functionals <=

    0.0800   Slater exchange
    0.7200         Becke 88

   => Exact (HF) Exchange <=

    0.2000               HF 

   => Correlation Functionals <=

    0.1900   Vosko, Wilk & Nusair (VWN5_RPA)
    0.8100   Lee, Yang & Parr

   => Molecular Quadrature <=

    Radial Scheme          =       TREUTLER
    Pruning Scheme         =           FLAT
    Nuclear Scheme         =       TREUTLER

    BS radius alpha        =              1
    Pruning alpha          =              1
    Radial Points          =             75
    Spherical Points       =            302
    Total Points           =          45300
    Total Blocks           =            421
    Max Points             =            256
    Max Functions          =             38


  -Total Gradient:
     Atom            X                  Y                   Z
    ------   -----------------  -----------------  -----------------
       1        0.000000000000     0.000000000000     0.023889713585
       2        0.000000000000     0.000000000000    -0.023893370388


*** tstop() called on atlantis at Tue Apr 19 00:35:31 2022
Module time:
	user time   =       0.20 seconds =       0.00 minutes
	system time =       0.00 seconds =       0.00 minutes
	total time  =          0 seconds =       0.00 minutes
Total time:
	user time   =       5.58 seconds =       0.09 minutes
	system time =       0.09 seconds =       0.00 minutes
	total time  =          5 seconds =       0.08 minutes

  //>>>>>>>>>>>>>>>>>>>>>>>>>>>>>>>>>>>//
  //    Loading displacement 4 of 5    //
  //<<<<<<<<<<<<<<<<<<<<<<<<<<<<<<<<<<<//
gradient() will perform analytic gradient computation.

*** tstart() called on atlantis
*** at Tue Apr 19 00:35:31 2022

   => Loading Basis Set <=

    Name: 6-31+G*
    Role: ORBITAL
    Keyword: BASIS
    atoms 1 entry O          line   157 file /home/akrom/software/anaconda3/envs/ffpenv/share/psi4/basis/6-31pgs.gbs 
    atoms 2 entry C          line   119 file /home/akrom/software/anaconda3/envs/ffpenv/share/psi4/basis/6-31pgs.gbs 


         ---------------------------------------------------------
                                   SCF
               by Justin Turney, Rob Parrish, Andy Simmonett
                          and Daniel G. A. Smith
                              RKS Reference
                        1 Threads,    500 MiB Core
         ---------------------------------------------------------

  ==> Geometry <==

    Molecular point group: cs
    Full point group: C_inf_v

    Geometry (in Angstrom), charge = 0, multiplicity = 1:

       Center              X                  Y                   Z               Mass       
    ------------   -----------------  -----------------  -----------------  -----------------
         O           -0.000433142923     0.000000000000     0.491523556581    15.994914619570
         C            0.000577340340     0.000000000000    -0.655156443419    12.000000000000

  Running in cs symmetry.

  Rotational constants: A = ************  B =      1.86994  C =      1.86994 [cm^-1]
  Rotational constants: A = ************  B =  56059.38921  C =  56059.38921 [MHz]
  Nuclear repulsion =   22.151337992888561

  Charge       = 0
  Multiplicity = 1
  Electrons    = 14
  Nalpha       = 7
  Nbeta        = 7

  ==> Algorithm <==

  SCF Algorithm Type is DF.
  DIIS enabled.
  MOM disabled.
  Fractional occupation disabled.
  Guess Type is SAD.
  Energy threshold   = 1.00e-08
  Density threshold  = 1.00e-08
  Integral threshold = 0.00e+00

  ==> Primary Basis <==

  Basis Set: 6-31+G*
    Blend: 6-31+G*
    Number of shells: 16
    Number of basis function: 38
    Number of Cartesian functions: 38
    Spherical Harmonics?: false
    Max angular momentum: 2

  ==> DFT Potential <==

   => Composite Functional: B3LYP <= 

    B3LYP Hyb-GGA Exchange-Correlation Functional

    P. J. Stephens, F. J. Devlin, C. F. Chabalowski, and M. J. Frisch, J. Phys. Chem. 98, 11623 (1994)

    Deriv               =              1
    GGA                 =           TRUE
    Meta                =          FALSE

    Exchange Hybrid     =           TRUE
    MP2 Hybrid          =          FALSE

   => Exchange Functionals <=

    0.0800   Slater exchange
    0.7200         Becke 88

   => Exact (HF) Exchange <=

    0.2000               HF 

   => Correlation Functionals <=

    0.1900   Vosko, Wilk & Nusair (VWN5_RPA)
    0.8100   Lee, Yang & Parr

   => Molecular Quadrature <=

    Radial Scheme          =       TREUTLER
    Pruning Scheme         =           FLAT
    Nuclear Scheme         =       TREUTLER

    BS radius alpha        =              1
    Pruning alpha          =              1
    Radial Points          =             75
    Spherical Points       =            302
    Total Points           =          45300
    Total Blocks           =            411
    Max Points             =            253
    Max Functions          =             38

   => Loading Basis Set <=

    Name: (6-31+G* AUX)
    Role: JKFIT
    Keyword: DF_BASIS_SCF
    atoms 1 entry O          line   310 file /home/akrom/software/anaconda3/envs/ffpenv/share/psi4/basis/heavy-aug-cc-pvdz-jkfit.gbs 
    atoms 2 entry C          line   194 file /home/akrom/software/anaconda3/envs/ffpenv/share/psi4/basis/heavy-aug-cc-pvdz-jkfit.gbs 

  ==> Pre-Iterations <==

   -------------------------------------------------------
    Irrep   Nso     Nmo     Nalpha   Nbeta   Ndocc  Nsocc
   -------------------------------------------------------
     A'        28      28       0       0       0       0
     A"        10      10       0       0       0       0
   -------------------------------------------------------
    Total      38      38       7       7       7       0
   -------------------------------------------------------

  ==> Integral Setup <==

  DFHelper Memory: AOs need 0.003 GiB; user supplied 0.319 GiB. Using in-core AOs.

  ==> MemDFJK: Density-Fitted J/K Matrices <==

    J tasked:                   Yes
    K tasked:                   Yes
    wK tasked:                   No
    OpenMP threads:               1
    Memory [MiB]:               326
    Algorithm:                 Core
    Schwarz Cutoff:           1E-12
    Mask sparsity (%):       0.0000
    Fitting Condition:        1E-10

   => Auxiliary Basis Set <=

  Basis Set: (6-31+G* AUX)
    Blend: HEAVY-AUG-CC-PVDZ-JKFIT
    Number of shells: 56
    Number of basis function: 202
    Number of Cartesian functions: 202
    Spherical Harmonics?: false
    Max angular momentum: 3

  Cached 100.0% of DFT collocation blocks in 0.047 [GiB].

  Minimum eigenvalue in the overlap matrix is 5.3645416675E-03.
  Using Symmetric Orthogonalization.

  SCF Guess: Superposition of Atomic Densities via on-the-fly atomic UHF.

  ==> Iterations <==

                           Total Energy        Delta E     RMS |[F,P]|

   @DF-RKS iter SAD:  -112.76826317720452   -1.12768e+02   0.00000e+00 
   @DF-RKS iter   1:  -113.25127752589199   -4.83014e-01   1.40259e-02 DIIS
   @DF-RKS iter   2:  -113.08253622414652    1.68741e-01   2.67414e-02 DIIS
   @DF-RKS iter   3:  -113.30630791165804   -2.23772e-01   5.09175e-03 DIIS
   @DF-RKS iter   4:  -113.31705632033561   -1.07484e-02   2.41705e-04 DIIS
   @DF-RKS iter   5:  -113.31707806572037   -2.17454e-05   6.82528e-05 DIIS
   @DF-RKS iter   6:  -113.31707976660552   -1.70089e-06   8.58796e-06 DIIS
   @DF-RKS iter   7:  -113.31707979175884   -2.51533e-08   1.13519e-07 DIIS
   @DF-RKS iter   8:  -113.31707979176372   -4.87432e-12   9.86202e-09 DIIS
  Energy and wave function converged.


  ==> Post-Iterations <==

    Orbital Energies [Eh]
    ---------------------

    Doubly Occupied:                                                      

       1Ap   -19.275033     2Ap   -10.324327     3Ap    -1.168921  
       4Ap    -0.584509     1App   -0.479144     5Ap    -0.479144  
       6Ap    -0.388140  

    Virtual:                                                              

       7Ap    -0.047302     2App   -0.047302     8Ap     0.028338  
       9Ap     0.058826     3App    0.071314    10Ap     0.071314  
      11Ap     0.179064    12Ap     0.208469     4App    0.208469  
      13Ap     0.260592    14Ap     0.418125     5App    0.632358  
      15Ap     0.632358    16Ap     0.725755    17Ap     1.031212  
      18Ap     1.134850     6App    1.134850    19Ap     1.144565  
      20Ap     1.468159     7App    1.468159    21Ap     1.472564  
       8App    1.521144    22Ap     1.521144    23Ap     1.924099  
       9App    1.924100    24Ap     2.444644    10App    2.588502  
      25Ap     2.588502    26Ap     3.014010    27Ap     3.986518  
      28Ap     4.146364  

    Final Occupation by Irrep:
             Ap   App 
    DOCC [     6,    1 ]

  @DF-RKS Final Energy:  -113.31707979176372

   => Energetics <=

    Nuclear Repulsion Energy =             22.1513379928885605
    One-Electron Energy =                -197.4845682824962694
    Two-Electron Energy =                  73.2129033914555833
    DFT Exchange-Correlation Energy =     -11.1967528936115848
    Empirical Dispersion Energy =           0.0000000000000000
    VV10 Nonlocal Energy =                  0.0000000000000000
    Total Energy =                       -113.3170797917637174

Computation Completed


Properties will be evaluated at   0.000000,   0.000000,   0.000000 [a0]

Properties computed using the SCF density matrix

  Nuclear Dipole Moment: [e a0]
     X:    -0.0000      Y:     0.0000      Z:     0.0024

  Electronic Dipole Moment: [e a0]
     X:     0.0000      Y:     0.0000      Z:    -0.0055

  Dipole Moment: [e a0]
     X:     0.0000      Y:     0.0000      Z:    -0.0031     Total:     0.0031

  Dipole Moment: [D]
     X:     0.0000      Y:     0.0000      Z:    -0.0079     Total:     0.0079


*** tstop() called on atlantis at Tue Apr 19 00:35:32 2022
Module time:
	user time   =       0.83 seconds =       0.01 minutes
	system time =       0.00 seconds =       0.00 minutes
	total time  =          1 seconds =       0.02 minutes
Total time:
	user time   =       6.42 seconds =       0.11 minutes
	system time =       0.09 seconds =       0.00 minutes
	total time  =          6 seconds =       0.10 minutes

*** tstart() called on atlantis
*** at Tue Apr 19 00:35:32 2022


         ------------------------------------------------------------
                                   SCF GRAD                          
                          Rob Parrish, Justin Turney,                
                       Andy Simmonett, and Alex Sokolov              
         ------------------------------------------------------------

  ==> Geometry <==

    Molecular point group: cs
    Full point group: C_inf_v

    Geometry (in Angstrom), charge = 0, multiplicity = 1:

       Center              X                  Y                   Z               Mass       
    ------------   -----------------  -----------------  -----------------  -----------------
         O           -0.000433142923     0.000000000000     0.491523556581    15.994914619570
         C            0.000577340340     0.000000000000    -0.655156443419    12.000000000000

  Nuclear repulsion =   22.151337992888561

  ==> Basis Set <==

  Basis Set: 6-31+G*
    Blend: 6-31+G*
    Number of shells: 16
    Number of basis function: 38
    Number of Cartesian functions: 38
    Spherical Harmonics?: false
    Max angular momentum: 2

  ==> DFJKGrad: Density-Fitted SCF Gradients <==

    Gradient:                    1
    J tasked:                  Yes
    K tasked:                  Yes
    wK tasked:                  No
    OpenMP threads:              1
    Integrals threads:           1
    Memory [MiB]:              375
    Schwarz Cutoff:          0E+00
    Fitting Condition:       1E-10

   => Auxiliary Basis Set <=

  Basis Set: (6-31+G* AUX)
    Blend: HEAVY-AUG-CC-PVDZ-JKFIT
    Number of shells: 56
    Number of basis function: 202
    Number of Cartesian functions: 202
    Spherical Harmonics?: false
    Max angular momentum: 3

  ==> DFT Potential <==

   => Composite Functional: B3LYP <= 

    B3LYP Hyb-GGA Exchange-Correlation Functional

    P. J. Stephens, F. J. Devlin, C. F. Chabalowski, and M. J. Frisch, J. Phys. Chem. 98, 11623 (1994)

    Deriv               =              1
    GGA                 =           TRUE
    Meta                =          FALSE

    Exchange Hybrid     =           TRUE
    MP2 Hybrid          =          FALSE

   => Exchange Functionals <=

    0.0800   Slater exchange
    0.7200         Becke 88

   => Exact (HF) Exchange <=

    0.2000               HF 

   => Correlation Functionals <=

    0.1900   Vosko, Wilk & Nusair (VWN5_RPA)
    0.8100   Lee, Yang & Parr

   => Molecular Quadrature <=

    Radial Scheme          =       TREUTLER
    Pruning Scheme         =           FLAT
    Nuclear Scheme         =       TREUTLER

    BS radius alpha        =              1
    Pruning alpha          =              1
    Radial Points          =             75
    Spherical Points       =            302
    Total Points           =          45300
    Total Blocks           =            411
    Max Points             =            253
    Max Functions          =             38


  -Total Gradient:
     Atom            X                  Y                   Z
    ------   -----------------  -----------------  -----------------
       1       -0.000019078657     0.000000000000     0.021650150769
       2        0.000019081955     0.000000000000    -0.021653893389


*** tstop() called on atlantis at Tue Apr 19 00:35:32 2022
Module time:
	user time   =       0.20 seconds =       0.00 minutes
	system time =       0.00 seconds =       0.00 minutes
	total time  =          0 seconds =       0.00 minutes
Total time:
	user time   =       6.62 seconds =       0.11 minutes
	system time =       0.09 seconds =       0.00 minutes
	total time  =          6 seconds =       0.10 minutes

  //>>>>>>>>>>>>>>>>>>>>>>>>>>>>>>>>>>>//
  //    Loading displacement 5 of 5    //
  //<<<<<<<<<<<<<<<<<<<<<<<<<<<<<<<<<<<//
gradient() will perform analytic gradient computation.

*** tstart() called on atlantis
*** at Tue Apr 19 00:35:32 2022

   => Loading Basis Set <=

    Name: 6-31+G*
    Role: ORBITAL
    Keyword: BASIS
    atoms 1 entry O          line   157 file /home/akrom/software/anaconda3/envs/ffpenv/share/psi4/basis/6-31pgs.gbs 
    atoms 2 entry C          line   119 file /home/akrom/software/anaconda3/envs/ffpenv/share/psi4/basis/6-31pgs.gbs 


         ---------------------------------------------------------
                                   SCF
               by Justin Turney, Rob Parrish, Andy Simmonett
                          and Daniel G. A. Smith
                              RKS Reference
                        1 Threads,    500 MiB Core
         ---------------------------------------------------------

  ==> Geometry <==

    Molecular point group: cs
    Full point group: C_inf_v

    Geometry (in Angstrom), charge = 0, multiplicity = 1:

       Center              X                  Y                   Z               Mass       
    ------------   -----------------  -----------------  -----------------  -----------------
         O            0.000000000000    -0.000433142923     0.491523556581    15.994914619570
         C            0.000000000000     0.000577340340    -0.655156443419    12.000000000000

  Running in cs symmetry.

  Rotational constants: A = ************  B =      1.86994  C =      1.86994 [cm^-1]
  Rotational constants: A = ************  B =  56059.38921  C =  56059.38921 [MHz]
  Nuclear repulsion =   22.151337992888561

  Charge       = 0
  Multiplicity = 1
  Electrons    = 14
  Nalpha       = 7
  Nbeta        = 7

  ==> Algorithm <==

  SCF Algorithm Type is DF.
  DIIS enabled.
  MOM disabled.
  Fractional occupation disabled.
  Guess Type is SAD.
  Energy threshold   = 1.00e-08
  Density threshold  = 1.00e-08
  Integral threshold = 0.00e+00

  ==> Primary Basis <==

  Basis Set: 6-31+G*
    Blend: 6-31+G*
    Number of shells: 16
    Number of basis function: 38
    Number of Cartesian functions: 38
    Spherical Harmonics?: false
    Max angular momentum: 2

  ==> DFT Potential <==

   => Composite Functional: B3LYP <= 

    B3LYP Hyb-GGA Exchange-Correlation Functional

    P. J. Stephens, F. J. Devlin, C. F. Chabalowski, and M. J. Frisch, J. Phys. Chem. 98, 11623 (1994)

    Deriv               =              1
    GGA                 =           TRUE
    Meta                =          FALSE

    Exchange Hybrid     =           TRUE
    MP2 Hybrid          =          FALSE

   => Exchange Functionals <=

    0.0800   Slater exchange
    0.7200         Becke 88

   => Exact (HF) Exchange <=

    0.2000               HF 

   => Correlation Functionals <=

    0.1900   Vosko, Wilk & Nusair (VWN5_RPA)
    0.8100   Lee, Yang & Parr

   => Molecular Quadrature <=

    Radial Scheme          =       TREUTLER
    Pruning Scheme         =           FLAT
    Nuclear Scheme         =       TREUTLER

    BS radius alpha        =              1
    Pruning alpha          =              1
    Radial Points          =             75
    Spherical Points       =            302
    Total Points           =          45300
    Total Blocks           =            408
    Max Points             =            253
    Max Functions          =             38

   => Loading Basis Set <=

    Name: (6-31+G* AUX)
    Role: JKFIT
    Keyword: DF_BASIS_SCF
    atoms 1 entry O          line   310 file /home/akrom/software/anaconda3/envs/ffpenv/share/psi4/basis/heavy-aug-cc-pvdz-jkfit.gbs 
    atoms 2 entry C          line   194 file /home/akrom/software/anaconda3/envs/ffpenv/share/psi4/basis/heavy-aug-cc-pvdz-jkfit.gbs 

  ==> Pre-Iterations <==

   -------------------------------------------------------
    Irrep   Nso     Nmo     Nalpha   Nbeta   Ndocc  Nsocc
   -------------------------------------------------------
     A'        28      28       0       0       0       0
     A"        10      10       0       0       0       0
   -------------------------------------------------------
    Total      38      38       7       7       7       0
   -------------------------------------------------------

  ==> Integral Setup <==

  DFHelper Memory: AOs need 0.003 GiB; user supplied 0.319 GiB. Using in-core AOs.

  ==> MemDFJK: Density-Fitted J/K Matrices <==

    J tasked:                   Yes
    K tasked:                   Yes
    wK tasked:                   No
    OpenMP threads:               1
    Memory [MiB]:               326
    Algorithm:                 Core
    Schwarz Cutoff:           1E-12
    Mask sparsity (%):       0.0000
    Fitting Condition:        1E-10

   => Auxiliary Basis Set <=

  Basis Set: (6-31+G* AUX)
    Blend: HEAVY-AUG-CC-PVDZ-JKFIT
    Number of shells: 56
    Number of basis function: 202
    Number of Cartesian functions: 202
    Spherical Harmonics?: false
    Max angular momentum: 3

  Cached 100.0% of DFT collocation blocks in 0.047 [GiB].

  Minimum eigenvalue in the overlap matrix is 5.3645416675E-03.
  Using Symmetric Orthogonalization.

  SCF Guess: Superposition of Atomic Densities via on-the-fly atomic UHF.

  ==> Iterations <==

                           Total Energy        Delta E     RMS |[F,P]|

   @DF-RKS iter SAD:  -112.76826317720244   -1.12768e+02   0.00000e+00 
   @DF-RKS iter   1:  -113.25127752589040   -4.83014e-01   1.40259e-02 DIIS
   @DF-RKS iter   2:  -113.08253622416467    1.68741e-01   2.67414e-02 DIIS
   @DF-RKS iter   3:  -113.30630791165326   -2.23772e-01   5.09175e-03 DIIS
   @DF-RKS iter   4:  -113.31705632033115   -1.07484e-02   2.41705e-04 DIIS
   @DF-RKS iter   5:  -113.31707806571609   -2.17454e-05   6.82528e-05 DIIS
   @DF-RKS iter   6:  -113.31707976660118   -1.70089e-06   8.58796e-06 DIIS
   @DF-RKS iter   7:  -113.31707979175445   -2.51533e-08   1.13519e-07 DIIS
   @DF-RKS iter   8:  -113.31707979175944   -4.98801e-12   9.86202e-09 DIIS
  Energy and wave function converged.


  ==> Post-Iterations <==

    Orbital Energies [Eh]
    ---------------------

    Doubly Occupied:                                                      

       1Ap   -19.275033     2Ap   -10.324327     3Ap    -1.168921  
       4Ap    -0.584509     5Ap    -0.479144     1App   -0.479144  
       6Ap    -0.388140  

    Virtual:                                                              

       7Ap    -0.047302     2App   -0.047302     8Ap     0.028338  
       9Ap     0.058826     3App    0.071314    10Ap     0.071314  
      11Ap     0.179064    12Ap     0.208469     4App    0.208469  
      13Ap     0.260592    14Ap     0.418125     5App    0.632358  
      15Ap     0.632358    16Ap     0.725755    17Ap     1.031212  
      18Ap     1.134850     6App    1.134850    19Ap     1.144565  
      20Ap     1.468159     7App    1.468159    21Ap     1.472564  
      22Ap     1.521144     8App    1.521144    23Ap     1.924099  
       9App    1.924100    24Ap     2.444644    10App    2.588502  
      25Ap     2.588502    26Ap     3.014010    27Ap     3.986518  
      28Ap     4.146364  

    Final Occupation by Irrep:
             Ap   App 
    DOCC [     6,    1 ]

  @DF-RKS Final Energy:  -113.31707979175944

   => Energetics <=

    Nuclear Repulsion Energy =             22.1513379928885605
    One-Electron Energy =                -197.4845682824820017
    Two-Electron Energy =                  73.2129033914448684
    DFT Exchange-Correlation Energy =     -11.1967528936108565
    Empirical Dispersion Energy =           0.0000000000000000
    VV10 Nonlocal Energy =                  0.0000000000000000
    Total Energy =                       -113.3170797917594257

Computation Completed


Properties will be evaluated at   0.000000,   0.000000,   0.000000 [a0]

Properties computed using the SCF density matrix

  Nuclear Dipole Moment: [e a0]
     X:     0.0000      Y:    -0.0000      Z:     0.0024

  Electronic Dipole Moment: [e a0]
     X:     0.0000      Y:     0.0000      Z:    -0.0055

  Dipole Moment: [e a0]
     X:     0.0000      Y:     0.0000      Z:    -0.0031     Total:     0.0031

  Dipole Moment: [D]
     X:     0.0000      Y:     0.0000      Z:    -0.0079     Total:     0.0079


*** tstop() called on atlantis at Tue Apr 19 00:35:33 2022
Module time:
	user time   =       0.83 seconds =       0.01 minutes
	system time =       0.01 seconds =       0.00 minutes
	total time  =          1 seconds =       0.02 minutes
Total time:
	user time   =       7.45 seconds =       0.12 minutes
	system time =       0.10 seconds =       0.00 minutes
	total time  =          7 seconds =       0.12 minutes

*** tstart() called on atlantis
*** at Tue Apr 19 00:35:33 2022


         ------------------------------------------------------------
                                   SCF GRAD                          
                          Rob Parrish, Justin Turney,                
                       Andy Simmonett, and Alex Sokolov              
         ------------------------------------------------------------

  ==> Geometry <==

    Molecular point group: cs
    Full point group: C_inf_v

    Geometry (in Angstrom), charge = 0, multiplicity = 1:

       Center              X                  Y                   Z               Mass       
    ------------   -----------------  -----------------  -----------------  -----------------
         O            0.000000000000    -0.000433142923     0.491523556581    15.994914619570
         C            0.000000000000     0.000577340340    -0.655156443419    12.000000000000

  Nuclear repulsion =   22.151337992888561

  ==> Basis Set <==

  Basis Set: 6-31+G*
    Blend: 6-31+G*
    Number of shells: 16
    Number of basis function: 38
    Number of Cartesian functions: 38
    Spherical Harmonics?: false
    Max angular momentum: 2

  ==> DFJKGrad: Density-Fitted SCF Gradients <==

    Gradient:                    1
    J tasked:                  Yes
    K tasked:                  Yes
    wK tasked:                  No
    OpenMP threads:              1
    Integrals threads:           1
    Memory [MiB]:              375
    Schwarz Cutoff:          0E+00
    Fitting Condition:       1E-10

   => Auxiliary Basis Set <=

  Basis Set: (6-31+G* AUX)
    Blend: HEAVY-AUG-CC-PVDZ-JKFIT
    Number of shells: 56
    Number of basis function: 202
    Number of Cartesian functions: 202
    Spherical Harmonics?: false
    Max angular momentum: 3

  ==> DFT Potential <==

   => Composite Functional: B3LYP <= 

    B3LYP Hyb-GGA Exchange-Correlation Functional

    P. J. Stephens, F. J. Devlin, C. F. Chabalowski, and M. J. Frisch, J. Phys. Chem. 98, 11623 (1994)

    Deriv               =              1
    GGA                 =           TRUE
    Meta                =          FALSE

    Exchange Hybrid     =           TRUE
    MP2 Hybrid          =          FALSE

   => Exchange Functionals <=

    0.0800   Slater exchange
    0.7200         Becke 88

   => Exact (HF) Exchange <=

    0.2000               HF 

   => Correlation Functionals <=

    0.1900   Vosko, Wilk & Nusair (VWN5_RPA)
    0.8100   Lee, Yang & Parr

   => Molecular Quadrature <=

    Radial Scheme          =       TREUTLER
    Pruning Scheme         =           FLAT
    Nuclear Scheme         =       TREUTLER

    BS radius alpha        =              1
    Pruning alpha          =              1
    Radial Points          =             75
    Spherical Points       =            302
    Total Points           =          45300
    Total Blocks           =            408
    Max Points             =            253
    Max Functions          =             38


  -Total Gradient:
     Atom            X                  Y                   Z
    ------   -----------------  -----------------  -----------------
       1        0.000000000000    -0.000019078643     0.021650133628
       2        0.000000000000     0.000019081941    -0.021653876249


*** tstop() called on atlantis at Tue Apr 19 00:35:34 2022
Module time:
	user time   =       0.20 seconds =       0.00 minutes
	system time =       0.00 seconds =       0.00 minutes
	total time  =          1 seconds =       0.02 minutes
Total time:
	user time   =       7.65 seconds =       0.13 minutes
	system time =       0.10 seconds =       0.00 minutes
	total time  =          8 seconds =       0.13 minutes

         ----------------------------------------------------------
                                   FINDIF
                     R. A. King and Jonathon Misiewicz
         ---------------------------------------------------------

  Computing second-derivative from gradients using projected, 
  symmetry-adapted, cartesian coordinates.

  5 gradients passed in, including the reference geometry.
  Generating complete list of displacements from unique ones.

    Operation 2 takes plus displacements of irrep B1 to minus ones.
    Operation 2 takes plus displacements of irrep B2 to minus ones.

-------------------------------------------------------------


  ==> Harmonic Vibrational Analysis <==

  non-mass-weighted Hessian:       Symmetric? True   Hermitian? True   Lin Dep Dim?  3 (0)
  projection of translations (True) and rotations (False) removed 3 degrees of freedom (5)
  total projector:                 Symmetric? True   Hermitian? True   Lin Dep Dim?  3 (3)
  mass-weighted Hessian:           Symmetric? True   Hermitian? True   Lin Dep Dim?  3 (0)
  pre-proj  low-frequency mode:    0.0000i [cm^-1]
  pre-proj  low-frequency mode:    0.0000i [cm^-1]
  pre-proj  low-frequency mode:    0.0000  [cm^-1]
  pre-proj  low-frequency mode:  196.2427  [cm^-1]
  pre-proj  low-frequency mode:  196.2427  [cm^-1]
  pre-proj  all modes:['0.0000i' '0.0000i' '0.0000' '196.2427' '196.2427' '2130.3498']
  projected mass-weighted Hessian: Symmetric? True   Hermitian? True   Lin Dep Dim?  3 (3)
  post-proj low-frequency mode:    0.0000i [cm^-1] (TR)
  post-proj low-frequency mode:    0.0000  [cm^-1] (TR)
  post-proj low-frequency mode:    0.0000  [cm^-1] (TR)
  post-proj low-frequency mode:  196.2427  [cm^-1] (V)
  post-proj low-frequency mode:  196.2427  [cm^-1] (V)
  post-proj  all modes:['0.0000i' '0.0000' '0.0000' '196.2427' '196.2427' '2130.3498']

  Note that "Vibration"s include 2 un-projected rotation-like modes.
  Vibration                       4                   5                   6           
  Freq [cm^-1]                 196.2427            196.2427           2130.3498       
  Irrep                           B2                  B1                  A1          
  Reduced mass [u]             13.4388             13.4388             13.4388        
  Force const [mDyne/A]         0.3049              0.3049             35.9345        
  Turning point v=0 [a0]        0.2137              0.2137              0.0648        
  RMS dev v=0 [a0 u^1/2]        0.5539              0.5539              0.1681        
  Char temp [K]                282.3495            282.3496           3065.0990       
  ----------------------------------------------------------------------------------
      1   O                0.00 -0.60  0.00   -0.60  0.00  0.00    0.00  0.00 -0.60   
      2   C                0.00  0.80  0.00    0.80  0.00  0.00    0.00  0.00  0.80   

  ==> Thermochemistry Components <==

  Entropy, S
    Electronic S            0.000 [cal/(mol K)]        0.000 [J/(mol K)]       0.00000000 [mEh/K] (multiplicity = 1)
    Translational S        35.923 [cal/(mol K)]      150.302 [J/(mol K)]       0.05724692 [mEh/K] (mol. weight = 27.9949 [u], P = 101325.00 [Pa])
    Rotational S           11.343 [cal/(mol K)]       47.458 [J/(mol K)]       0.01807582 [mEh/K] (symmetry no. = 1)
    Vibrational S           4.337 [cal/(mol K)]       18.145 [J/(mol K)]       0.00691121 [mEh/K]
  Total S                  51.603 [cal/(mol K)]      215.905 [J/(mol K)]       0.08223395 [mEh/K]
  Correction S              0.000 [cal/(mol K)]        0.000 [J/(mol K)]       0.00000000 [mEh/K]

  Constant volume heat capacity, Cv
    Electronic Cv           0.000 [cal/(mol K)]        0.000 [J/(mol K)]       0.00000000 [mEh/K]
    Translational Cv        2.981 [cal/(mol K)]       12.472 [J/(mol K)]       0.00475022 [mEh/K]
    Rotational Cv           1.987 [cal/(mol K)]        8.314 [J/(mol K)]       0.00316681 [mEh/K]
    Vibrational Cv          3.697 [cal/(mol K)]       15.470 [J/(mol K)]       0.00589225 [mEh/K]
  Total Cv                  8.665 [cal/(mol K)]       36.256 [J/(mol K)]       0.01380928 [mEh/K]
  Correction Cv             0.000 [cal/(mol K)]        0.000 [J/(mol K)]       0.00000000 [mEh/K]

  Constant pressure heat capacity, Cp
    Electronic Cp           0.000 [cal/(mol K)]        0.000 [J/(mol K)]       0.00000000 [mEh/K]
    Translational Cp        4.968 [cal/(mol K)]       20.786 [J/(mol K)]       0.00791703 [mEh/K]
    Rotational Cp           1.987 [cal/(mol K)]        8.314 [J/(mol K)]       0.00316681 [mEh/K]
    Vibrational Cp          3.697 [cal/(mol K)]       15.470 [J/(mol K)]       0.00589225 [mEh/K]
  Total Cp                 10.653 [cal/(mol K)]       44.571 [J/(mol K)]       0.01697609 [mEh/K]
  Correction Cp             0.000 [cal/(mol K)]        0.000 [J/(mol K)]       0.00000000 [mEh/K]

  ==> Thermochemistry Energy Analysis <==

  Raw electronic energy, E0
  Total E0, Electronic energy at well bottom at 0 [K]                 -113.31707981 [Eh]

  Zero-point energy, ZPE_vib = Sum_i nu_i / 2
    Electronic ZPE          0.000 [kcal/mol]        0.000 [kJ/mol]       0.00000000 [Eh]
    Translational ZPE       0.000 [kcal/mol]        0.000 [kJ/mol]       0.00000000 [Eh]
    Rotational ZPE          0.000 [kcal/mol]        0.000 [kJ/mol]       0.00000000 [Eh]
    Vibrational ZPE         3.607 [kcal/mol]       15.090 [kJ/mol]       0.00574744 [Eh]        1261.418 [cm^-1]
  Correction ZPE            3.607 [kcal/mol]       15.090 [kJ/mol]       0.00574744 [Eh]        1261.418 [cm^-1]
  Total ZPE, Electronic energy at 0 [K]                               -113.31133237 [Eh]

  Thermal Energy, E (includes ZPE)
    Electronic E            0.000 [kcal/mol]        0.000 [kJ/mol]       0.00000000 [Eh]
    Translational E         0.889 [kcal/mol]        3.718 [kJ/mol]       0.00141628 [Eh]
    Rotational E            0.592 [kcal/mol]        2.479 [kJ/mol]       0.00094418 [Eh]
    Vibrational E           4.318 [kcal/mol]       18.066 [kJ/mol]       0.00688106 [Eh]
  Correction E              5.799 [kcal/mol]       24.264 [kJ/mol]       0.00924152 [Eh]
  Total E, Electronic energy at  298.15 [K]                           -113.30783829 [Eh]

  Enthalpy, H_trans = E_trans + k_B * T
    Electronic H            0.000 [kcal/mol]        0.000 [kJ/mol]       0.00000000 [Eh]
    Translational H         1.481 [kcal/mol]        6.197 [kJ/mol]       0.00236046 [Eh]
    Rotational H            0.592 [kcal/mol]        2.479 [kJ/mol]       0.00094418 [Eh]
    Vibrational H           4.318 [kcal/mol]       18.066 [kJ/mol]       0.00688106 [Eh]
  Correction H              6.392 [kcal/mol]       26.743 [kJ/mol]       0.01018570 [Eh]
  Total H, Enthalpy at  298.15 [K]                                    -113.30689411 [Eh]

  Gibbs free energy, G = H - T * S
    Electronic G            0.000 [kcal/mol]        0.000 [kJ/mol]       0.00000000 [Eh]
    Translational G        -9.229 [kcal/mol]      -38.615 [kJ/mol]      -0.01470771 [Eh]
    Rotational G           -2.789 [kcal/mol]      -11.671 [kJ/mol]      -0.00444512 [Eh]
    Vibrational G           3.025 [kcal/mol]       12.656 [kJ/mol]       0.00482048 [Eh]
  Correction G             -8.994 [kcal/mol]      -37.630 [kJ/mol]      -0.01433235 [Eh]
  Total G, Free enthalpy at  298.15 [K]                               -113.33141216 [Eh]

    Psi4 stopped on: Tuesday, 19 April 2022 12:35AM
    Psi4 wall time for execution: 0:00:07.84

*** Psi4 exiting successfully. Buy a developer a beer!
