
    -----------------------------------------------------------------------
          Psi4: An Open-Source Ab Initio Electronic Structure Package
                               Psi4 1.3.2 release

                         Git: Rev {HEAD} ecbda83 


    R. M. Parrish, L. A. Burns, D. G. A. Smith, A. C. Simmonett,
    A. E. DePrince III, E. G. Hohenstein, U. Bozkaya, A. Yu. Sokolov,
    R. Di Remigio, R. M. Richard, J. F. Gonthier, A. M. James,
    H. R. McAlexander, A. Kumar, M. Saitow, X. Wang, B. P. Pritchard,
    P. Verma, H. F. Schaefer III, K. Patkowski, R. A. King, E. F. Valeev,
    F. A. Evangelista, J. M. Turney, T. D. Crawford, and C. D. Sherrill,
    J. Chem. Theory Comput. 13(7) pp 3185--3197 (2017).
    (doi: 10.1021/acs.jctc.7b00174)


                         Additional Contributions by
    P. Kraus, H. Kruse, M. H. Lechner, M. C. Schieber, R. A. Shaw,
    A. Alenaizan, R. Galvelis, Z. L. Glick, S. Lehtola, and J. P. Misiewicz

    -----------------------------------------------------------------------


    Psi4 started on: Tuesday, 19 April 2022 01:58AM

    Process ID: 25940
    Host:       atlantis
    PSIDATADIR: /home/akrom/software/anaconda3/envs/ffpenv/share/psi4
    Memory:     500.0 MiB
    Threads:    1
    
  ==> Input File <==

--------------------------------------------------------------------------
set basis  cc-pVDZ
molecule {
0 1
   C       -0.61446        0.00000        0.00000
   C        0.61446        0.00000        0.00000
   H       -1.68923        0.00000        0.00000
   H        1.68923        0.00000        0.00000
}
energy('CCSD')
frequencies('CCSD')
--------------------------------------------------------------------------

*** tstart() called on atlantis
*** at Tue Apr 19 01:58:05 2022

   => Loading Basis Set <=

    Name: CC-PVDZ
    Role: ORBITAL
    Keyword: BASIS
    atoms 1-2 entry C          line   138 file /home/akrom/software/anaconda3/envs/ffpenv/share/psi4/basis/cc-pvdz.gbs 
    atoms 3-4 entry H          line    22 file /home/akrom/software/anaconda3/envs/ffpenv/share/psi4/basis/cc-pvdz.gbs 


         ---------------------------------------------------------
                                   SCF
               by Justin Turney, Rob Parrish, Andy Simmonett
                          and Daniel G. A. Smith
                              RHF Reference
                        1 Threads,    500 MiB Core
         ---------------------------------------------------------

  ==> Geometry <==

    Molecular point group: d2h
    Full point group: D_inf_h

    Geometry (in Angstrom), charge = 0, multiplicity = 1:

       Center              X                  Y                   Z               Mass       
    ------------   -----------------  -----------------  -----------------  -----------------
         C           -0.614460000000    -0.000000000000     0.000000000000    12.000000000000
         C            0.614460000000     0.000000000000     0.000000000000    12.000000000000
         H           -1.689230000000    -0.000000000000     0.000000000000     1.007825032230
         H            1.689230000000     0.000000000000     0.000000000000     1.007825032230

  Running in d2h symmetry.

  Rotational constants: A = ************  B =      1.13802  C =      1.13802 [cm^-1]
  Rotational constants: A = ************  B =  34116.98697  C =  34116.98697 [MHz]
  Nuclear repulsion =   24.323218171379235

  Charge       = 0
  Multiplicity = 1
  Electrons    = 14
  Nalpha       = 7
  Nbeta        = 7

  ==> Algorithm <==

  SCF Algorithm Type is PK.
  DIIS enabled.
  MOM disabled.
  Fractional occupation disabled.
  Guess Type is SAD.
  Energy threshold   = 1.00e-08
  Density threshold  = 1.00e-08
  Integral threshold = 0.00e+00

  ==> Primary Basis <==

  Basis Set: CC-PVDZ
    Blend: CC-PVDZ
    Number of shells: 18
    Number of basis function: 38
    Number of Cartesian functions: 40
    Spherical Harmonics?: true
    Max angular momentum: 2

  ==> Pre-Iterations <==

   -------------------------------------------------------
    Irrep   Nso     Nmo     Nalpha   Nbeta   Ndocc  Nsocc
   -------------------------------------------------------
     Ag        10      10       0       0       0       0
     B1g        4       4       0       0       0       0
     B2g        4       4       0       0       0       0
     B3g        1       1       0       0       0       0
     Au         1       1       0       0       0       0
     B1u        4       4       0       0       0       0
     B2u        4       4       0       0       0       0
     B3u       10      10       0       0       0       0
   -------------------------------------------------------
    Total      38      38       7       7       7       0
   -------------------------------------------------------

  ==> Integral Setup <==

  Using in-core PK algorithm.
   Calculation information:
      Number of atoms:                   4
      Number of AO shells:              18
      Number of primitives:             54
      Number of atomic orbitals:        40
      Number of basis functions:        38

      Integral cutoff                 1.00e-12
      Number of threads:                 1

  Performing in-core PK
  Using 549822 doubles for integral storage.
  We computed 14706 shell quartets total.
  Whereas there are 14706 unique shell quartets.

  ==> DiskJK: Disk-Based J/K Matrices <==

    J tasked:                  Yes
    K tasked:                  Yes
    wK tasked:                  No
    Memory [MiB]:              375
    Schwarz Cutoff:          1E-12

    OpenMP threads:              1

  Minimum eigenvalue in the overlap matrix is 9.7545658209E-04.
  Using Symmetric Orthogonalization.

  SCF Guess: Superposition of Atomic Densities via on-the-fly atomic UHF.

  ==> Iterations <==

                        Total Energy        Delta E     RMS |[F,P]|

   @RHF iter SAD:   -75.92063447777716   -7.59206e+01   0.00000e+00 
   @RHF iter   1:   -76.79370665557742   -8.73072e-01   1.29782e-02 DIIS
   @RHF iter   2:   -76.82034466381668   -2.66380e-02   4.00381e-03 DIIS
   @RHF iter   3:   -76.82278595040832   -2.44129e-03   6.19853e-04 DIIS
   @RHF iter   4:   -76.82289401690976   -1.08067e-04   7.13624e-05 DIIS
   @RHF iter   5:   -76.82289550457185   -1.48766e-06   1.20021e-05 DIIS
   @RHF iter   6:   -76.82289554877852   -4.42067e-08   1.61136e-06 DIIS
   @RHF iter   7:   -76.82289554955534   -7.76822e-10   2.36320e-07 DIIS
   @RHF iter   8:   -76.82289554957055   -1.52056e-11   9.02561e-09 DIIS
  Energy and wave function converged.


  ==> Post-Iterations <==

    Orbital Energies [Eh]
    ---------------------

    Doubly Occupied:                                                      

       1Ag   -11.256179     1B3u  -11.253039     2Ag    -1.019041  
       2B3u   -0.762386     3Ag    -0.670456     1B2u   -0.400224  
       1B1u   -0.400224  

    Virtual:                                                              

       3B3u    0.188444     1B2g    0.192367     1B1g    0.192367  
       4Ag     0.221290     4B3u    0.483347     5Ag     0.536683  
       2B2u    0.665746     2B1u    0.665746     2B1g    0.813267  
       2B2g    0.813267     5B3u    0.855798     6Ag     0.954164  
       7Ag     1.095209     3B1u    1.218324     3B2u    1.218324  
       8Ag     1.255714     1B3g    1.255714     6B3u    1.332267  
       7B3u    1.429935     3B2g    1.625382     3B1g    1.625382  
       8B3u    1.670433     1Au     1.670433     4B2u    2.049599  
       4B1u    2.049599     9Ag     2.150690     9B3u    2.503095  
       4B2g    2.663854     4B1g    2.663854    10Ag     3.216410  
      10B3u    3.584904  

    Final Occupation by Irrep:
             Ag   B1g   B2g   B3g    Au   B1u   B2u   B3u 
    DOCC [     3,    0,    0,    0,    0,    1,    1,    2 ]

  @RHF Final Energy:   -76.82289554957055

   => Energetics <=

    Nuclear Repulsion Energy =             24.3232181713792350
    One-Electron Energy =                -150.7691315129402483
    Two-Electron Energy =                  49.6230177919904634
    Total Energy =                        -76.8228955495705463

Computation Completed


Properties will be evaluated at   0.000000,   0.000000,   0.000000 [a0]

Properties computed using the SCF density matrix

  Nuclear Dipole Moment: [e a0]
     X:     0.0000      Y:     0.0000      Z:     0.0000

  Electronic Dipole Moment: [e a0]
     X:     0.0000      Y:     0.0000      Z:     0.0000

  Dipole Moment: [e a0]
     X:     0.0000      Y:     0.0000      Z:     0.0000     Total:     0.0000

  Dipole Moment: [D]
     X:     0.0000      Y:     0.0000      Z:     0.0000     Total:     0.0000


*** tstop() called on atlantis at Tue Apr 19 01:58:05 2022
Module time:
	user time   =       0.36 seconds =       0.01 minutes
	system time =       0.01 seconds =       0.00 minutes
	total time  =          0 seconds =       0.00 minutes
Total time:
	user time   =       0.36 seconds =       0.01 minutes
	system time =       0.01 seconds =       0.00 minutes
	total time  =          0 seconds =       0.00 minutes
 MINTS: Wrapper to libmints.
   by Justin Turney

   Calculation information:
      Number of threads:                 1
      Number of atoms:                   4
      Number of AO shells:              18
      Number of SO shells:               9
      Number of primitives:             54
      Number of atomic orbitals:        40
      Number of basis functions:        38

      Number of irreps:                  8
      Integral cutoff                 0.00e+00
      Number of functions per irrep: [  10    4    4    1    1    4    4   10 ]

 OEINTS: Overlap, kinetic, potential, dipole, and quadrupole integrals
         stored in file 35.

      Computing two-electron integrals...done
      Computed 38959 non-zero two-electron integrals.
        Stored in file 33.


*** tstart() called on atlantis
*** at Tue Apr 19 01:58:06 2022


	Wfn Parameters:
	--------------------
	Wavefunction         = CCSD
	Number of irreps     = 8
	Number of MOs        = 38
	Number of active MOs = 38
	AO-Basis             = NONE
	Semicanonical        = false
	Reference            = RHF
	Print Level          = 1

	IRREP	# MOs	# FZDC	# DOCC	# SOCC	# VIRT	# FZVR
	-----	-----	------	------	------	------	------
	 Ag	   10	    0	    3	    0	    7	    0
	 B1g	   4	    0	    0	    0	    4	    0
	 B2g	   4	    0	    0	    0	    4	    0
	 B3g	   1	    0	    0	    0	    1	    0
	 Au	   1	    0	    0	    0	    1	    0
	 B1u	   4	    0	    1	    0	    3	    0
	 B2u	   4	    0	    1	    0	    3	    0
	 B3u	   10	    0	    2	    0	    8	    0
	Transforming integrals...
	IWL integrals will be deleted.
	(OO|OO)...
	Presorting SO-basis two-electron integrals.
	Sorting File: SO Ints (nn|nn) nbuckets = 1
	Transforming the one-electron integrals and constructing Fock matrices
	Starting first half-transformation.
	Sorting half-transformed integrals.
	First half integral transformation complete.
	Starting second half-transformation.
	Two-electron integral transformation complete.
	(OO|OV)...
	Starting second half-transformation.
	Two-electron integral transformation complete.
	(OO|VV)...
	Starting second half-transformation.
	Two-electron integral transformation complete.
	(OV|OO)...
	Starting first half-transformation.
	Sorting half-transformed integrals.
	First half integral transformation complete.
	Starting second half-transformation.
	Two-electron integral transformation complete.
	(OV|OV)...
	Starting second half-transformation.
	Two-electron integral transformation complete.
	(OV|VV)...
	Starting second half-transformation.
	Two-electron integral transformation complete.
	(VV|OO)...
	Starting first half-transformation.
	Sorting half-transformed integrals.
	First half integral transformation complete.
	Starting second half-transformation.
	Two-electron integral transformation complete.
	(VV|OV)...
	Starting second half-transformation.
	Two-electron integral transformation complete.
	(VV|VV)...
	Starting second half-transformation.
	Two-electron integral transformation complete.
	Frozen core energy     =      0.00000000000000

	Size of irrep 0 of <ab|cd> integrals:      0.027 (MW) /      0.218 (MB)
	Size of irrep 1 of <ab|cd> integrals:      0.014 (MW) /      0.111 (MB)
	Size of irrep 2 of <ab|cd> integrals:      0.014 (MW) /      0.111 (MB)
	Size of irrep 3 of <ab|cd> integrals:      0.006 (MW) /      0.051 (MB)
	Size of irrep 4 of <ab|cd> integrals:      0.006 (MW) /      0.049 (MB)
	Size of irrep 5 of <ab|cd> integrals:      0.014 (MW) /      0.115 (MB)
	Size of irrep 6 of <ab|cd> integrals:      0.014 (MW) /      0.115 (MB)
	Size of irrep 7 of <ab|cd> integrals:      0.026 (MW) /      0.210 (MB)
	Total:                                     0.123 (MW) /      0.981 (MB)

	Size of irrep 0 of <ia|bc> integrals:      0.007 (MW) /      0.057 (MB)
	Size of irrep 1 of <ia|bc> integrals:      0.003 (MW) /      0.025 (MB)
	Size of irrep 2 of <ia|bc> integrals:      0.003 (MW) /      0.025 (MB)
	Size of irrep 3 of <ia|bc> integrals:      0.001 (MW) /      0.007 (MB)
	Size of irrep 4 of <ia|bc> integrals:      0.001 (MW) /      0.008 (MB)
	Size of irrep 5 of <ia|bc> integrals:      0.003 (MW) /      0.024 (MB)
	Size of irrep 6 of <ia|bc> integrals:      0.003 (MW) /      0.024 (MB)
	Size of irrep 7 of <ia|bc> integrals:      0.007 (MW) /      0.060 (MB)
	Total:                                     0.029 (MW) /      0.231 (MB)

	Size of irrep 0 of tijab amplitudes:       0.002 (MW) /      0.020 (MB)
	Size of irrep 1 of tijab amplitudes:       0.000 (MW) /      0.004 (MB)
	Size of irrep 2 of tijab amplitudes:       0.000 (MW) /      0.004 (MB)
	Size of irrep 3 of tijab amplitudes:       0.000 (MW) /      0.001 (MB)
	Size of irrep 4 of tijab amplitudes:       0.000 (MW) /      0.000 (MB)
	Size of irrep 5 of tijab amplitudes:       0.001 (MW) /      0.006 (MB)
	Size of irrep 6 of tijab amplitudes:       0.001 (MW) /      0.006 (MB)
	Size of irrep 7 of tijab amplitudes:       0.002 (MW) /      0.016 (MB)
	Total:                                     0.007 (MW) /      0.056 (MB)

	Nuclear Rep. energy          =     24.32321817137924
	SCF energy                   =    -76.82289554957055
	One-electron energy          =   -150.76913148803499
	Two-electron energy          =     49.62301776708515
	Reference energy             =    -76.82289554957060

*** tstop() called on atlantis at Tue Apr 19 01:58:06 2022
Module time:
	user time   =       0.00 seconds =       0.00 minutes
	system time =       0.02 seconds =       0.00 minutes
	total time  =          0 seconds =       0.00 minutes
Total time:
	user time   =       0.42 seconds =       0.01 minutes
	system time =       0.03 seconds =       0.00 minutes
	total time  =          1 seconds =       0.02 minutes
            **************************
            *                        *
            *        CCENERGY        *
            *                        *
            **************************

    Nuclear Rep. energy (wfn)     =   24.323218171379235
    SCF energy          (wfn)     =  -76.822895549570546
    Reference energy    (file100) =  -76.822895549570603

    Input parameters:
    -----------------
    Wave function   =     CCSD
    Reference wfn   =     RHF
    Brueckner       =     No
    Memory (Mbytes) =     524.3
    Maxiter         =     50
    R_Convergence   =     1.0e-07
    E_Convergence   =     1.0e-06
    Restart         =     Yes
    DIIS            =     Yes
    AO Basis        =     NONE
    ABCD            =     NEW
    Cache Level     =     2
    Cache Type      =     LOW
    Print Level     =     1
    Num. of threads =     1
    # Amps to Print =     10
    Print MP2 Amps? =     No
    Analyze T2 Amps =     No
    Print Pair Ener =     No
    Local CC        =     No
    SCS-MP2         =     False
    SCSN-MP2        =     False
    SCS-CCSD        =     False

MP2 correlation energy -0.2644746259684667
                Solving CC Amplitude Equations
                ------------------------------
  Iter             Energy              RMS        T1Diag      D1Diag    New D1Diag    D2Diag
  ----     ---------------------    ---------   ----------  ----------  ----------   --------
     0        -0.264474625968467    0.000e+00    0.000000    0.000000    0.000000    0.161190
     1        -0.268673483955243    5.405e-02    0.009015    0.022851    0.022851    0.164150
     2        -0.277748097744188    2.309e-02    0.009679    0.024240    0.024240    0.175797
     3        -0.280181433181919    9.957e-03    0.011020    0.027499    0.027499    0.182575
     4        -0.280572864271504    3.244e-03    0.011083    0.027623    0.027623    0.185261
     5        -0.280599775669866    6.149e-04    0.011055    0.027568    0.027568    0.185609
     6        -0.280601731539331    1.620e-04    0.011043    0.027547    0.027547    0.185646
     7        -0.280604390556078    3.694e-05    0.011041    0.027543    0.027543    0.185656
     8        -0.280604126249676    8.722e-06    0.011040    0.027543    0.027543    0.185657
     9        -0.280604001419237    2.096e-06    0.011040    0.027543    0.027543    0.185657
    10        -0.280604064962666    6.411e-07    0.011040    0.027543    0.027543    0.185657
    11        -0.280604055675737    1.676e-07    0.011040    0.027543    0.027543    0.185657
    12        -0.280604059545919    4.603e-08    0.011040    0.027543    0.027543    0.185657

    Iterations converged.


    Largest TIA Amplitudes:
              3  17         0.0212707370
              4  20         0.0212707370
              3  18         0.0154845739
              4  21         0.0154845739
              2   0        -0.0084803746
              3  19         0.0081475734
              4  22         0.0081475734
              6  26        -0.0046624340
              2   3         0.0042974251
              1   5        -0.0040283377

    Largest TIjAb Amplitudes:
      3   3  11  11        -0.1045744306
      4   4   7   7        -0.1045744306
      3   4  11   7        -0.0635678640
      4   3   7  11        -0.0635678640
      3   3  11  12        -0.0408625596
      3   3  12  11        -0.0408625596
      4   4   7   8        -0.0408625596
      4   4   8   7        -0.0408625596
      3   3  17  17        -0.0288598110
      4   4  20  20        -0.0288598110

    SCF energy       (wfn)                    =  -76.822895549570546
    Reference energy (file100)                =  -76.822895549570603

    Opposite-spin MP2 correlation energy      =   -0.200353650587832
    Same-spin MP2 correlation energy          =   -0.064120975380635
    MP2 correlation energy                    =   -0.264474625968467
      * MP2 total energy                      =  -77.087370175539064

    Opposite-spin CCSD correlation energy     =   -0.226585396751594
    Same-spin CCSD correlation energy         =   -0.054018662794324
    CCSD correlation energy                   =   -0.280604059545919
      * CCSD total energy                     =  -77.103499609116525

gradient() will perform analytic gradient computation.

*** tstart() called on atlantis
*** at Tue Apr 19 01:58:06 2022

   => Loading Basis Set <=

    Name: CC-PVDZ
    Role: ORBITAL
    Keyword: BASIS
    atoms 1-2 entry C          line   138 file /home/akrom/software/anaconda3/envs/ffpenv/share/psi4/basis/cc-pvdz.gbs 
    atoms 3-4 entry H          line    22 file /home/akrom/software/anaconda3/envs/ffpenv/share/psi4/basis/cc-pvdz.gbs 


         ---------------------------------------------------------
                                   SCF
               by Justin Turney, Rob Parrish, Andy Simmonett
                          and Daniel G. A. Smith
                              RHF Reference
                        1 Threads,    500 MiB Core
         ---------------------------------------------------------

  ==> Geometry <==

    Molecular point group: d2h
    Full point group: D_inf_h

    Geometry (in Angstrom), charge = 0, multiplicity = 1:

       Center              X                  Y                   Z               Mass       
    ------------   -----------------  -----------------  -----------------  -----------------
         C           -0.614460000000    -0.000000000000     0.000000000000    12.000000000000
         C            0.614460000000     0.000000000000     0.000000000000    12.000000000000
         H           -1.689230000000    -0.000000000000     0.000000000000     1.007825032230
         H            1.689230000000     0.000000000000     0.000000000000     1.007825032230

  Running in d2h symmetry.

  Rotational constants: A = ************  B =      1.13802  C =      1.13802 [cm^-1]
  Rotational constants: A = ************  B =  34116.98697  C =  34116.98697 [MHz]
  Nuclear repulsion =   24.323218171379235

  Charge       = 0
  Multiplicity = 1
  Electrons    = 14
  Nalpha       = 7
  Nbeta        = 7

  ==> Algorithm <==

  SCF Algorithm Type is PK.
  DIIS enabled.
  MOM disabled.
  Fractional occupation disabled.
  Guess Type is SAD.
  Energy threshold   = 1.00e-10
  Density threshold  = 1.00e-10
  Integral threshold = 0.00e+00

  ==> Primary Basis <==

  Basis Set: CC-PVDZ
    Blend: CC-PVDZ
    Number of shells: 18
    Number of basis function: 38
    Number of Cartesian functions: 40
    Spherical Harmonics?: true
    Max angular momentum: 2

  ==> Pre-Iterations <==

   -------------------------------------------------------
    Irrep   Nso     Nmo     Nalpha   Nbeta   Ndocc  Nsocc
   -------------------------------------------------------
     Ag        10      10       0       0       0       0
     B1g        4       4       0       0       0       0
     B2g        4       4       0       0       0       0
     B3g        1       1       0       0       0       0
     Au         1       1       0       0       0       0
     B1u        4       4       0       0       0       0
     B2u        4       4       0       0       0       0
     B3u       10      10       0       0       0       0
   -------------------------------------------------------
    Total      38      38       7       7       7       0
   -------------------------------------------------------

  ==> Integral Setup <==

  Using in-core PK algorithm.
   Calculation information:
      Number of atoms:                   4
      Number of AO shells:              18
      Number of primitives:             54
      Number of atomic orbitals:        40
      Number of basis functions:        38

      Integral cutoff                 1.00e-12
      Number of threads:                 1

  Performing in-core PK
  Using 549822 doubles for integral storage.
  We computed 14706 shell quartets total.
  Whereas there are 14706 unique shell quartets.

  ==> DiskJK: Disk-Based J/K Matrices <==

    J tasked:                  Yes
    K tasked:                  Yes
    wK tasked:                  No
    Memory [MiB]:              375
    Schwarz Cutoff:          1E-12

    OpenMP threads:              1

  Minimum eigenvalue in the overlap matrix is 9.7545658209E-04.
  Using Symmetric Orthogonalization.

  SCF Guess: Superposition of Atomic Densities via on-the-fly atomic UHF.

  ==> Iterations <==

                        Total Energy        Delta E     RMS |[F,P]|

   @RHF iter SAD:   -75.92063447777716   -7.59206e+01   0.00000e+00 
   @RHF iter   1:   -76.79370665557742   -8.73072e-01   1.29782e-02 DIIS
   @RHF iter   2:   -76.82034466381668   -2.66380e-02   4.00381e-03 DIIS
   @RHF iter   3:   -76.82278595040832   -2.44129e-03   6.19853e-04 DIIS
   @RHF iter   4:   -76.82289401690976   -1.08067e-04   7.13624e-05 DIIS
   @RHF iter   5:   -76.82289550457185   -1.48766e-06   1.20021e-05 DIIS
   @RHF iter   6:   -76.82289554877852   -4.42067e-08   1.61136e-06 DIIS
   @RHF iter   7:   -76.82289554955534   -7.76822e-10   2.36320e-07 DIIS
   @RHF iter   8:   -76.82289554957055   -1.52056e-11   9.02561e-09 DIIS
   @RHF iter   9:   -76.82289554957066   -1.13687e-13   8.57853e-10 DIIS
   @RHF iter  10:   -76.82289554957063    2.84217e-14   8.79518e-11 DIIS
  Energy and wave function converged.


  ==> Post-Iterations <==

    Orbital Energies [Eh]
    ---------------------

    Doubly Occupied:                                                      

       1Ag   -11.256179     1B3u  -11.253039     2Ag    -1.019041  
       2B3u   -0.762386     3Ag    -0.670456     1B2u   -0.400224  
       1B1u   -0.400224  

    Virtual:                                                              

       3B3u    0.188444     1B1g    0.192366     1B2g    0.192366  
       4Ag     0.221290     4B3u    0.483347     5Ag     0.536683  
       2B1u    0.665746     2B2u    0.665746     2B2g    0.813267  
       2B1g    0.813267     5B3u    0.855798     6Ag     0.954164  
       7Ag     1.095209     3B1u    1.218324     3B2u    1.218324  
       8Ag     1.255714     1B3g    1.255714     6B3u    1.332267  
       7B3u    1.429935     3B1g    1.625382     3B2g    1.625382  
       8B3u    1.670433     1Au     1.670433     4B2u    2.049599  
       4B1u    2.049599     9Ag     2.150690     9B3u    2.503095  
       4B1g    2.663854     4B2g    2.663854    10Ag     3.216410  
      10B3u    3.584904  

    Final Occupation by Irrep:
             Ag   B1g   B2g   B3g    Au   B1u   B2u   B3u 
    DOCC [     3,    0,    0,    0,    0,    1,    1,    2 ]

  @RHF Final Energy:   -76.82289554957063

   => Energetics <=

    Nuclear Repulsion Energy =             24.3232181713792350
    One-Electron Energy =                -150.7691315058973771
    Two-Electron Energy =                  49.6230177849475069
    Total Energy =                        -76.8228955495706316

Computation Completed


Properties will be evaluated at   0.000000,   0.000000,   0.000000 [a0]

Properties computed using the SCF density matrix

  Nuclear Dipole Moment: [e a0]
     X:     0.0000      Y:     0.0000      Z:     0.0000

  Electronic Dipole Moment: [e a0]
     X:     0.0000      Y:     0.0000      Z:     0.0000

  Dipole Moment: [e a0]
     X:     0.0000      Y:     0.0000      Z:     0.0000     Total:     0.0000

  Dipole Moment: [D]
     X:     0.0000      Y:     0.0000      Z:     0.0000     Total:     0.0000


*** tstop() called on atlantis at Tue Apr 19 01:58:06 2022
Module time:
	user time   =       0.35 seconds =       0.01 minutes
	system time =       0.00 seconds =       0.00 minutes
	total time  =          0 seconds =       0.00 minutes
Total time:
	user time   =       0.84 seconds =       0.01 minutes
	system time =       0.08 seconds =       0.00 minutes
	total time  =          1 seconds =       0.02 minutes
 MINTS: Wrapper to libmints.
   by Justin Turney

   Calculation information:
      Number of threads:                 1
      Number of atoms:                   4
      Number of AO shells:              18
      Number of SO shells:               9
      Number of primitives:             54
      Number of atomic orbitals:        40
      Number of basis functions:        38

      Number of irreps:                  8
      Integral cutoff                 0.00e+00
      Number of functions per irrep: [  10    4    4    1    1    4    4   10 ]

 OEINTS: Overlap, kinetic, potential, dipole, and quadrupole integrals
         stored in file 35.

      Computing two-electron integrals...done
      Computed 38959 non-zero two-electron integrals.
        Stored in file 33.


*** tstart() called on atlantis
*** at Tue Apr 19 01:58:06 2022


	Wfn Parameters:
	--------------------
	Wavefunction         = CCSD
	Number of irreps     = 8
	Number of MOs        = 38
	Number of active MOs = 38
	AO-Basis             = NONE
	Semicanonical        = false
	Reference            = RHF
	Print Level          = 1

	IRREP	# MOs	# FZDC	# DOCC	# SOCC	# VIRT	# FZVR
	-----	-----	------	------	------	------	------
	 Ag	   10	    0	    3	    0	    7	    0
	 B1g	   4	    0	    0	    0	    4	    0
	 B2g	   4	    0	    0	    0	    4	    0
	 B3g	   1	    0	    0	    0	    1	    0
	 Au	   1	    0	    0	    0	    1	    0
	 B1u	   4	    0	    1	    0	    3	    0
	 B2u	   4	    0	    1	    0	    3	    0
	 B3u	   10	    0	    2	    0	    8	    0
	Transforming integrals...
	IWL integrals will be deleted.
	(OO|OO)...
	Presorting SO-basis two-electron integrals.
	Sorting File: SO Ints (nn|nn) nbuckets = 1
	Transforming the one-electron integrals and constructing Fock matrices
	Starting first half-transformation.
	Sorting half-transformed integrals.
	First half integral transformation complete.
	Starting second half-transformation.
	Two-electron integral transformation complete.
	(OO|OV)...
	Starting second half-transformation.
	Two-electron integral transformation complete.
	(OO|VV)...
	Starting second half-transformation.
	Two-electron integral transformation complete.
	(OV|OO)...
	Starting first half-transformation.
	Sorting half-transformed integrals.
	First half integral transformation complete.
	Starting second half-transformation.
	Two-electron integral transformation complete.
	(OV|OV)...
	Starting second half-transformation.
	Two-electron integral transformation complete.
	(OV|VV)...
	Starting second half-transformation.
	Two-electron integral transformation complete.
	(VV|OO)...
	Starting first half-transformation.
	Sorting half-transformed integrals.
	First half integral transformation complete.
	Starting second half-transformation.
	Two-electron integral transformation complete.
	(VV|OV)...
	Starting second half-transformation.
	Two-electron integral transformation complete.
	(VV|VV)...
	Starting second half-transformation.
	Two-electron integral transformation complete.
	Frozen core energy     =      0.00000000000000

	Size of irrep 0 of <ab|cd> integrals:      0.027 (MW) /      0.218 (MB)
	Size of irrep 1 of <ab|cd> integrals:      0.014 (MW) /      0.111 (MB)
	Size of irrep 2 of <ab|cd> integrals:      0.014 (MW) /      0.111 (MB)
	Size of irrep 3 of <ab|cd> integrals:      0.006 (MW) /      0.051 (MB)
	Size of irrep 4 of <ab|cd> integrals:      0.006 (MW) /      0.049 (MB)
	Size of irrep 5 of <ab|cd> integrals:      0.014 (MW) /      0.115 (MB)
	Size of irrep 6 of <ab|cd> integrals:      0.014 (MW) /      0.115 (MB)
	Size of irrep 7 of <ab|cd> integrals:      0.026 (MW) /      0.210 (MB)
	Total:                                     0.123 (MW) /      0.981 (MB)

	Size of irrep 0 of <ia|bc> integrals:      0.007 (MW) /      0.057 (MB)
	Size of irrep 1 of <ia|bc> integrals:      0.003 (MW) /      0.025 (MB)
	Size of irrep 2 of <ia|bc> integrals:      0.003 (MW) /      0.025 (MB)
	Size of irrep 3 of <ia|bc> integrals:      0.001 (MW) /      0.007 (MB)
	Size of irrep 4 of <ia|bc> integrals:      0.001 (MW) /      0.008 (MB)
	Size of irrep 5 of <ia|bc> integrals:      0.003 (MW) /      0.024 (MB)
	Size of irrep 6 of <ia|bc> integrals:      0.003 (MW) /      0.024 (MB)
	Size of irrep 7 of <ia|bc> integrals:      0.007 (MW) /      0.060 (MB)
	Total:                                     0.029 (MW) /      0.231 (MB)

	Size of irrep 0 of tijab amplitudes:       0.002 (MW) /      0.020 (MB)
	Size of irrep 1 of tijab amplitudes:       0.000 (MW) /      0.004 (MB)
	Size of irrep 2 of tijab amplitudes:       0.000 (MW) /      0.004 (MB)
	Size of irrep 3 of tijab amplitudes:       0.000 (MW) /      0.001 (MB)
	Size of irrep 4 of tijab amplitudes:       0.000 (MW) /      0.000 (MB)
	Size of irrep 5 of tijab amplitudes:       0.001 (MW) /      0.006 (MB)
	Size of irrep 6 of tijab amplitudes:       0.001 (MW) /      0.006 (MB)
	Size of irrep 7 of tijab amplitudes:       0.002 (MW) /      0.016 (MB)
	Total:                                     0.007 (MW) /      0.056 (MB)

	Nuclear Rep. energy          =     24.32321817137924
	SCF energy                   =    -76.82289554957063
	One-electron energy          =   -150.76913150256169
	Two-electron energy          =     49.62301778161186
	Reference energy             =    -76.82289554957060

*** tstop() called on atlantis at Tue Apr 19 01:58:06 2022
Module time:
	user time   =       0.02 seconds =       0.00 minutes
	system time =       0.02 seconds =       0.00 minutes
	total time  =          0 seconds =       0.00 minutes
Total time:
	user time   =       0.91 seconds =       0.02 minutes
	system time =       0.10 seconds =       0.00 minutes
	total time  =          1 seconds =       0.02 minutes
            **************************
            *                        *
            *        CCENERGY        *
            *                        *
            **************************

    Nuclear Rep. energy (wfn)     =   24.323218171379235
    SCF energy          (wfn)     =  -76.822895549570632
    Reference energy    (file100) =  -76.822895549570603

    Input parameters:
    -----------------
    Wave function   =     CCSD
    Reference wfn   =     RHF
    Brueckner       =     No
    Memory (Mbytes) =     524.3
    Maxiter         =     50
    R_Convergence   =     1.0e-07
    E_Convergence   =     1.0e-08
    Restart         =     Yes
    DIIS            =     Yes
    AO Basis        =     NONE
    ABCD            =     NEW
    Cache Level     =     2
    Cache Type      =     LOW
    Print Level     =     1
    Num. of threads =     1
    # Amps to Print =     10
    Print MP2 Amps? =     No
    Analyze T2 Amps =     No
    Print Pair Ener =     No
    Local CC        =     No
    SCS-MP2         =     False
    SCSN-MP2        =     False
    SCS-CCSD        =     False

    Using old T1 amplitudes.
    Using old T2 amplitudes.

MP2 correlation energy -0.2644746270742501
                Solving CC Amplitude Equations
                ------------------------------
  Iter             Energy              RMS        T1Diag      D1Diag    New D1Diag    D2Diag
  ----     ---------------------    ---------   ----------  ----------  ----------   --------
     0        -0.280604059814860    0.000e+00    0.011040    0.027543    0.027543    0.185657
     1        -0.280604060698296    1.946e-08    0.011040    0.027543    0.027543    0.185657
     2        -0.280604061072434    9.286e-09    0.011040    0.027543    0.027543    0.185657

    Iterations converged.


    Largest TIA Amplitudes:
              3  17         0.0212707413
              4  20         0.0212707413
              3  18         0.0154845742
              4  21         0.0154845742
              2   0        -0.0084803825
              3  19         0.0081475737
              4  22         0.0081475737
              6  26        -0.0046624333
              2   3         0.0042974253
              1   5        -0.0040283379

    Largest TIjAb Amplitudes:
      3   3  11  11        -0.1045744364
      4   4   7   7        -0.1045744364
      3   4  11   7        -0.0635678643
      4   3   7  11        -0.0635678643
      3   3  11  12        -0.0408625622
      3   3  12  11        -0.0408625622
      4   4   7   8        -0.0408625622
      4   4   8   7        -0.0408625622
      3   3  17  17        -0.0288598101
      4   4  20  20        -0.0288598101

    SCF energy       (wfn)                    =  -76.822895549570632
    Reference energy (file100)                =  -76.822895549570603

    Opposite-spin MP2 correlation energy      =   -0.200353651456388
    Same-spin MP2 correlation energy          =   -0.064120975617862
    MP2 correlation energy                    =   -0.264474627074250
      * MP2 total energy                      =  -77.087370176644853

    Opposite-spin CCSD correlation energy     =   -0.226585398769889
    Same-spin CCSD correlation energy         =   -0.054018662302546
    CCSD correlation energy                   =   -0.280604061072434
      * CCSD total energy                     =  -77.103499610643041


			**************************
			*                        *
			*         CCHBAR         *
			*                        *
			**************************


			**************************
			*        CCLAMBDA        *
			**************************


	Nuclear Rep. energy (wfn)     =   24.323218171379235
	Reference           (wfn)     =                    0
	SCF energy          (wfn)     =  -76.822895549570632
	Reference energy    (CC_INFO) =  -76.822895549570603
	CCSD energy         (CC_INFO) =   -0.280604061072434
	Total CCSD energy   (CC_INFO) =  -77.103499610643041

	Input parameters:
	-----------------
	Maxiter           =     50
	Convergence       = 1.0e-07
	Restart           =     No
	Cache Level       =     2
	Model III         =     No
	DIIS              =     Yes
	AO Basis          =     No
	ABCD              =     NEW
	Local CC          =     No
	Parameters for left-handed eigenvectors:
	    Irr   Root  Ground-State?    EOM energy        R0
	  1   0     0        Yes       0.0000000000   1.0000000000
	Labels for eigenvector 1:
	LIA 0 -1, Lia 0 -1, LIJAB 0 -1, Lijab 0 -1, LIjAb 0 -1, 2LIjAb - LIjbA 0 -1
	Symmetry of left-hand state: Ag
	Symmetry of left-hand eigenvector: Ag

	          Solving Lambda Equations
	          ------------------------
	Iter     PseudoEnergy or Norm         RMS  
	----     ---------------------     --------
	   0        -0.280750085440840    0.000e+00
	   1        -0.271646388046683    1.725e-02
	   2        -0.270200605342143    3.914e-03
	   3        -0.269983384041778    8.891e-04
	   4        -0.269972531470634    1.999e-04
	   5        -0.269966268830687    6.475e-05
	   6        -0.269963826743308    2.213e-05
	   7        -0.269963789196746    7.574e-06
	   8        -0.269963685192127    2.442e-06
	   9        -0.269963666488723    6.032e-07
	  10        -0.269963662983624    1.669e-07
	  11        -0.269963662949651    4.624e-08

	Largest LIA Amplitudes:
	          3  17         0.0152081640
	          4  20         0.0152081640
	          3  18         0.0108505550
	          4  21         0.0108505550
	          2   0        -0.0098625704
	          3  19         0.0059765987
	          4  22         0.0059765987
	          6  23         0.0052546097
	          6  26        -0.0052472504
	          2   3         0.0033527539

	Largest LIjAb Amplitudes:
	  3   3  11  11        -0.1005612774
	  4   4   7   7        -0.1005612774
	  3   4  11   7        -0.0593746467
	  4   3   7  11        -0.0593746467
	  3   3  11  12        -0.0392696400
	  3   3  12  11        -0.0392696400
	  4   4   7   8        -0.0392696400
	  4   4   8   7        -0.0392696400
	  3   4   7  11        -0.0275033795
	  4   3  11   7        -0.0275033795

	Iterations converged.

	Overlap <L|e^T> =        0.87056187878

			**************************
			*                        *
			*        CCDENSITY       *
			*                        *
			**************************


	Input parameters:
	-----------------
	Wave function    =   CCSD
	Reference wfn    =   RHF
	Dertype          = 1
	Tolerance        = 1.0e-14
	Cache Level      = 2
	AO Basis         = No
	OPDM Only        = No
	Relax OPDM       = Yes
	Compute Xi       = No
	Use Zeta         = No
	Xi connected     = Yes
	Compute NO       = No

	Nuclear Rep. energy (wfn)     =   24.323218171379235
	SCF energy          (wfn)     =  -76.822895549570632
	Reference energy    (file100) =  -76.822895549570603
	CCSD energy         (CC_INFO) =   -0.280604061072434
	Total CCSD energy   (CC_INFO) =  -77.103499610643041
	Number of States = 1

	Ground?  State     EOM Energy       R0
	  Yes     0 Ag    0.0000000000   1.00000000

	Virial Theorem Data:
	--------------------
	Kinetic energy (ref)   =   76.515367986967973
	Kinetic energy (corr)  =    0.375557284513592
	Kinetic energy (total) =   76.890925271481564
	-V/T (ref)             =    2.004019160734547
	-V/T (corr)            =    1.747167137061027
	-V/T (total)           =    2.002764621942199
  Cartesian Displacement SALCs
  By SALC:
  Number of SALCs: 2, nirreps: Ag
  Project out translations: False
  Project out rotations: False
	irrep = 0, ncomponent = 2
		0: atom 0, direction x, coef 0.707107
		1: atom 1, direction x, coef -0.707107
	irrep = 0, ncomponent = 2
		0: atom 2, direction x, coef 0.707107
		1: atom 3, direction x, coef -0.707107

  By Atomic Center:
  Number of atomic centers: 4
   Atomic Center 0:
	x component, size = 1
		0: salc 0, irrep 0, coef 0.707107
	y component, size = 0
	z component, size = 0
   Atomic Center 1:
	x component, size = 1
		0: salc 0, irrep 0, coef -0.707107
	y component, size = 0
	z component, size = 0
   Atomic Center 2:
	x component, size = 1
		0: salc 1, irrep 0, coef 0.707107
	y component, size = 0
	z component, size = 0
   Atomic Center 3:
	x component, size = 1
		0: salc 1, irrep 0, coef -0.707107
	y component, size = 0
	z component, size = 0

    Molecular point group: d2h
    Full point group: D_inf_h

    Geometry (in Bohr), charge = 0, multiplicity = 1:

       Center              X                  Y                   Z       
    ------------   -----------------  -----------------  -----------------
         C           -1.161161115049    -0.000000000000     0.000000000000
         C            1.161161115049     0.000000000000     0.000000000000
         H           -3.192182062907    -0.000000000000     0.000000000000
         H            3.192182062907     0.000000000000     0.000000000000

	Presorting MO-basis TPDM.
	Sorting File: MO TPDM (AA|AA) nbuckets = 1
	Starting first half-transformation.
	Sorting half-transformed TPDM.
	First half integral transformation complete.


  -Nuclear Repulsion Energy 1st Derivatives:
     Atom            X                  Y                   Z
    ------   -----------------  -----------------  -----------------
       1        5.537163209075     0.000000000000     0.000000000000
       2       -5.537163209075    -0.000000000000     0.000000000000
       3        1.795659009002     0.000000000000     0.000000000000
       4       -1.795659009002    -0.000000000000     0.000000000000


  -Core Hamiltonian Gradient:
     Atom            X                  Y                   Z
    ------   -----------------  -----------------  -----------------
       1      -12.842766819629    -0.000000000000     0.000000000000
       2       12.842766819629     0.000000000000     0.000000000000
       3       -4.957295960749    -0.000000000000     0.000000000000
       4        4.957295960749     0.000000000000     0.000000000000


  -Lagrangian contribution to gradient:
     Atom            X                  Y                   Z
    ------   -----------------  -----------------  -----------------
       1        0.046315360378     0.000000000000     0.000000000000
       2       -0.046315360378    -0.000000000000     0.000000000000
       3        0.246378977388     0.000000000000     0.000000000000
       4       -0.246378977388    -0.000000000000     0.000000000000


  -Two-electron contribution to gradient:
     Atom            X                  Y                   Z
    ------   -----------------  -----------------  -----------------
       1        7.243741379542     0.000000000000     0.000000000000
       2       -7.243741379542    -0.000000000000     0.000000000000
       3        2.916991809106     0.000000000000     0.000000000000
       4       -2.916991809106    -0.000000000000     0.000000000000


  -Total gradient:
     Atom            X                  Y                   Z
    ------   -----------------  -----------------  -----------------
       1       -0.015546870634    -0.000000000000     0.000000000000
       2        0.015546870634     0.000000000000     0.000000000000
       3        0.001733834747     0.000000000000     0.000000000000
       4       -0.001733834747    -0.000000000000     0.000000000000


  Based on options and gradient (rms=6.39E-03), recommend projecting translations and projecting rotations.
hessian() will perform frequency computation by finite difference of analytic gradients.

         ----------------------------------------------------------
                                   FINDIF
                     R. A. King and Jonathon Misiewicz
         ---------------------------------------------------------

  Using finite-differences of gradients to determine vibrational frequencies and 
  normal modes.  Resulting frequencies are only valid at stationary points.
    Generating geometries for use with 3-point formula.
    Displacement size will be 5.00e-03.
    Number of atoms is 4.
    Number of irreps is 8.
    Number of SALCs is 7.
    Translations projected? 1. Rotations projected? 1.
    Index of SALCs per irrep:
     1 :  0  1 
     2 :  2 
     3 :  3 
     4 : 
     5 : 
     6 :  4 
     7 :  5 
     8 :  6 
    Number of SALCs per irrep:
     Irrep 1: 2
     Irrep 2: 1
     Irrep 3: 1
     Irrep 4: 0
     Irrep 5: 0
     Irrep 6: 1
     Irrep 7: 1
     Irrep 8: 1
    Number of geometries (including reference) is 10.
    Number of displacements per irrep:
      Irrep 1: 4
      Irrep 2: 1
      Irrep 3: 1
      Irrep 4: 0
      Irrep 5: 0
      Irrep 6: 1
      Irrep 7: 1
      Irrep 8: 1

  //>>>>>>>>>>>>>>>>>>>>>>>>>>>>>>>>>>>//
  //    Loading displacement 1 of 10   //
  //<<<<<<<<<<<<<<<<<<<<<<<<<<<<<<<<<<<//
gradient() will perform analytic gradient computation.

*** tstart() called on atlantis
*** at Tue Apr 19 01:58:07 2022

   => Loading Basis Set <=

    Name: CC-PVDZ
    Role: ORBITAL
    Keyword: BASIS
    atoms 1-2 entry C          line   138 file /home/akrom/software/anaconda3/envs/ffpenv/share/psi4/basis/cc-pvdz.gbs 
    atoms 3-4 entry H          line    22 file /home/akrom/software/anaconda3/envs/ffpenv/share/psi4/basis/cc-pvdz.gbs 


         ---------------------------------------------------------
                                   SCF
               by Justin Turney, Rob Parrish, Andy Simmonett
                          and Daniel G. A. Smith
                              RHF Reference
                        1 Threads,    500 MiB Core
         ---------------------------------------------------------

  ==> Geometry <==

    Molecular point group: d2h
    Full point group: D_inf_h

    Geometry (in Angstrom), charge = 0, multiplicity = 1:

       Center              X                  Y                   Z               Mass       
    ------------   -----------------  -----------------  -----------------  -----------------
         C           -0.614460000000    -0.000000000000     0.000000000000    12.000000000000
         C            0.614460000000     0.000000000000     0.000000000000    12.000000000000
         H           -1.689230000000    -0.000000000000     0.000000000000     1.007825032230
         H            1.689230000000     0.000000000000     0.000000000000     1.007825032230

  Running in d2h symmetry.

  Rotational constants: A = ************  B =      1.13802  C =      1.13802 [cm^-1]
  Rotational constants: A = ************  B =  34116.98697  C =  34116.98697 [MHz]
  Nuclear repulsion =   24.323218171379235

  Charge       = 0
  Multiplicity = 1
  Electrons    = 14
  Nalpha       = 7
  Nbeta        = 7

  ==> Algorithm <==

  SCF Algorithm Type is PK.
  DIIS enabled.
  MOM disabled.
  Fractional occupation disabled.
  Guess Type is SAD.
  Energy threshold   = 1.00e-10
  Density threshold  = 1.00e-10
  Integral threshold = 0.00e+00

  ==> Primary Basis <==

  Basis Set: CC-PVDZ
    Blend: CC-PVDZ
    Number of shells: 18
    Number of basis function: 38
    Number of Cartesian functions: 40
    Spherical Harmonics?: true
    Max angular momentum: 2

  ==> Pre-Iterations <==

   -------------------------------------------------------
    Irrep   Nso     Nmo     Nalpha   Nbeta   Ndocc  Nsocc
   -------------------------------------------------------
     Ag        10      10       0       0       0       0
     B1g        4       4       0       0       0       0
     B2g        4       4       0       0       0       0
     B3g        1       1       0       0       0       0
     Au         1       1       0       0       0       0
     B1u        4       4       0       0       0       0
     B2u        4       4       0       0       0       0
     B3u       10      10       0       0       0       0
   -------------------------------------------------------
    Total      38      38       7       7       7       0
   -------------------------------------------------------

  ==> Integral Setup <==

  Using in-core PK algorithm.
   Calculation information:
      Number of atoms:                   4
      Number of AO shells:              18
      Number of primitives:             54
      Number of atomic orbitals:        40
      Number of basis functions:        38

      Integral cutoff                 1.00e-12
      Number of threads:                 1

  Performing in-core PK
  Using 549822 doubles for integral storage.
  We computed 14706 shell quartets total.
  Whereas there are 14706 unique shell quartets.

  ==> DiskJK: Disk-Based J/K Matrices <==

    J tasked:                  Yes
    K tasked:                  Yes
    wK tasked:                  No
    Memory [MiB]:              375
    Schwarz Cutoff:          1E-12

    OpenMP threads:              1

  Minimum eigenvalue in the overlap matrix is 9.7545658209E-04.
  Using Symmetric Orthogonalization.

  SCF Guess: Superposition of Atomic Densities via on-the-fly atomic UHF.

  ==> Iterations <==

                        Total Energy        Delta E     RMS |[F,P]|

   @RHF iter SAD:   -75.92063447777716   -7.59206e+01   0.00000e+00 
   @RHF iter   1:   -76.79370665557742   -8.73072e-01   1.29782e-02 DIIS
   @RHF iter   2:   -76.82034466381668   -2.66380e-02   4.00381e-03 DIIS
   @RHF iter   3:   -76.82278595040832   -2.44129e-03   6.19853e-04 DIIS
   @RHF iter   4:   -76.82289401690976   -1.08067e-04   7.13624e-05 DIIS
   @RHF iter   5:   -76.82289550457185   -1.48766e-06   1.20021e-05 DIIS
   @RHF iter   6:   -76.82289554877852   -4.42067e-08   1.61136e-06 DIIS
   @RHF iter   7:   -76.82289554955534   -7.76822e-10   2.36320e-07 DIIS
   @RHF iter   8:   -76.82289554957055   -1.52056e-11   9.02561e-09 DIIS
   @RHF iter   9:   -76.82289554957066   -1.13687e-13   8.57853e-10 DIIS
   @RHF iter  10:   -76.82289554957063    2.84217e-14   8.79518e-11 DIIS
  Energy and wave function converged.


  ==> Post-Iterations <==

    Orbital Energies [Eh]
    ---------------------

    Doubly Occupied:                                                      

       1Ag   -11.256179     1B3u  -11.253039     2Ag    -1.019041  
       2B3u   -0.762386     3Ag    -0.670456     1B2u   -0.400224  
       1B1u   -0.400224  

    Virtual:                                                              

       3B3u    0.188444     1B1g    0.192366     1B2g    0.192366  
       4Ag     0.221290     4B3u    0.483347     5Ag     0.536683  
       2B1u    0.665746     2B2u    0.665746     2B2g    0.813267  
       2B1g    0.813267     5B3u    0.855798     6Ag     0.954164  
       7Ag     1.095209     3B1u    1.218324     3B2u    1.218324  
       8Ag     1.255714     1B3g    1.255714     6B3u    1.332267  
       7B3u    1.429935     3B1g    1.625382     3B2g    1.625382  
       8B3u    1.670433     1Au     1.670433     4B2u    2.049599  
       4B1u    2.049599     9Ag     2.150690     9B3u    2.503095  
       4B1g    2.663854     4B2g    2.663854    10Ag     3.216410  
      10B3u    3.584904  

    Final Occupation by Irrep:
             Ag   B1g   B2g   B3g    Au   B1u   B2u   B3u 
    DOCC [     3,    0,    0,    0,    0,    1,    1,    2 ]

  @RHF Final Energy:   -76.82289554957063

   => Energetics <=

    Nuclear Repulsion Energy =             24.3232181713792350
    One-Electron Energy =                -150.7691315058973771
    Two-Electron Energy =                  49.6230177849475069
    Total Energy =                        -76.8228955495706316

Computation Completed


Properties will be evaluated at   0.000000,   0.000000,   0.000000 [a0]

Properties computed using the SCF density matrix

  Nuclear Dipole Moment: [e a0]
     X:     0.0000      Y:     0.0000      Z:     0.0000

  Electronic Dipole Moment: [e a0]
     X:     0.0000      Y:     0.0000      Z:     0.0000

  Dipole Moment: [e a0]
     X:     0.0000      Y:     0.0000      Z:     0.0000     Total:     0.0000

  Dipole Moment: [D]
     X:     0.0000      Y:     0.0000      Z:     0.0000     Total:     0.0000


*** tstop() called on atlantis at Tue Apr 19 01:58:07 2022
Module time:
	user time   =       0.35 seconds =       0.01 minutes
	system time =       0.00 seconds =       0.00 minutes
	total time  =          0 seconds =       0.00 minutes
Total time:
	user time   =       1.83 seconds =       0.03 minutes
	system time =       0.18 seconds =       0.00 minutes
	total time  =          2 seconds =       0.03 minutes
 MINTS: Wrapper to libmints.
   by Justin Turney

   Calculation information:
      Number of threads:                 1
      Number of atoms:                   4
      Number of AO shells:              18
      Number of SO shells:               9
      Number of primitives:             54
      Number of atomic orbitals:        40
      Number of basis functions:        38

      Number of irreps:                  8
      Integral cutoff                 0.00e+00
      Number of functions per irrep: [  10    4    4    1    1    4    4   10 ]

 OEINTS: Overlap, kinetic, potential, dipole, and quadrupole integrals
         stored in file 35.

      Computing two-electron integrals...done
      Computed 38959 non-zero two-electron integrals.
        Stored in file 33.


*** tstart() called on atlantis
*** at Tue Apr 19 01:58:07 2022


	Wfn Parameters:
	--------------------
	Wavefunction         = CCSD
	Number of irreps     = 8
	Number of MOs        = 38
	Number of active MOs = 38
	AO-Basis             = NONE
	Semicanonical        = false
	Reference            = RHF
	Print Level          = 1

	IRREP	# MOs	# FZDC	# DOCC	# SOCC	# VIRT	# FZVR
	-----	-----	------	------	------	------	------
	 Ag	   10	    0	    3	    0	    7	    0
	 B1g	   4	    0	    0	    0	    4	    0
	 B2g	   4	    0	    0	    0	    4	    0
	 B3g	   1	    0	    0	    0	    1	    0
	 Au	   1	    0	    0	    0	    1	    0
	 B1u	   4	    0	    1	    0	    3	    0
	 B2u	   4	    0	    1	    0	    3	    0
	 B3u	   10	    0	    2	    0	    8	    0
	Transforming integrals...
	IWL integrals will be deleted.
	(OO|OO)...
	Presorting SO-basis two-electron integrals.
	Sorting File: SO Ints (nn|nn) nbuckets = 1
	Transforming the one-electron integrals and constructing Fock matrices
	Starting first half-transformation.
	Sorting half-transformed integrals.
	First half integral transformation complete.
	Starting second half-transformation.
	Two-electron integral transformation complete.
	(OO|OV)...
	Starting second half-transformation.
	Two-electron integral transformation complete.
	(OO|VV)...
	Starting second half-transformation.
	Two-electron integral transformation complete.
	(OV|OO)...
	Starting first half-transformation.
	Sorting half-transformed integrals.
	First half integral transformation complete.
	Starting second half-transformation.
	Two-electron integral transformation complete.
	(OV|OV)...
	Starting second half-transformation.
	Two-electron integral transformation complete.
	(OV|VV)...
	Starting second half-transformation.
	Two-electron integral transformation complete.
	(VV|OO)...
	Starting first half-transformation.
	Sorting half-transformed integrals.
	First half integral transformation complete.
	Starting second half-transformation.
	Two-electron integral transformation complete.
	(VV|OV)...
	Starting second half-transformation.
	Two-electron integral transformation complete.
	(VV|VV)...
	Starting second half-transformation.
	Two-electron integral transformation complete.
	Frozen core energy     =      0.00000000000000

	Size of irrep 0 of <ab|cd> integrals:      0.027 (MW) /      0.218 (MB)
	Size of irrep 1 of <ab|cd> integrals:      0.014 (MW) /      0.111 (MB)
	Size of irrep 2 of <ab|cd> integrals:      0.014 (MW) /      0.111 (MB)
	Size of irrep 3 of <ab|cd> integrals:      0.006 (MW) /      0.051 (MB)
	Size of irrep 4 of <ab|cd> integrals:      0.006 (MW) /      0.049 (MB)
	Size of irrep 5 of <ab|cd> integrals:      0.014 (MW) /      0.115 (MB)
	Size of irrep 6 of <ab|cd> integrals:      0.014 (MW) /      0.115 (MB)
	Size of irrep 7 of <ab|cd> integrals:      0.026 (MW) /      0.210 (MB)
	Total:                                     0.123 (MW) /      0.981 (MB)

	Size of irrep 0 of <ia|bc> integrals:      0.007 (MW) /      0.057 (MB)
	Size of irrep 1 of <ia|bc> integrals:      0.003 (MW) /      0.025 (MB)
	Size of irrep 2 of <ia|bc> integrals:      0.003 (MW) /      0.025 (MB)
	Size of irrep 3 of <ia|bc> integrals:      0.001 (MW) /      0.007 (MB)
	Size of irrep 4 of <ia|bc> integrals:      0.001 (MW) /      0.008 (MB)
	Size of irrep 5 of <ia|bc> integrals:      0.003 (MW) /      0.024 (MB)
	Size of irrep 6 of <ia|bc> integrals:      0.003 (MW) /      0.024 (MB)
	Size of irrep 7 of <ia|bc> integrals:      0.007 (MW) /      0.060 (MB)
	Total:                                     0.029 (MW) /      0.231 (MB)

	Size of irrep 0 of tijab amplitudes:       0.002 (MW) /      0.020 (MB)
	Size of irrep 1 of tijab amplitudes:       0.000 (MW) /      0.004 (MB)
	Size of irrep 2 of tijab amplitudes:       0.000 (MW) /      0.004 (MB)
	Size of irrep 3 of tijab amplitudes:       0.000 (MW) /      0.001 (MB)
	Size of irrep 4 of tijab amplitudes:       0.000 (MW) /      0.000 (MB)
	Size of irrep 5 of tijab amplitudes:       0.001 (MW) /      0.006 (MB)
	Size of irrep 6 of tijab amplitudes:       0.001 (MW) /      0.006 (MB)
	Size of irrep 7 of tijab amplitudes:       0.002 (MW) /      0.016 (MB)
	Total:                                     0.007 (MW) /      0.056 (MB)

	Nuclear Rep. energy          =     24.32321817137924
	SCF energy                   =    -76.82289554957063
	One-electron energy          =   -150.76913150256169
	Two-electron energy          =     49.62301778161186
	Reference energy             =    -76.82289554957060

*** tstop() called on atlantis at Tue Apr 19 01:58:07 2022
Module time:
	user time   =       0.01 seconds =       0.00 minutes
	system time =       0.03 seconds =       0.00 minutes
	total time  =          0 seconds =       0.00 minutes
Total time:
	user time   =       1.89 seconds =       0.03 minutes
	system time =       0.21 seconds =       0.00 minutes
	total time  =          2 seconds =       0.03 minutes
            **************************
            *                        *
            *        CCENERGY        *
            *                        *
            **************************

    Nuclear Rep. energy (wfn)     =   24.323218171379235
    SCF energy          (wfn)     =  -76.822895549570632
    Reference energy    (file100) =  -76.822895549570603

    Input parameters:
    -----------------
    Wave function   =     CCSD
    Reference wfn   =     RHF
    Brueckner       =     No
    Memory (Mbytes) =     524.3
    Maxiter         =     50
    R_Convergence   =     1.0e-07
    E_Convergence   =     1.0e-08
    Restart         =     Yes
    DIIS            =     Yes
    AO Basis        =     NONE
    ABCD            =     NEW
    Cache Level     =     2
    Cache Type      =     LOW
    Print Level     =     1
    Num. of threads =     1
    # Amps to Print =     10
    Print MP2 Amps? =     No
    Analyze T2 Amps =     No
    Print Pair Ener =     No
    Local CC        =     No
    SCS-MP2         =     False
    SCSN-MP2        =     False
    SCS-CCSD        =     False

MP2 correlation energy -0.2644746270742501
                Solving CC Amplitude Equations
                ------------------------------
  Iter             Energy              RMS        T1Diag      D1Diag    New D1Diag    D2Diag
  ----     ---------------------    ---------   ----------  ----------  ----------   --------
     0        -0.264474627074250    0.000e+00    0.000000    0.000000    0.000000    0.161190
     1        -0.268673484975300    5.405e-02    0.009015    0.022851    0.022851    0.164150
     2        -0.277748098868367    2.309e-02    0.009679    0.024240    0.024240    0.175797
     3        -0.280181434381801    9.957e-03    0.011020    0.027499    0.027499    0.182575
     4        -0.280572865492536    3.244e-03    0.011083    0.027623    0.027623    0.185261
     5        -0.280599776891886    6.149e-04    0.011055    0.027568    0.027568    0.185609
     6        -0.280601732761621    1.620e-04    0.011043    0.027547    0.027547    0.185646
     7        -0.280604391778493    3.694e-05    0.011041    0.027543    0.027543    0.185656
     8        -0.280604127472058    8.722e-06    0.011040    0.027543    0.027543    0.185657
     9        -0.280604002641615    2.096e-06    0.011040    0.027543    0.027543    0.185657
    10        -0.280604066185049    6.411e-07    0.011040    0.027543    0.027543    0.185657
    11        -0.280604056898118    1.676e-07    0.011040    0.027543    0.027543    0.185657
    12        -0.280604060768300    4.603e-08    0.011040    0.027543    0.027543    0.185657

    Iterations converged.


    Largest TIA Amplitudes:
              3  17         0.0212707372
              4  20         0.0212707372
              3  18         0.0154845741
              4  21         0.0154845741
              2   0        -0.0084803745
              3  19         0.0081475734
              4  22         0.0081475734
              6  26        -0.0046624340
              2   3         0.0042974250
              1   5        -0.0040283377

    Largest TIjAb Amplitudes:
      3   3  11  11        -0.1045744318
      4   4   7   7        -0.1045744318
      3   4  11   7        -0.0635678646
      4   3   7  11        -0.0635678646
      3   3  11  12        -0.0408625599
      3   3  12  11        -0.0408625599
      4   4   7   8        -0.0408625599
      4   4   8   7        -0.0408625599
      3   3  17  17        -0.0288598111
      4   4  20  20        -0.0288598111

    SCF energy       (wfn)                    =  -76.822895549570632
    Reference energy (file100)                =  -76.822895549570603

    Opposite-spin MP2 correlation energy      =   -0.200353651456388
    Same-spin MP2 correlation energy          =   -0.064120975617862
    MP2 correlation energy                    =   -0.264474627074250
      * MP2 total energy                      =  -77.087370176644853

    Opposite-spin CCSD correlation energy     =   -0.226585397930322
    Same-spin CCSD correlation energy         =   -0.054018662837978
    CCSD correlation energy                   =   -0.280604060768300
      * CCSD total energy                     =  -77.103499610338901


			**************************
			*                        *
			*         CCHBAR         *
			*                        *
			**************************


			**************************
			*        CCLAMBDA        *
			**************************


	Nuclear Rep. energy (wfn)     =   24.323218171379235
	Reference           (wfn)     =                    0
	SCF energy          (wfn)     =  -76.822895549570632
	Reference energy    (CC_INFO) =  -76.822895549570603
	CCSD energy         (CC_INFO) =   -0.280604060768300
	Total CCSD energy   (CC_INFO) =  -77.103499610338901

	Input parameters:
	-----------------
	Maxiter           =     50
	Convergence       = 1.0e-07
	Restart           =     No
	Cache Level       =     2
	Model III         =     No
	DIIS              =     Yes
	AO Basis          =     No
	ABCD              =     NEW
	Local CC          =     No
	Parameters for left-handed eigenvectors:
	    Irr   Root  Ground-State?    EOM energy        R0
	  1   0     0        Yes       0.0000000000   1.0000000000
	Labels for eigenvector 1:
	LIA 0 -1, Lia 0 -1, LIJAB 0 -1, Lijab 0 -1, LIjAb 0 -1, 2LIjAb - LIjbA 0 -1
	Symmetry of left-hand state: Ag
	Symmetry of left-hand eigenvector: Ag

	          Solving Lambda Equations
	          ------------------------
	Iter     PseudoEnergy or Norm         RMS  
	----     ---------------------     --------
	   0        -0.280750085130957    4.624e-08
	   1        -0.271646387787167    1.725e-02
	   2        -0.270200605446583    3.914e-03
	   3        -0.269983384153514    8.891e-04
	   4        -0.269972531578195    1.999e-04
	   5        -0.269966268922863    6.475e-05
	   6        -0.269963826838260    2.213e-05
	   7        -0.269963789293415    7.574e-06
	   8        -0.269963685287942    2.442e-06
	   9        -0.269963666585074    6.031e-07
	  10        -0.269963663079882    1.669e-07
	  11        -0.269963663045914    4.624e-08

	Largest LIA Amplitudes:
	          3  17         0.0152081638
	          4  20         0.0152081638
	          3  18         0.0108505553
	          4  21         0.0108505553
	          2   0        -0.0098625702
	          3  19         0.0059765988
	          4  22         0.0059765988
	          6  23         0.0052546098
	          6  26        -0.0052472503
	          2   3         0.0033527540

	Largest LIjAb Amplitudes:
	  3   3  11  11        -0.1005612772
	  4   4   7   7        -0.1005612772
	  3   4  11   7        -0.0593746469
	  4   3   7  11        -0.0593746469
	  3   3  11  12        -0.0392696399
	  3   3  12  11        -0.0392696399
	  4   4   7   8        -0.0392696399
	  4   4   8   7        -0.0392696399
	  3   4   7  11        -0.0275033794
	  4   3  11   7        -0.0275033794

	Iterations converged.

	Overlap <L|e^T> =        0.87056187977

			**************************
			*                        *
			*        CCDENSITY       *
			*                        *
			**************************


	Input parameters:
	-----------------
	Wave function    =   CCSD
	Reference wfn    =   RHF
	Dertype          = 1
	Tolerance        = 1.0e-14
	Cache Level      = 2
	AO Basis         = No
	OPDM Only        = No
	Relax OPDM       = Yes
	Compute Xi       = No
	Use Zeta         = No
	Xi connected     = Yes
	Compute NO       = No

	Nuclear Rep. energy (wfn)     =   24.323218171379235
	SCF energy          (wfn)     =  -76.822895549570632
	Reference energy    (file100) =  -76.822895549570603
	CCSD energy         (CC_INFO) =   -0.280604060768300
	Total CCSD energy   (CC_INFO) =  -77.103499610338901
	Number of States = 1

	Ground?  State     EOM Energy       R0
	  Yes     0 Ag    0.0000000000   1.00000000

	Virial Theorem Data:
	--------------------
	Kinetic energy (ref)   =   76.515367986967973
	Kinetic energy (corr)  =    0.375557277337504
	Kinetic energy (total) =   76.890925264305480
	-V/T (ref)             =    2.004019160734547
	-V/T (corr)            =    1.747167150527957
	-V/T (total)           =    2.002764622031829
  Cartesian Displacement SALCs
  By SALC:
  Number of SALCs: 2, nirreps: Ag
  Project out translations: False
  Project out rotations: False
	irrep = 0, ncomponent = 2
		0: atom 0, direction x, coef 0.707107
		1: atom 1, direction x, coef -0.707107
	irrep = 0, ncomponent = 2
		0: atom 2, direction x, coef 0.707107
		1: atom 3, direction x, coef -0.707107

  By Atomic Center:
  Number of atomic centers: 4
   Atomic Center 0:
	x component, size = 1
		0: salc 0, irrep 0, coef 0.707107
	y component, size = 0
	z component, size = 0
   Atomic Center 1:
	x component, size = 1
		0: salc 0, irrep 0, coef -0.707107
	y component, size = 0
	z component, size = 0
   Atomic Center 2:
	x component, size = 1
		0: salc 1, irrep 0, coef 0.707107
	y component, size = 0
	z component, size = 0
   Atomic Center 3:
	x component, size = 1
		0: salc 1, irrep 0, coef -0.707107
	y component, size = 0
	z component, size = 0

    Molecular point group: d2h
    Full point group: D_inf_h

    Geometry (in Bohr), charge = 0, multiplicity = 1:

       Center              X                  Y                   Z       
    ------------   -----------------  -----------------  -----------------
         C           -1.161161115049    -0.000000000000     0.000000000000
         C            1.161161115049     0.000000000000     0.000000000000
         H           -3.192182062907    -0.000000000000     0.000000000000
         H            3.192182062907     0.000000000000     0.000000000000

	Presorting MO-basis TPDM.
	Sorting File: MO TPDM (AA|AA) nbuckets = 1
	Starting first half-transformation.
	Sorting half-transformed TPDM.
	First half integral transformation complete.


  -Nuclear Repulsion Energy 1st Derivatives:
     Atom            X                  Y                   Z
    ------   -----------------  -----------------  -----------------
       1        5.537163209075     0.000000000000     0.000000000000
       2       -5.537163209075    -0.000000000000     0.000000000000
       3        1.795659009002     0.000000000000     0.000000000000
       4       -1.795659009002    -0.000000000000     0.000000000000


  -Core Hamiltonian Gradient:
     Atom            X                  Y                   Z
    ------   -----------------  -----------------  -----------------
       1      -12.842766815921    -0.000000000000     0.000000000000
       2       12.842766815921     0.000000000000     0.000000000000
       3       -4.957295966978    -0.000000000000     0.000000000000
       4        4.957295966978     0.000000000000     0.000000000000


  -Lagrangian contribution to gradient:
     Atom            X                  Y                   Z
    ------   -----------------  -----------------  -----------------
       1        0.046315360190     0.000000000000     0.000000000000
       2       -0.046315360190    -0.000000000000     0.000000000000
       3        0.246378977340     0.000000000000     0.000000000000
       4       -0.246378977340    -0.000000000000     0.000000000000


  -Two-electron contribution to gradient:
     Atom            X                  Y                   Z
    ------   -----------------  -----------------  -----------------
       1        7.243741375272     0.000000000000     0.000000000000
       2       -7.243741375272    -0.000000000000     0.000000000000
       3        2.916991815715     0.000000000000     0.000000000000
       4       -2.916991815715    -0.000000000000     0.000000000000


  -Total gradient:
     Atom            X                  Y                   Z
    ------   -----------------  -----------------  -----------------
       1       -0.015546871385    -0.000000000000     0.000000000000
       2        0.015546871385     0.000000000000     0.000000000000
       3        0.001733835078     0.000000000000     0.000000000000
       4       -0.001733835078    -0.000000000000     0.000000000000


  //>>>>>>>>>>>>>>>>>>>>>>>>>>>>>>>>>>>//
  //    Loading displacement 2 of 10   //
  //<<<<<<<<<<<<<<<<<<<<<<<<<<<<<<<<<<<//
gradient() will perform analytic gradient computation.

*** tstart() called on atlantis
*** at Tue Apr 19 01:58:08 2022

   => Loading Basis Set <=

    Name: CC-PVDZ
    Role: ORBITAL
    Keyword: BASIS
    atoms 1-2 entry C          line   138 file /home/akrom/software/anaconda3/envs/ffpenv/share/psi4/basis/cc-pvdz.gbs 
    atoms 3-4 entry H          line    22 file /home/akrom/software/anaconda3/envs/ffpenv/share/psi4/basis/cc-pvdz.gbs 


         ---------------------------------------------------------
                                   SCF
               by Justin Turney, Rob Parrish, Andy Simmonett
                          and Daniel G. A. Smith
                              RHF Reference
                        1 Threads,    500 MiB Core
         ---------------------------------------------------------

  ==> Geometry <==

    Molecular point group: d2h
    Full point group: D_inf_h

    Geometry (in Angstrom), charge = 0, multiplicity = 1:

       Center              X                  Y                   Z               Mass       
    ------------   -----------------  -----------------  -----------------  -----------------
         C           -0.615000089229    -0.000000000000     0.000000000000    12.000000000000
         C            0.615000089229     0.000000000000     0.000000000000    12.000000000000
         H           -1.689230000000    -0.000000000000     0.000000000000     1.007825032230
         H            1.689230000000     0.000000000000     0.000000000000     1.007825032230

  Running in d2h symmetry.

  Rotational constants: A = ************  B =      1.13680  C =      1.13680 [cm^-1]
  Rotational constants: A = ************  B =  34080.32226  C =  34080.32226 [MHz]
  Nuclear repulsion =   24.311929094340595

  Charge       = 0
  Multiplicity = 1
  Electrons    = 14
  Nalpha       = 7
  Nbeta        = 7

  ==> Algorithm <==

  SCF Algorithm Type is PK.
  DIIS enabled.
  MOM disabled.
  Fractional occupation disabled.
  Guess Type is SAD.
  Energy threshold   = 1.00e-10
  Density threshold  = 1.00e-10
  Integral threshold = 0.00e+00

  ==> Primary Basis <==

  Basis Set: CC-PVDZ
    Blend: CC-PVDZ
    Number of shells: 18
    Number of basis function: 38
    Number of Cartesian functions: 40
    Spherical Harmonics?: true
    Max angular momentum: 2

  ==> Pre-Iterations <==

   -------------------------------------------------------
    Irrep   Nso     Nmo     Nalpha   Nbeta   Ndocc  Nsocc
   -------------------------------------------------------
     Ag        10      10       0       0       0       0
     B1g        4       4       0       0       0       0
     B2g        4       4       0       0       0       0
     B3g        1       1       0       0       0       0
     Au         1       1       0       0       0       0
     B1u        4       4       0       0       0       0
     B2u        4       4       0       0       0       0
     B3u       10      10       0       0       0       0
   -------------------------------------------------------
    Total      38      38       7       7       7       0
   -------------------------------------------------------

  ==> Integral Setup <==

  Using in-core PK algorithm.
   Calculation information:
      Number of atoms:                   4
      Number of AO shells:              18
      Number of primitives:             54
      Number of atomic orbitals:        40
      Number of basis functions:        38

      Integral cutoff                 1.00e-12
      Number of threads:                 1

  Performing in-core PK
  Using 549822 doubles for integral storage.
  We computed 14706 shell quartets total.
  Whereas there are 14706 unique shell quartets.

  ==> DiskJK: Disk-Based J/K Matrices <==

    J tasked:                  Yes
    K tasked:                  Yes
    wK tasked:                  No
    Memory [MiB]:              375
    Schwarz Cutoff:          1E-12

    OpenMP threads:              1

  Minimum eigenvalue in the overlap matrix is 9.8028667080E-04.
  Using Symmetric Orthogonalization.

  SCF Guess: Superposition of Atomic Densities via on-the-fly atomic UHF.

  ==> Iterations <==

                        Total Energy        Delta E     RMS |[F,P]|

   @RHF iter SAD:   -75.91950839581006   -7.59195e+01   0.00000e+00 
   @RHF iter   1:   -76.79365217196759   -8.74144e-01   1.29493e-02 DIIS
   @RHF iter   2:   -76.82020417348170   -2.65520e-02   3.99316e-03 DIIS
   @RHF iter   3:   -76.82263330055355   -2.42913e-03   6.20405e-04 DIIS
   @RHF iter   4:   -76.82274166847212   -1.08368e-04   7.14530e-05 DIIS
   @RHF iter   5:   -76.82274315938024   -1.49091e-06   1.19974e-05 DIIS
   @RHF iter   6:   -76.82274320352430   -4.41441e-08   1.60997e-06 DIIS
   @RHF iter   7:   -76.82274320429919   -7.74889e-10   2.36363e-07 DIIS
   @RHF iter   8:   -76.82274320431446   -1.52767e-11   9.01473e-09 DIIS
   @RHF iter   9:   -76.82274320431445    1.42109e-14   8.55595e-10 DIIS
   @RHF iter  10:   -76.82274320431448   -2.84217e-14   8.73993e-11 DIIS
  Energy and wave function converged.


  ==> Post-Iterations <==

    Orbital Energies [Eh]
    ---------------------

    Doubly Occupied:                                                      

       1Ag   -11.256446     1B3u  -11.253327     2Ag    -1.018756  
       2B3u   -0.762768     3Ag    -0.670613     1B1u   -0.399997  
       1B2u   -0.399997  

    Virtual:                                                              

       3B3u    0.188453     1B2g    0.192026     1B1g    0.192026  
       4Ag     0.221300     4B3u    0.482987     5Ag     0.536949  
       2B2u    0.665941     2B1u    0.665941     2B2g    0.813045  
       2B1g    0.813045     5B3u    0.855920     6Ag     0.954310  
       7Ag     1.095192     3B2u    1.217923     3B1u    1.217923  
       8Ag     1.255807     1B3g    1.255807     6B3u    1.330919  
       7B3u    1.429577     3B1g    1.625213     3B2g    1.625213  
       8B3u    1.669938     1Au     1.669938     4B2u    2.049435  
       4B1u    2.049435     9Ag     2.150946     9B3u    2.503036  
       4B1g    2.663785     4B2g    2.663785    10Ag     3.217541  
      10B3u    3.582408  

    Final Occupation by Irrep:
             Ag   B1g   B2g   B3g    Au   B1u   B2u   B3u 
    DOCC [     3,    0,    0,    0,    0,    1,    1,    2 ]

  @RHF Final Energy:   -76.82274320431448

   => Energetics <=

    Nuclear Repulsion Energy =             24.3119290943405950
    One-Electron Energy =                -150.7455386382898155
    Two-Electron Energy =                  49.6108663396347325
    Total Energy =                        -76.8227432043144915

Computation Completed


Properties will be evaluated at   0.000000,   0.000000,   0.000000 [a0]

Properties computed using the SCF density matrix

  Nuclear Dipole Moment: [e a0]
     X:     0.0000      Y:     0.0000      Z:     0.0000

  Electronic Dipole Moment: [e a0]
     X:     0.0000      Y:     0.0000      Z:     0.0000

  Dipole Moment: [e a0]
     X:     0.0000      Y:     0.0000      Z:     0.0000     Total:     0.0000

  Dipole Moment: [D]
     X:     0.0000      Y:     0.0000      Z:     0.0000     Total:     0.0000


*** tstop() called on atlantis at Tue Apr 19 01:58:08 2022
Module time:
	user time   =       0.34 seconds =       0.01 minutes
	system time =       0.00 seconds =       0.00 minutes
	total time  =          0 seconds =       0.00 minutes
Total time:
	user time   =       2.58 seconds =       0.04 minutes
	system time =       0.30 seconds =       0.01 minutes
	total time  =          3 seconds =       0.05 minutes
 MINTS: Wrapper to libmints.
   by Justin Turney

   Calculation information:
      Number of threads:                 1
      Number of atoms:                   4
      Number of AO shells:              18
      Number of SO shells:               9
      Number of primitives:             54
      Number of atomic orbitals:        40
      Number of basis functions:        38

      Number of irreps:                  8
      Integral cutoff                 0.00e+00
      Number of functions per irrep: [  10    4    4    1    1    4    4   10 ]

 OEINTS: Overlap, kinetic, potential, dipole, and quadrupole integrals
         stored in file 35.

      Computing two-electron integrals...done
      Computed 38959 non-zero two-electron integrals.
        Stored in file 33.


*** tstart() called on atlantis
*** at Tue Apr 19 01:58:08 2022


	Wfn Parameters:
	--------------------
	Wavefunction         = CCSD
	Number of irreps     = 8
	Number of MOs        = 38
	Number of active MOs = 38
	AO-Basis             = NONE
	Semicanonical        = false
	Reference            = RHF
	Print Level          = 1

	IRREP	# MOs	# FZDC	# DOCC	# SOCC	# VIRT	# FZVR
	-----	-----	------	------	------	------	------
	 Ag	   10	    0	    3	    0	    7	    0
	 B1g	   4	    0	    0	    0	    4	    0
	 B2g	   4	    0	    0	    0	    4	    0
	 B3g	   1	    0	    0	    0	    1	    0
	 Au	   1	    0	    0	    0	    1	    0
	 B1u	   4	    0	    1	    0	    3	    0
	 B2u	   4	    0	    1	    0	    3	    0
	 B3u	   10	    0	    2	    0	    8	    0
	Transforming integrals...
	IWL integrals will be deleted.
	(OO|OO)...
	Presorting SO-basis two-electron integrals.
	Sorting File: SO Ints (nn|nn) nbuckets = 1
	Transforming the one-electron integrals and constructing Fock matrices
	Starting first half-transformation.
[...]
     6        -0.280601804396381    1.620e-04    0.011043    0.027547    0.027547    0.185646
     7        -0.280604463484067    3.694e-05    0.011041    0.027543    0.027543    0.185656
     8        -0.280604199238944    8.723e-06    0.011040    0.027543    0.027543    0.185657
     9        -0.280604074392271    2.096e-06    0.011040    0.027543    0.027543    0.185657
    10        -0.280604137936060    6.412e-07    0.011040    0.027543    0.027543    0.185657
    11        -0.280604128650331    1.676e-07    0.011040    0.027543    0.027543    0.185657
    12        -0.280604132520742    4.604e-08    0.011040    0.027543    0.027543    0.185657

    Iterations converged.


    Largest TIA Amplitudes:
              5  18         0.0212707411
              6  25         0.0212707411
              5  20         0.0154845664
              6  27         0.0154845664
              4   1         0.0084795053
              5  22         0.0081474950
              6  29         0.0081474950
              3   8        -0.0046623102
              4   6        -0.0042977200
              2  11        -0.0040281866

    Largest TIjAb Amplitudes:
      5   5  17  17        -0.1045744838
      6   6  24  24        -0.1045744838
      5   6  17  24        -0.0635678885
      6   5  24  17        -0.0635678885
      5   5  17  19        -0.0408625680
      5   5  19  17        -0.0408625680
      6   6  24  26        -0.0408625680
      6   6  26  24        -0.0408625680
      5   5  18  18        -0.0288597943
      6   6  25  25        -0.0288597943

    SCF energy       (wfn)                    =  -76.822889839943798
    Reference energy (file100)                =  -76.822889839943841

    Opposite-spin MP2 correlation energy      =   -0.200353687559971
    Same-spin MP2 correlation energy          =   -0.064120985459753
    MP2 correlation energy                    =   -0.264474673019724
      * MP2 total energy                      =  -77.087364512963561

    Opposite-spin CCSD correlation energy     =   -0.226585481391840
    Same-spin CCSD correlation energy         =   -0.054018651128902
    CCSD correlation energy                   =   -0.280604132520742
      * CCSD total energy                     =  -77.103493972464577


			**************************
			*                        *
			*         CCHBAR         *
			*                        *
			**************************


			**************************
			*        CCLAMBDA        *
			**************************


	Nuclear Rep. energy (wfn)     =   24.323239383855910
	Reference           (wfn)     =                    0
	SCF energy          (wfn)     =  -76.822889839943798
	Reference energy    (CC_INFO) =  -76.822889839943841
	CCSD energy         (CC_INFO) =   -0.280604132520742
	Total CCSD energy   (CC_INFO) =  -77.103493972464577

	Input parameters:
	-----------------
	Maxiter           =     50
	Convergence       = 1.0e-07
	Restart           =     No
	Cache Level       =     2
	Model III         =     No
	DIIS              =     Yes
	AO Basis          =     No
	ABCD              =     NEW
	Local CC          =     No
	Parameters for left-handed eigenvectors:
	    Irr   Root  Ground-State?    EOM energy        R0
	  1   0     0        Yes       0.0000000000   1.0000000000
	Labels for eigenvector 1:
	LIA 0 -1, Lia 0 -1, LIJAB 0 -1, Lijab 0 -1, LIjAb 0 -1, 2LIjAb - LIjbA 0 -1
	Symmetry of left-hand state: A1
	Symmetry of left-hand eigenvector: A1

	          Solving Lambda Equations
	          ------------------------
	Iter     PseudoEnergy or Norm         RMS  
	----     ---------------------     --------
	   0        -0.280750157281722    4.619e-08
	   1        -0.271646439387536    1.725e-02
	   2        -0.270200655406437    3.914e-03
	   3        -0.269983433266320    8.891e-04
	   4        -0.269972579089848    1.999e-04
	   5        -0.269966317270402    6.476e-05
	   6        -0.269963874621098    2.213e-05
	   7        -0.269963836700774    7.577e-06
	   8        -0.269963732828567    2.443e-06
	   9        -0.269963714075763    6.034e-07
	  10        -0.269963710573142    1.669e-07
	  11        -0.269963710539046    4.625e-08

	Largest LIA Amplitudes:
	          5  18         0.0152081688
	          6  25         0.0152081688
	          5  20         0.0108505460
	          6  27         0.0108505460
	          4   1         0.0098615442
	          5  22         0.0059765490
	          6  29         0.0059765490
	          3   0         0.0052535734
	          3   8        -0.0052469889
	          4   6        -0.0033531203

	Largest LIjAb Amplitudes:
	  5   5  17  17        -0.1005613295
	  6   6  24  24        -0.1005613295
	  5   6  17  24        -0.0593746681
	  6   5  24  17        -0.0593746681
	  5   5  17  19        -0.0392696487
	  5   5  19  17        -0.0392696487
	  6   6  24  26        -0.0392696487
	  6   6  26  24        -0.0392696487
	  5   6  24  17        -0.0275034047
	  6   5  17  24        -0.0275034047

	Iterations converged.

	Overlap <L|e^T> =        0.87056163762

			**************************
			*                        *
			*        CCDENSITY       *
			*                        *
			**************************


	Input parameters:
	-----------------
	Wave function    =   CCSD
	Reference wfn    =   RHF
	Dertype          = 1
	Tolerance        = 1.0e-14
	Cache Level      = 2
	AO Basis         = No
	OPDM Only        = No
	Relax OPDM       = Yes
	Compute Xi       = No
	Use Zeta         = No
	Xi connected     = Yes
	Compute NO       = No

	Nuclear Rep. energy (wfn)     =   24.323239383855910
	SCF energy          (wfn)     =  -76.822889839943798
	Reference energy    (file100) =  -76.822889839943841
	CCSD energy         (CC_INFO) =   -0.280604132520742
	Total CCSD energy   (CC_INFO) =  -77.103493972464577
	Number of States = 1

	Ground?  State     EOM Energy       R0
	  Yes     0 A1    0.0000000000   1.00000000

	Virial Theorem Data:
	--------------------
	Kinetic energy (ref)   =   76.515384445978526
	Kinetic energy (corr)  =    0.375557506713565
	Kinetic energy (total) =   76.890941952692089
	-V/T (ref)             =    2.004018870142153
	-V/T (corr)            =    1.747166885242842
	-V/T (total)           =    2.002764331069104
  Cartesian Displacement SALCs
  By SALC:
  Number of SALCs: 4, nirreps: A1
  Project out translations: False
  Project out rotations: False
	irrep = 0, ncomponent = 1
		0: atom 0, direction x, coef 1.000000
	irrep = 0, ncomponent = 1
		0: atom 1, direction x, coef 1.000000
	irrep = 0, ncomponent = 1
		0: atom 2, direction x, coef 1.000000
	irrep = 0, ncomponent = 1
		0: atom 3, direction x, coef 1.000000

  By Atomic Center:
  Number of atomic centers: 4
   Atomic Center 0:
	x component, size = 1
		0: salc 0, irrep 0, coef 1.000000
	y component, size = 0
	z component, size = 0
   Atomic Center 1:
	x component, size = 1
		0: salc 1, irrep 0, coef 1.000000
	y component, size = 0
	z component, size = 0
   Atomic Center 2:
	x component, size = 1
		0: salc 2, irrep 0, coef 1.000000
	y component, size = 0
	z component, size = 0
   Atomic Center 3:
	x component, size = 1
		0: salc 3, irrep 0, coef 1.000000
	y component, size = 0
	z component, size = 0

    Molecular point group: c2v
    Full point group: C_inf_v

    Geometry (in Bohr), charge = 0, multiplicity = 1:

       Center              X                  Y                   Z       
    ------------   -----------------  -----------------  -----------------
         C           -1.161445204175     0.000000000000     0.000000000000
         C            1.160877025923     0.000000000000     0.000000000000
         H           -3.188799462353     0.000000000000     0.000000000000
         H            3.195564663461     0.000000000000     0.000000000000

	Presorting MO-basis TPDM.
	Sorting File: MO TPDM (AA|AA) nbuckets = 1
	Starting first half-transformation.
	Sorting half-transformed TPDM.
	First half integral transformation complete.


  -Nuclear Repulsion Energy 1st Derivatives:
     Atom            X                  Y                   Z
    ------   -----------------  -----------------  -----------------
       1        5.531364458616     0.000000000000     0.000000000000
       2       -5.542934862809     0.000000000000     0.000000000000
       3        1.801459107056     0.000000000000     0.000000000000
       4       -1.789888702864     0.000000000000     0.000000000000


  -Core Hamiltonian Gradient:
     Atom            X                  Y                   Z
    ------   -----------------  -----------------  -----------------
       1      -12.835987811044     0.000000000000     0.000000000000
       2       12.849567687979     0.000000000000     0.000000000000
       3       -4.964078761501     0.000000000000     0.000000000000
       4        4.950498884565     0.000000000000     0.000000000000


  -Lagrangian contribution to gradient:
     Atom            X                  Y                   Z
    ------   -----------------  -----------------  -----------------
       1        0.046365938715     0.000000000000     0.000000000000
       2       -0.046270402803     0.000000000000     0.000000000000
       3        0.246329436474     0.000000000000     0.000000000000
       4       -0.246424972385     0.000000000000     0.000000000000


  -Two-electron contribution to gradient:
     Atom            X                  Y                   Z
    ------   -----------------  -----------------  -----------------
       1        7.241164368519     0.000000000000     0.000000000000
       2       -7.246344586370     0.000000000000     0.000000000000
       3        2.919570080389     0.000000000000     0.000000000000
       4       -2.914389862538     0.000000000000     0.000000000000


  -Total gradient:
     Atom            X                  Y                   Z
    ------   -----------------  -----------------  -----------------
       1       -0.017093045193     0.000000000000     0.000000000000
       2        0.014017835996     0.000000000000     0.000000000000
       3        0.003279862419     0.000000000000     0.000000000000
       4       -0.000204653222     0.000000000000     0.000000000000


         ----------------------------------------------------------
                                   FINDIF
                     R. A. King and Jonathon Misiewicz
         ---------------------------------------------------------

  Computing second-derivative from gradients using projected, 
  symmetry-adapted, cartesian coordinates.

  10 gradients passed in, including the reference geometry.
  Generating complete list of displacements from unique ones.

    Operation 3 takes plus displacements of irrep B1g to minus ones.
    Operation 2 takes plus displacements of irrep B2g to minus ones.
    Operation 3 takes plus displacements of irrep B1u to minus ones.
    Operation 2 takes plus displacements of irrep B2u to minus ones.
    Operation 2 takes plus displacements of irrep B3u to minus ones.

-------------------------------------------------------------


  ==> Harmonic Vibrational Analysis <==

  non-mass-weighted Hessian:       Symmetric? True   Hermitian? True   Lin Dep Dim?  5 (0)
  projection of translations (True) and rotations (True) removed 5 degrees of freedom (5)
  total projector:                 Symmetric? True   Hermitian? True   Lin Dep Dim?  5 (5)
  mass-weighted Hessian:           Symmetric? True   Hermitian? True   Lin Dep Dim?  5 (0)
  pre-proj  low-frequency mode:    0.0000i [cm^-1]
  pre-proj  low-frequency mode:    0.0000i [cm^-1]
  pre-proj  low-frequency mode:    0.0000i [cm^-1]
  pre-proj  low-frequency mode:    0.0000  [cm^-1]
  pre-proj  low-frequency mode:    0.0000  [cm^-1]
  pre-proj  all modes:['0.0000i' '0.0000i' '0.0000i' '0.0000' '0.0000' '559.1483' '559.1483'
 '739.2342' '739.2342' '1995.3926' '3452.3012' '3541.5561']
  projected mass-weighted Hessian: Symmetric? True   Hermitian? True   Lin Dep Dim?  5 (5)
  post-proj low-frequency mode:    0.0000i [cm^-1] (TR)
  post-proj low-frequency mode:    0.0000i [cm^-1] (TR)
  post-proj low-frequency mode:    0.0000i [cm^-1] (TR)
  post-proj low-frequency mode:    0.0000  [cm^-1] (TR)
  post-proj low-frequency mode:    0.0000  [cm^-1] (TR)
  post-proj  all modes:['0.0000i' '0.0000i' '0.0000i' '0.0000' '0.0000' '559.1483' '559.1483'
 '739.2342' '739.2342' '1995.3926' '3452.3012' '3541.5561']

  Vibration                       6                   7                   8           
  Freq [cm^-1]                 559.1483            559.1483            739.2342       
  Irrep                          B1g                 B2g                 B1u          
  Reduced mass [u]              1.5641              1.5641              1.0848        
  Force const [mDyne/A]         0.2881              0.2881              0.3493        
  Turning point v=0 [a0]        0.3710              0.3710              0.3875        
  RMS dev v=0 [a0 u^1/2]        0.3281              0.3281              0.2854        
  Char temp [K]                804.4899            804.4899           1063.5934       
  ----------------------------------------------------------------------------------
      1   C                0.00 -0.16  0.00   -0.00 -0.00 -0.16   -0.00  0.00 -0.06   
      2   C                0.00  0.16 -0.00   -0.00  0.00  0.16   -0.00  0.00 -0.06   
      3   H                0.00  0.69 -0.00   -0.00  0.00  0.69   -0.00 -0.00  0.70   
      4   H                0.00 -0.69  0.00   -0.00 -0.00 -0.69   -0.00 -0.00  0.70   

  Vibration                       9                   10                  11          
  Freq [cm^-1]                 739.2342           1995.3926           3452.3012       
  Irrep                          B2u                  Ag                 B3u          
  Reduced mass [u]              1.0848              4.0731              1.0848        
  Force const [mDyne/A]         0.3493              9.5550              7.6177        
  Turning point v=0 [a0]        0.3875              0.1217              0.1793        
  RMS dev v=0 [a0 u^1/2]        0.2854              0.1737              0.1321        
  Char temp [K]               1063.5934           2870.9257           4967.0928       
  ----------------------------------------------------------------------------------
      1   C                0.00 -0.06 -0.00    0.37  0.00 -0.00   -0.06  0.00 -0.00   
      2   C                0.00 -0.06 -0.00   -0.37  0.00 -0.00   -0.06  0.00 -0.00   
      3   H                0.00  0.70  0.00    0.60 -0.00  0.00    0.70 -0.00  0.00   
      4   H                0.00  0.70  0.00   -0.60  0.00 -0.00    0.70  0.00 -0.00   

  Vibration                       12          
  Freq [cm^-1]                3541.5561       
  Irrep                           Ag          
  Reduced mass [u]              1.2047        
  Force const [mDyne/A]         8.9029        
  Turning point v=0 [a0]        0.1680        
  RMS dev v=0 [a0 u^1/2]        0.1304        
  Char temp [K]               5095.5107       
  ----------------------------------------------------------------------------------
      1   C               -0.09  0.00  0.00   
      2   C                0.09 -0.00  0.00   
      3   H                0.70  0.00 -0.00   
      4   H               -0.70 -0.00  0.00   

  ==> Thermochemistry Components <==

  Entropy, S
    Electronic S            0.000 [cal/(mol K)]        0.000 [J/(mol K)]       0.00000000 [mEh/K] (multiplicity = 1)
    Translational S        35.704 [cal/(mol K)]      149.387 [J/(mol K)]       0.05689862 [mEh/K] (mol. weight = 26.0157 [u], P = 101325.00 [Pa])
    Rotational S           10.952 [cal/(mol K)]       45.824 [J/(mol K)]       0.01745345 [mEh/K] (symmetry no. = 2)
    Vibrational S           1.578 [cal/(mol K)]        6.603 [J/(mol K)]       0.00251498 [mEh/K]
  Total S                  48.235 [cal/(mol K)]      201.814 [J/(mol K)]       0.07686705 [mEh/K]
  Correction S              0.000 [cal/(mol K)]        0.000 [J/(mol K)]       0.00000000 [mEh/K]

  Constant volume heat capacity, Cv
    Electronic Cv           0.000 [cal/(mol K)]        0.000 [J/(mol K)]       0.00000000 [mEh/K]
    Translational Cv        2.981 [cal/(mol K)]       12.472 [J/(mol K)]       0.00475022 [mEh/K]
    Rotational Cv           1.987 [cal/(mol K)]        8.314 [J/(mol K)]       0.00316681 [mEh/K]
    Vibrational Cv          3.764 [cal/(mol K)]       15.747 [J/(mol K)]       0.00599775 [mEh/K]
  Total Cv                  8.732 [cal/(mol K)]       36.533 [J/(mol K)]       0.01391477 [mEh/K]
  Correction Cv             0.000 [cal/(mol K)]        0.000 [J/(mol K)]       0.00000000 [mEh/K]

  Constant pressure heat capacity, Cp
    Electronic Cp           0.000 [cal/(mol K)]        0.000 [J/(mol K)]       0.00000000 [mEh/K]
    Translational Cp        4.968 [cal/(mol K)]       20.786 [J/(mol K)]       0.00791703 [mEh/K]
    Rotational Cp           1.987 [cal/(mol K)]        8.314 [J/(mol K)]       0.00316681 [mEh/K]
    Vibrational Cp          3.764 [cal/(mol K)]       15.747 [J/(mol K)]       0.00599775 [mEh/K]
  Total Cp                 10.719 [cal/(mol K)]       44.848 [J/(mol K)]       0.01708158 [mEh/K]
  Correction Cp             0.000 [cal/(mol K)]        0.000 [J/(mol K)]       0.00000000 [mEh/K]

  ==> Thermochemistry Energy Analysis <==

  Raw electronic energy, E0
  Total E0, Electronic energy at well bottom at 0 [K]                  -77.10349961 [Eh]

  Zero-point energy, ZPE_vib = Sum_i nu_i / 2
    Electronic ZPE          0.000 [kcal/mol]        0.000 [kJ/mol]       0.00000000 [Eh]
    Translational ZPE       0.000 [kcal/mol]        0.000 [kJ/mol]       0.00000000 [Eh]
    Rotational ZPE          0.000 [kcal/mol]        0.000 [kJ/mol]       0.00000000 [Eh]
    Vibrational ZPE        16.563 [kcal/mol]       69.300 [kJ/mol]       0.02639488 [Eh]        5793.007 [cm^-1]
  Correction ZPE           16.563 [kcal/mol]       69.300 [kJ/mol]       0.02639488 [Eh]        5793.007 [cm^-1]
  Total ZPE, Electronic energy at 0 [K]                                -77.07710473 [Eh]

  Thermal Energy, E (includes ZPE)
    Electronic E            0.000 [kcal/mol]        0.000 [kJ/mol]       0.00000000 [Eh]
    Translational E         0.889 [kcal/mol]        3.718 [kJ/mol]       0.00141628 [Eh]
    Rotational E            0.592 [kcal/mol]        2.479 [kJ/mol]       0.00094418 [Eh]
    Vibrational E          16.917 [kcal/mol]       70.781 [kJ/mol]       0.02695898 [Eh]
  Correction E             18.398 [kcal/mol]       76.978 [kJ/mol]       0.02931944 [Eh]
  Total E, Electronic energy at  298.15 [K]                            -77.07418017 [Eh]

  Enthalpy, H_trans = E_trans + k_B * T
    Electronic H            0.000 [kcal/mol]        0.000 [kJ/mol]       0.00000000 [Eh]
    Translational H         1.481 [kcal/mol]        6.197 [kJ/mol]       0.00236046 [Eh]
    Rotational H            0.592 [kcal/mol]        2.479 [kJ/mol]       0.00094418 [Eh]
    Vibrational H          16.917 [kcal/mol]       70.781 [kJ/mol]       0.02695898 [Eh]
  Correction H             18.991 [kcal/mol]       79.457 [kJ/mol]       0.03026362 [Eh]
  Total H, Enthalpy at  298.15 [K]                                     -77.07323599 [Eh]

  Gibbs free energy, G = H - T * S
    Electronic G            0.000 [kcal/mol]        0.000 [kJ/mol]       0.00000000 [Eh]
    Translational G        -9.164 [kcal/mol]      -38.342 [kJ/mol]      -0.01460386 [Eh]
    Rotational G           -2.673 [kcal/mol]      -11.183 [kJ/mol]      -0.00425956 [Eh]
    Vibrational G          16.446 [kcal/mol]       68.812 [kJ/mol]       0.02620913 [Eh]
  Correction G              4.610 [kcal/mol]       19.286 [kJ/mol]       0.00734571 [Eh]
  Total G, Free enthalpy at  298.15 [K]                                -77.09615390 [Eh]

    Psi4 stopped on: Tuesday, 19 April 2022 01:58AM
    Psi4 wall time for execution: 0:00:12.14

*** Psi4 exiting successfully. Buy a developer a beer!
