
    -----------------------------------------------------------------------
          Psi4: An Open-Source Ab Initio Electronic Structure Package
                               Psi4 1.3.2 release

                         Git: Rev {HEAD} ecbda83 


    R. M. Parrish, L. A. Burns, D. G. A. Smith, A. C. Simmonett,
    A. E. DePrince III, E. G. Hohenstein, U. Bozkaya, A. Yu. Sokolov,
    R. Di Remigio, R. M. Richard, J. F. Gonthier, A. M. James,
    H. R. McAlexander, A. Kumar, M. Saitow, X. Wang, B. P. Pritchard,
    P. Verma, H. F. Schaefer III, K. Patkowski, R. A. King, E. F. Valeev,
    F. A. Evangelista, J. M. Turney, T. D. Crawford, and C. D. Sherrill,
    J. Chem. Theory Comput. 13(7) pp 3185--3197 (2017).
    (doi: 10.1021/acs.jctc.7b00174)


                         Additional Contributions by
    P. Kraus, H. Kruse, M. H. Lechner, M. C. Schieber, R. A. Shaw,
    A. Alenaizan, R. Galvelis, Z. L. Glick, S. Lehtola, and J. P. Misiewicz

    -----------------------------------------------------------------------


    Psi4 started on: Tuesday, 19 April 2022 01:58AM

    Process ID: 25946
    Host:       atlantis
    PSIDATADIR: /home/akrom/software/anaconda3/envs/ffpenv/share/psi4
    Memory:     500.0 MiB
    Threads:    1
    
  ==> Input File <==

--------------------------------------------------------------------------
set basis  cc-pVTZ
molecule {
0 1
   C       -0.61446        0.00000        0.00000
   C        0.61446        0.00000        0.00000
   H       -1.68923        0.00000        0.00000
   H        1.68923        0.00000        0.00000
}
energy('CCSD')
frequencies('CCSD')
--------------------------------------------------------------------------

*** tstart() called on atlantis
*** at Tue Apr 19 01:58:18 2022

   => Loading Basis Set <=

    Name: CC-PVTZ
    Role: ORBITAL
    Keyword: BASIS
    atoms 1-2 entry C          line   186 file /home/akrom/software/anaconda3/envs/ffpenv/share/psi4/basis/cc-pvtz.gbs 
    atoms 3-4 entry H          line    23 file /home/akrom/software/anaconda3/envs/ffpenv/share/psi4/basis/cc-pvtz.gbs 


         ---------------------------------------------------------
                                   SCF
               by Justin Turney, Rob Parrish, Andy Simmonett
                          and Daniel G. A. Smith
                              RHF Reference
                        1 Threads,    500 MiB Core
         ---------------------------------------------------------

  ==> Geometry <==

    Molecular point group: d2h
    Full point group: D_inf_h

    Geometry (in Angstrom), charge = 0, multiplicity = 1:

       Center              X                  Y                   Z               Mass       
    ------------   -----------------  -----------------  -----------------  -----------------
         C           -0.614460000000    -0.000000000000     0.000000000000    12.000000000000
         C            0.614460000000     0.000000000000     0.000000000000    12.000000000000
         H           -1.689230000000    -0.000000000000     0.000000000000     1.007825032230
         H            1.689230000000     0.000000000000     0.000000000000     1.007825032230

  Running in d2h symmetry.

  Rotational constants: A = ************  B =      1.13802  C =      1.13802 [cm^-1]
  Rotational constants: A = ************  B =  34116.98697  C =  34116.98697 [MHz]
  Nuclear repulsion =   24.323218171379235

  Charge       = 0
  Multiplicity = 1
  Electrons    = 14
  Nalpha       = 7
  Nbeta        = 7

  ==> Algorithm <==

  SCF Algorithm Type is PK.
  DIIS enabled.
  MOM disabled.
  Fractional occupation disabled.
  Guess Type is SAD.
  Energy threshold   = 1.00e-08
  Density threshold  = 1.00e-08
  Integral threshold = 0.00e+00

  ==> Primary Basis <==

  Basis Set: CC-PVTZ
    Blend: CC-PVTZ
    Number of shells: 32
    Number of basis function: 88
    Number of Cartesian functions: 100
    Spherical Harmonics?: true
    Max angular momentum: 3

  ==> Pre-Iterations <==

   -------------------------------------------------------
    Irrep   Nso     Nmo     Nalpha   Nbeta   Ndocc  Nsocc
   -------------------------------------------------------
     Ag        20      20       0       0       0       0
     B1g       10      10       0       0       0       0
     B2g       10      10       0       0       0       0
     B3g        4       4       0       0       0       0
     Au         4       4       0       0       0       0
     B1u       10      10       0       0       0       0
     B2u       10      10       0       0       0       0
     B3u       20      20       0       0       0       0
   -------------------------------------------------------
    Total      88      88       7       7       7       0
   -------------------------------------------------------

  ==> Integral Setup <==

  Using in-core PK algorithm.
   Calculation information:
      Number of atoms:                   4
      Number of AO shells:              32
      Number of primitives:             68
      Number of atomic orbitals:       100
      Number of basis functions:        88

      Integral cutoff                 1.00e-12
      Number of threads:                 1

  Performing in-core PK
  Using 15338972 doubles for integral storage.
  We computed 139123 shell quartets total.
  Whereas there are 139656 unique shell quartets.

  ==> DiskJK: Disk-Based J/K Matrices <==

    J tasked:                  Yes
    K tasked:                  Yes
    wK tasked:                  No
    Memory [MiB]:              375
    Schwarz Cutoff:          1E-12

    OpenMP threads:              1

  Minimum eigenvalue in the overlap matrix is 1.4146724323E-04.
  Using Symmetric Orthogonalization.

  SCF Guess: Superposition of Atomic Densities via on-the-fly atomic UHF.

  ==> Iterations <==

                        Total Energy        Delta E     RMS |[F,P]|

   @RHF iter SAD:   -75.89510197415646   -7.58951e+01   0.00000e+00 
   @RHF iter   1:   -76.80624573990612   -9.11144e-01   7.80434e-03 DIIS
   @RHF iter   2:   -76.84063147420585   -3.43857e-02   2.66272e-03 DIIS
   @RHF iter   3:   -76.84486635598623   -4.23488e-03   3.33193e-04 DIIS
   @RHF iter   4:   -76.84501063148679   -1.44276e-04   4.09534e-05 DIIS
   @RHF iter   5:   -76.84501290035477   -2.26887e-06   7.00369e-06 DIIS
   @RHF iter   6:   -76.84501296444925   -6.40945e-08   1.23298e-06 DIIS
   @RHF iter   7:   -76.84501296665773   -2.20848e-09   1.71813e-07 DIIS
   @RHF iter   8:   -76.84501296670315   -4.54179e-11   1.55786e-08 DIIS
   @RHF iter   9:   -76.84501296670361   -4.54747e-13   1.60690e-09 DIIS
  Energy and wave function converged.


  ==> Post-Iterations <==

    Orbital Energies [Eh]
    ---------------------

    Doubly Occupied:                                                      

       1Ag   -11.250960     1B3u  -11.247708     2Ag    -1.020447  
       2B3u   -0.765343     3Ag    -0.674973     1B2u   -0.403735  
       1B1u   -0.403735  

    Virtual:                                                              

       3B3u    0.148970     4Ag     0.170427     1B1g    0.170692  
       1B2g    0.170692     5Ag     0.311507     4B3u    0.397219  
       2B2u    0.436966     2B1u    0.436966     5B3u    0.512759  
       2B1g    0.570489     2B2g    0.570489     6Ag     0.601388  
       7Ag     0.772108     8Ag     0.772627     1B3g    0.772627  
       3B1u    0.796682     3B2u    0.796682     6B3u    0.934282  
       7B3u    1.060067     3B2g    1.061237     3B1g    1.061237  
       8B3u    1.090730     1Au     1.090730     9Ag     1.200916  
       4B1u    1.442573     4B2u    1.442573     9B3u    1.597682  
      10Ag     1.670102     4B2g    1.672046     4B1g    1.672046  
      10B3u    1.998163     5B1u    2.324909     5B2u    2.324909  
      11Ag     2.497531    11B3u    2.655859     2B3g    2.703728  
      12Ag     2.703728     5B2g    2.751233     5B1g    2.751233  
       6B1u    2.824853     6B2u    2.824853     7B1u    3.012835  
       7B2u    3.012835    13Ag     3.139550     6B2g    3.223527  
       6B1g    3.223527     7B2g    3.224254     7B1g    3.224254  
      14Ag     3.227094    15Ag     3.228881     3B3g    3.228881  
      12B3u    3.257972     2Au     3.293895    13B3u    3.293895  
       8B1u    3.435737     8B2u    3.435737    14B3u    3.456808  
       3Au     3.456808    15B3u    3.866811    16Ag     3.883488  
       4B3g    3.883488     8B2g    4.136433     8B1g    4.136433  
       9B2u    4.263536     9B1u    4.263536    17Ag     4.452712  
       4Au     4.466817    16B3u    4.466817    17B3u    4.778879  
       9B2g    4.845384     9B1g    4.845384    18Ag     5.156618  
      10B1u    5.729201    10B2u    5.729201    18B3u    6.092269  
      10B2g    6.298054    10B1g    6.298054    19B3u    6.335192  
      19Ag     6.698557    20Ag     9.379052    20B3u   16.155209  

    Final Occupation by Irrep:
             Ag   B1g   B2g   B3g    Au   B1u   B2u   B3u 
    DOCC [     3,    0,    0,    0,    0,    1,    1,    2 ]

  @RHF Final Energy:   -76.84501296670361

   => Energetics <=

    Nuclear Repulsion Energy =             24.3232181713792350
    One-Electron Energy =                -150.8026604276891192
    Two-Electron Energy =                  49.6344292896062740
    Total Energy =                        -76.8450129667036066

Computation Completed


Properties will be evaluated at   0.000000,   0.000000,   0.000000 [a0]

Properties computed using the SCF density matrix

  Nuclear Dipole Moment: [e a0]
     X:     0.0000      Y:     0.0000      Z:     0.0000

  Electronic Dipole Moment: [e a0]
     X:     0.0000      Y:     0.0000      Z:     0.0000

  Dipole Moment: [e a0]
     X:     0.0000      Y:     0.0000      Z:     0.0000     Total:     0.0000

  Dipole Moment: [D]
     X:     0.0000      Y:     0.0000      Z:     0.0000     Total:     0.0000


*** tstop() called on atlantis at Tue Apr 19 01:58:18 2022
Module time:
	user time   =       0.88 seconds =       0.01 minutes
	system time =       0.02 seconds =       0.00 minutes
	total time  =          0 seconds =       0.00 minutes
Total time:
	user time   =       0.88 seconds =       0.01 minutes
	system time =       0.02 seconds =       0.00 minutes
	total time  =          0 seconds =       0.00 minutes
 MINTS: Wrapper to libmints.
   by Justin Turney

   Calculation information:
      Number of threads:                 1
      Number of atoms:                   4
      Number of AO shells:              32
      Number of SO shells:              16
      Number of primitives:             68
      Number of atomic orbitals:       100
      Number of basis functions:        88

      Number of irreps:                  8
      Integral cutoff                 0.00e+00
      Number of functions per irrep: [  20   10   10    4    4   10   10   20 ]

 OEINTS: Overlap, kinetic, potential, dipole, and quadrupole integrals
         stored in file 35.

      Computing two-electron integrals...done
      Computed 999886 non-zero two-electron integrals.
        Stored in file 33.


*** tstart() called on atlantis
*** at Tue Apr 19 01:58:19 2022


	Wfn Parameters:
	--------------------
	Wavefunction         = CCSD
	Number of irreps     = 8
	Number of MOs        = 88
	Number of active MOs = 88
	AO-Basis             = NONE
	Semicanonical        = false
	Reference            = RHF
	Print Level          = 1

	IRREP	# MOs	# FZDC	# DOCC	# SOCC	# VIRT	# FZVR
	-----	-----	------	------	------	------	------
	 Ag	   20	    0	    3	    0	    17	    0
	 B1g	   10	    0	    0	    0	    10	    0
	 B2g	   10	    0	    0	    0	    10	    0
	 B3g	   4	    0	    0	    0	    4	    0
	 Au	   4	    0	    0	    0	    4	    0
	 B1u	   10	    0	    1	    0	    9	    0
	 B2u	   10	    0	    1	    0	    9	    0
	 B3u	   20	    0	    2	    0	    18	    0
	Transforming integrals...
	IWL integrals will be deleted.
	(OO|OO)...
	Presorting SO-basis two-electron integrals.
	Sorting File: SO Ints (nn|nn) nbuckets = 1
	Transforming the one-electron integrals and constructing Fock matrices
	Starting first half-transformation.
	Sorting half-transformed integrals.
	First half integral transformation complete.
	Starting second half-transformation.
	Two-electron integral transformation complete.
	(OO|OV)...
	Starting second half-transformation.
	Two-electron integral transformation complete.
	(OO|VV)...
	Starting second half-transformation.
	Two-electron integral transformation complete.
	(OV|OO)...
	Starting first half-transformation.
	Sorting half-transformed integrals.
	First half integral transformation complete.
	Starting second half-transformation.
	Two-electron integral transformation complete.
	(OV|OV)...
	Starting second half-transformation.
	Two-electron integral transformation complete.
	(OV|VV)...
	Starting second half-transformation.
	Two-electron integral transformation complete.
	(VV|OO)...
	Starting first half-transformation.
	Sorting half-transformed integrals.
	First half integral transformation complete.
	Starting second half-transformation.
	Two-electron integral transformation complete.
	(VV|OV)...
	Starting second half-transformation.
	Two-electron integral transformation complete.
	(VV|VV)...
	Starting second half-transformation.
	Two-electron integral transformation complete.
	Frozen core energy     =      0.00000000000000

	Size of irrep 0 of <ab|cd> integrals:      1.014 (MW) /      8.112 (MB)
	Size of irrep 1 of <ab|cd> integrals:      0.666 (MW) /      5.327 (MB)
	Size of irrep 2 of <ab|cd> integrals:      0.666 (MW) /      5.327 (MB)
	Size of irrep 3 of <ab|cd> integrals:      0.412 (MW) /      3.297 (MB)
	Size of irrep 4 of <ab|cd> integrals:      0.410 (MW) /      3.277 (MB)
	Size of irrep 5 of <ab|cd> integrals:      0.669 (MW) /      5.353 (MB)
	Size of irrep 6 of <ab|cd> integrals:      0.669 (MW) /      5.353 (MB)
	Size of irrep 7 of <ab|cd> integrals:      1.008 (MW) /      8.064 (MB)
	Total:                                     5.514 (MW) /     44.110 (MB)

	Size of irrep 0 of <ia|bc> integrals:      0.106 (MW) /      0.846 (MB)
	Size of irrep 1 of <ia|bc> integrals:      0.057 (MW) /      0.457 (MB)
	Size of irrep 2 of <ia|bc> integrals:      0.057 (MW) /      0.457 (MB)
	Size of irrep 3 of <ia|bc> integrals:      0.024 (MW) /      0.195 (MB)
	Size of irrep 4 of <ia|bc> integrals:      0.026 (MW) /      0.205 (MB)
	Size of irrep 5 of <ia|bc> integrals:      0.056 (MW) /      0.445 (MB)
	Size of irrep 6 of <ia|bc> integrals:      0.056 (MW) /      0.445 (MB)
	Size of irrep 7 of <ia|bc> integrals:      0.108 (MW) /      0.867 (MB)
	Total:                                     0.490 (MW) /      3.917 (MB)

	Size of irrep 0 of tijab amplitudes:       0.015 (MW) /      0.121 (MB)
	Size of irrep 1 of tijab amplitudes:       0.003 (MW) /      0.026 (MB)
	Size of irrep 2 of tijab amplitudes:       0.003 (MW) /      0.026 (MB)
	Size of irrep 3 of tijab amplitudes:       0.001 (MW) /      0.010 (MB)
	Size of irrep 4 of tijab amplitudes:       0.000 (MW) /      0.000 (MB)
	Size of irrep 5 of tijab amplitudes:       0.005 (MW) /      0.039 (MB)
	Size of irrep 6 of tijab amplitudes:       0.005 (MW) /      0.039 (MB)
	Size of irrep 7 of tijab amplitudes:       0.012 (MW) /      0.096 (MB)
	Total:                                     0.045 (MW) /      0.358 (MB)

	Nuclear Rep. energy          =     24.32321817137924
	SCF energy                   =    -76.84501296670361
	One-electron energy          =   -150.80266055893335
	Two-electron energy          =     49.63442942085066
	Reference energy             =    -76.84501296670345

*** tstop() called on atlantis at Tue Apr 19 01:58:19 2022
Module time:
	user time   =       0.29 seconds =       0.00 minutes
	system time =       0.12 seconds =       0.00 minutes
	total time  =          0 seconds =       0.00 minutes
Total time:
	user time   =       1.48 seconds =       0.02 minutes
	system time =       0.16 seconds =       0.00 minutes
	total time  =          1 seconds =       0.02 minutes
            **************************
            *                        *
            *        CCENERGY        *
            *                        *
            **************************

    Nuclear Rep. energy (wfn)     =   24.323218171379235
    SCF energy          (wfn)     =  -76.845012966703607
    Reference energy    (file100) =  -76.845012966703450

    Input parameters:
    -----------------
    Wave function   =     CCSD
    Reference wfn   =     RHF
    Brueckner       =     No
    Memory (Mbytes) =     524.3
    Maxiter         =     50
    R_Convergence   =     1.0e-07
    E_Convergence   =     1.0e-06
    Restart         =     Yes
    DIIS            =     Yes
    AO Basis        =     NONE
    ABCD            =     NEW
    Cache Level     =     2
    Cache Type      =     LOW
    Print Level     =     1
    Num. of threads =     1
    # Amps to Print =     10
    Print MP2 Amps? =     No
    Analyze T2 Amps =     No
    Print Pair Ener =     No
    Local CC        =     No
    SCS-MP2         =     False
    SCSN-MP2        =     False
    SCS-CCSD        =     False

MP2 correlation energy -0.3424267726823623
                Solving CC Amplitude Equations
                ------------------------------
  Iter             Energy              RMS        T1Diag      D1Diag    New D1Diag    D2Diag
  ----     ---------------------    ---------   ----------  ----------  ----------   --------
     0        -0.342426772682362    0.000e+00    0.000000    0.000000    0.000000    0.167684
     1        -0.341286095923051    5.742e-02    0.010312    0.026115    0.026115    0.166167
     2        -0.351584484657315    2.368e-02    0.010263    0.026040    0.026040    0.176870
     3        -0.354186809549950    1.012e-02    0.011848    0.030167    0.030167    0.183156
     4        -0.354417626747271    3.057e-03    0.011931    0.030403    0.030403    0.185274
     5        -0.354494328622487    6.985e-04    0.011925    0.030400    0.030400    0.185726
     6        -0.354498597245813    1.789e-04    0.011908    0.030358    0.030358    0.185766
     7        -0.354500612826075    3.961e-05    0.011905    0.030351    0.030351    0.185776
     8        -0.354500917224363    1.055e-05    0.011904    0.030350    0.030350    0.185779
     9        -0.354500742989535    2.414e-06    0.011904    0.030350    0.030350    0.185778
    10        -0.354500771187011    6.372e-07    0.011904    0.030350    0.030350    0.185779
    11        -0.354500777624943    1.477e-07    0.011904    0.030350    0.030350    0.185779
    12        -0.354500781476003    4.488e-08    0.011904    0.030350    0.030350    0.185779

    Iterations converged.


    Largest TIA Amplitudes:
              3  45         0.0221207756
              4  54         0.0221207756
              3  46         0.0142954183
              4  55         0.0142954183
              3  47         0.0113271393
              4  56         0.0113271393
              3  48         0.0083600779
              4  57         0.0083600779
              6  64        -0.0046129084
              2   0        -0.0045807934

    Largest TIjAb Amplitudes:
      3   3  27  27        -0.0884390462
      4   4  17  17        -0.0884390462
      3   4  27  17        -0.0546643108
      4   3  17  27        -0.0546643108
      3   3  27  28        -0.0478059618
      3   3  28  27        -0.0478059618
      4   4  17  18        -0.0478059618
      4   4  18  17        -0.0478059618
      3   3  28  28        -0.0322828315
      4   4  18  18        -0.0322828315

    SCF energy       (wfn)                    =  -76.845012966703607
    Reference energy (file100)                =  -76.845012966703450

    Opposite-spin MP2 correlation energy      =   -0.265421353859011
    Same-spin MP2 correlation energy          =   -0.077005418823351
    MP2 correlation energy                    =   -0.342426772682362
      * MP2 total energy                      =  -77.187439739385809

    Opposite-spin CCSD correlation energy     =   -0.288199790497780
    Same-spin CCSD correlation energy         =   -0.066300990978223
    CCSD correlation energy                   =   -0.354500781476003
      * CCSD total energy                     =  -77.199513748179456

gradient() will perform analytic gradient computation.

*** tstart() called on atlantis
*** at Tue Apr 19 01:58:20 2022

   => Loading Basis Set <=

    Name: CC-PVTZ
    Role: ORBITAL
    Keyword: BASIS
    atoms 1-2 entry C          line   186 file /home/akrom/software/anaconda3/envs/ffpenv/share/psi4/basis/cc-pvtz.gbs 
    atoms 3-4 entry H          line    23 file /home/akrom/software/anaconda3/envs/ffpenv/share/psi4/basis/cc-pvtz.gbs 


         ---------------------------------------------------------
                                   SCF
               by Justin Turney, Rob Parrish, Andy Simmonett
                          and Daniel G. A. Smith
                              RHF Reference
                        1 Threads,    500 MiB Core
         ---------------------------------------------------------

  ==> Geometry <==

    Molecular point group: d2h
    Full point group: D_inf_h

    Geometry (in Angstrom), charge = 0, multiplicity = 1:

       Center              X                  Y                   Z               Mass       
    ------------   -----------------  -----------------  -----------------  -----------------
         C           -0.614460000000    -0.000000000000     0.000000000000    12.000000000000
         C            0.614460000000     0.000000000000     0.000000000000    12.000000000000
         H           -1.689230000000    -0.000000000000     0.000000000000     1.007825032230
         H            1.689230000000     0.000000000000     0.000000000000     1.007825032230

  Running in d2h symmetry.

  Rotational constants: A = ************  B =      1.13802  C =      1.13802 [cm^-1]
  Rotational constants: A = ************  B =  34116.98697  C =  34116.98697 [MHz]
  Nuclear repulsion =   24.323218171379235

  Charge       = 0
  Multiplicity = 1
  Electrons    = 14
  Nalpha       = 7
  Nbeta        = 7

  ==> Algorithm <==

  SCF Algorithm Type is PK.
  DIIS enabled.
  MOM disabled.
  Fractional occupation disabled.
  Guess Type is SAD.
  Energy threshold   = 1.00e-10
  Density threshold  = 1.00e-10
  Integral threshold = 0.00e+00

  ==> Primary Basis <==

  Basis Set: CC-PVTZ
    Blend: CC-PVTZ
    Number of shells: 32
    Number of basis function: 88
    Number of Cartesian functions: 100
    Spherical Harmonics?: true
    Max angular momentum: 3

  ==> Pre-Iterations <==

   -------------------------------------------------------
    Irrep   Nso     Nmo     Nalpha   Nbeta   Ndocc  Nsocc
   -------------------------------------------------------
     Ag        20      20       0       0       0       0
     B1g       10      10       0       0       0       0
     B2g       10      10       0       0       0       0
     B3g        4       4       0       0       0       0
     Au         4       4       0       0       0       0
     B1u       10      10       0       0       0       0
     B2u       10      10       0       0       0       0
     B3u       20      20       0       0       0       0
   -------------------------------------------------------
    Total      88      88       7       7       7       0
   -------------------------------------------------------

  ==> Integral Setup <==

  Using in-core PK algorithm.
   Calculation information:
      Number of atoms:                   4
      Number of AO shells:              32
      Number of primitives:             68
      Number of atomic orbitals:       100
      Number of basis functions:        88

      Integral cutoff                 1.00e-12
      Number of threads:                 1

  Performing in-core PK
  Using 15338972 doubles for integral storage.
  We computed 139123 shell quartets total.
  Whereas there are 139656 unique shell quartets.

  ==> DiskJK: Disk-Based J/K Matrices <==

    J tasked:                  Yes
    K tasked:                  Yes
    wK tasked:                  No
    Memory [MiB]:              375
    Schwarz Cutoff:          1E-12

    OpenMP threads:              1

  Minimum eigenvalue in the overlap matrix is 1.4146724323E-04.
  Using Symmetric Orthogonalization.

  SCF Guess: Superposition of Atomic Densities via on-the-fly atomic UHF.

  ==> Iterations <==

                        Total Energy        Delta E     RMS |[F,P]|

   @RHF iter SAD:   -75.89510197415646   -7.58951e+01   0.00000e+00 
   @RHF iter   1:   -76.80624573990612   -9.11144e-01   7.80434e-03 DIIS
   @RHF iter   2:   -76.84063147420585   -3.43857e-02   2.66272e-03 DIIS
   @RHF iter   3:   -76.84486635598623   -4.23488e-03   3.33193e-04 DIIS
   @RHF iter   4:   -76.84501063148679   -1.44276e-04   4.09534e-05 DIIS
   @RHF iter   5:   -76.84501290035477   -2.26887e-06   7.00369e-06 DIIS
   @RHF iter   6:   -76.84501296444925   -6.40945e-08   1.23298e-06 DIIS
   @RHF iter   7:   -76.84501296665773   -2.20848e-09   1.71813e-07 DIIS
   @RHF iter   8:   -76.84501296670315   -4.54179e-11   1.55786e-08 DIIS
   @RHF iter   9:   -76.84501296670361   -4.54747e-13   1.60690e-09 DIIS
   @RHF iter  10:   -76.84501296670341    1.98952e-13   1.57078e-10 DIIS
   @RHF iter  11:   -76.84501296670351   -9.94760e-14   1.74774e-11 DIIS
  Energy and wave function converged.


  ==> Post-Iterations <==

    Orbital Energies [Eh]
    ---------------------

    Doubly Occupied:                                                      

       1Ag   -11.250960     1B3u  -11.247708     2Ag    -1.020447  
       2B3u   -0.765343     3Ag    -0.674973     1B1u   -0.403735  
       1B2u   -0.403735  

    Virtual:                                                              

       3B3u    0.148970     4Ag     0.170427     1B2g    0.170692  
       1B1g    0.170692     5Ag     0.311507     4B3u    0.397219  
       2B1u    0.436966     2B2u    0.436966     5B3u    0.512759  
       2B2g    0.570489     2B1g    0.570489     6Ag     0.601388  
       7Ag     0.772108     8Ag     0.772627     1B3g    0.772627  
       3B2u    0.796682     3B1u    0.796682     6B3u    0.934282  
       7B3u    1.060067     3B2g    1.061237     3B1g    1.061237  
       8B3u    1.090730     1Au     1.090730     9Ag     1.200916  
       4B1u    1.442573     4B2u    1.442573     9B3u    1.597682  
      10Ag     1.670102     4B2g    1.672046     4B1g    1.672046  
      10B3u    1.998163     5B2u    2.324909     5B1u    2.324909  
      11Ag     2.497531    11B3u    2.655859     2B3g    2.703728  
      12Ag     2.703728     5B1g    2.751233     5B2g    2.751233  
       6B1u    2.824853     6B2u    2.824853     7B2u    3.012835  
       7B1u    3.012835    13Ag     3.139550     6B1g    3.223527  
       6B2g    3.223527     7B2g    3.224254     7B1g    3.224254  
      14Ag     3.227094    15Ag     3.228881     3B3g    3.228881  
      12B3u    3.257972     2Au     3.293895    13B3u    3.293895  
       8B1u    3.435737     8B2u    3.435737    14B3u    3.456808  
       3Au     3.456808    15B3u    3.866811    16Ag     3.883488  
       4B3g    3.883488     8B2g    4.136433     8B1g    4.136433  
       9B2u    4.263536     9B1u    4.263536    17Ag     4.452712  
       4Au     4.466817    16B3u    4.466817    17B3u    4.778879  
       9B2g    4.845384     9B1g    4.845384    18Ag     5.156618  
      10B1u    5.729201    10B2u    5.729201    18B3u    6.092269  
      10B2g    6.298054    10B1g    6.298054    19B3u    6.335192  
      19Ag     6.698557    20Ag     9.379052    20B3u   16.155209  

    Final Occupation by Irrep:
             Ag   B1g   B2g   B3g    Au   B1u   B2u   B3u 
    DOCC [     3,    0,    0,    0,    0,    1,    1,    2 ]

  @RHF Final Energy:   -76.84501296670351

   => Energetics <=

    Nuclear Repulsion Energy =             24.3232181713792350
    One-Electron Energy =                -150.8026605465180410
    Two-Electron Energy =                  49.6344294084352953
    Total Energy =                        -76.8450129667035071

Computation Completed


Properties will be evaluated at   0.000000,   0.000000,   0.000000 [a0]

Properties computed using the SCF density matrix

  Nuclear Dipole Moment: [e a0]
     X:     0.0000      Y:     0.0000      Z:     0.0000

  Electronic Dipole Moment: [e a0]
     X:     0.0000      Y:     0.0000      Z:     0.0000

  Dipole Moment: [e a0]
     X:     0.0000      Y:     0.0000      Z:     0.0000     Total:     0.0000

  Dipole Moment: [D]
     X:     0.0000      Y:     0.0000      Z:     0.0000     Total:     0.0000


*** tstop() called on atlantis at Tue Apr 19 01:58:21 2022
Module time:
	user time   =       0.87 seconds =       0.01 minutes
	system time =       0.03 seconds =       0.00 minutes
	total time  =          1 seconds =       0.02 minutes
Total time:
	user time   =       2.55 seconds =       0.04 minutes
	system time =       0.37 seconds =       0.01 minutes
	total time  =          3 seconds =       0.05 minutes
 MINTS: Wrapper to libmints.
   by Justin Turney

   Calculation information:
      Number of threads:                 1
      Number of atoms:                   4
      Number of AO shells:              32
      Number of SO shells:              16
      Number of primitives:             68
      Number of atomic orbitals:       100
      Number of basis functions:        88

      Number of irreps:                  8
      Integral cutoff                 0.00e+00
      Number of functions per irrep: [  20   10   10    4    4   10   10   20 ]

 OEINTS: Overlap, kinetic, potential, dipole, and quadrupole integrals
         stored in file 35.

      Computing two-electron integrals...done
      Computed 999886 non-zero two-electron integrals.
        Stored in file 33.


*** tstart() called on atlantis
*** at Tue Apr 19 01:58:21 2022


	Wfn Parameters:
	--------------------
	Wavefunction         = CCSD
	Number of irreps     = 8
	Number of MOs        = 88
	Number of active MOs = 88
	AO-Basis             = NONE
	Semicanonical        = false
	Reference            = RHF
	Print Level          = 1

	IRREP	# MOs	# FZDC	# DOCC	# SOCC	# VIRT	# FZVR
	-----	-----	------	------	------	------	------
	 Ag	   20	    0	    3	    0	    17	    0
	 B1g	   10	    0	    0	    0	    10	    0
	 B2g	   10	    0	    0	    0	    10	    0
	 B3g	   4	    0	    0	    0	    4	    0
	 Au	   4	    0	    0	    0	    4	    0
	 B1u	   10	    0	    1	    0	    9	    0
	 B2u	   10	    0	    1	    0	    9	    0
	 B3u	   20	    0	    2	    0	    18	    0
	Transforming integrals...
	IWL integrals will be deleted.
	(OO|OO)...
	Presorting SO-basis two-electron integrals.
	Sorting File: SO Ints (nn|nn) nbuckets = 1
	Transforming the one-electron integrals and constructing Fock matrices
	Starting first half-transformation.
	Sorting half-transformed integrals.
	First half integral transformation complete.
	Starting second half-transformation.
	Two-electron integral transformation complete.
	(OO|OV)...
	Starting second half-transformation.
	Two-electron integral transformation complete.
	(OO|VV)...
	Starting second half-transformation.
	Two-electron integral transformation complete.
	(OV|OO)...
	Starting first half-transformation.
	Sorting half-transformed integrals.
	First half integral transformation complete.
	Starting second half-transformation.
	Two-electron integral transformation complete.
	(OV|OV)...
	Starting second half-transformation.
	Two-electron integral transformation complete.
	(OV|VV)...
	Starting second half-transformation.
	Two-electron integral transformation complete.
	(VV|OO)...
	Starting first half-transformation.
	Sorting half-transformed integrals.
	First half integral transformation complete.
	Starting second half-transformation.
	Two-electron integral transformation complete.
	(VV|OV)...
	Starting second half-transformation.
	Two-electron integral transformation complete.
	(VV|VV)...
	Starting second half-transformation.
	Two-electron integral transformation complete.
	Frozen core energy     =      0.00000000000000

	Size of irrep 0 of <ab|cd> integrals:      1.014 (MW) /      8.112 (MB)
	Size of irrep 1 of <ab|cd> integrals:      0.666 (MW) /      5.327 (MB)
	Size of irrep 2 of <ab|cd> integrals:      0.666 (MW) /      5.327 (MB)
	Size of irrep 3 of <ab|cd> integrals:      0.412 (MW) /      3.297 (MB)
	Size of irrep 4 of <ab|cd> integrals:      0.410 (MW) /      3.277 (MB)
	Size of irrep 5 of <ab|cd> integrals:      0.669 (MW) /      5.353 (MB)
	Size of irrep 6 of <ab|cd> integrals:      0.669 (MW) /      5.353 (MB)
	Size of irrep 7 of <ab|cd> integrals:      1.008 (MW) /      8.064 (MB)
	Total:                                     5.514 (MW) /     44.110 (MB)

	Size of irrep 0 of <ia|bc> integrals:      0.106 (MW) /      0.846 (MB)
	Size of irrep 1 of <ia|bc> integrals:      0.057 (MW) /      0.457 (MB)
	Size of irrep 2 of <ia|bc> integrals:      0.057 (MW) /      0.457 (MB)
	Size of irrep 3 of <ia|bc> integrals:      0.024 (MW) /      0.195 (MB)
	Size of irrep 4 of <ia|bc> integrals:      0.026 (MW) /      0.205 (MB)
	Size of irrep 5 of <ia|bc> integrals:      0.056 (MW) /      0.445 (MB)
	Size of irrep 6 of <ia|bc> integrals:      0.056 (MW) /      0.445 (MB)
	Size of irrep 7 of <ia|bc> integrals:      0.108 (MW) /      0.867 (MB)
	Total:                                     0.490 (MW) /      3.917 (MB)

	Size of irrep 0 of tijab amplitudes:       0.015 (MW) /      0.121 (MB)
	Size of irrep 1 of tijab amplitudes:       0.003 (MW) /      0.026 (MB)
	Size of irrep 2 of tijab amplitudes:       0.003 (MW) /      0.026 (MB)
	Size of irrep 3 of tijab amplitudes:       0.001 (MW) /      0.010 (MB)
	Size of irrep 4 of tijab amplitudes:       0.000 (MW) /      0.000 (MB)
	Size of irrep 5 of tijab amplitudes:       0.005 (MW) /      0.039 (MB)
	Size of irrep 6 of tijab amplitudes:       0.005 (MW) /      0.039 (MB)
	Size of irrep 7 of tijab amplitudes:       0.012 (MW) /      0.096 (MB)
	Total:                                     0.045 (MW) /      0.358 (MB)

	Nuclear Rep. energy          =     24.32321817137924
	SCF energy                   =    -76.84501296670351
	One-electron energy          =   -150.80266054621836
	Two-electron energy          =     49.63442940813567
	Reference energy             =    -76.84501296670345

*** tstop() called on atlantis at Tue Apr 19 01:58:21 2022
Module time:
	user time   =       0.26 seconds =       0.00 minutes
	system time =       0.13 seconds =       0.00 minutes
	total time  =          0 seconds =       0.00 minutes
Total time:
	user time   =       3.15 seconds =       0.05 minutes
	system time =       0.51 seconds =       0.01 minutes
	total time  =          3 seconds =       0.05 minutes
            **************************
            *                        *
            *        CCENERGY        *
            *                        *
            **************************

    Nuclear Rep. energy (wfn)     =   24.323218171379235
    SCF energy          (wfn)     =  -76.845012966703507
    Reference energy    (file100) =  -76.845012966703450

    Input parameters:
    -----------------
    Wave function   =     CCSD
    Reference wfn   =     RHF
    Brueckner       =     No
    Memory (Mbytes) =     524.3
    Maxiter         =     50
    R_Convergence   =     1.0e-07
    E_Convergence   =     1.0e-08
    Restart         =     Yes
    DIIS            =     Yes
    AO Basis        =     NONE
    ABCD            =     NEW
    Cache Level     =     2
    Cache Type      =     LOW
    Print Level     =     1
    Num. of threads =     1
    # Amps to Print =     10
    Print MP2 Amps? =     No
    Analyze T2 Amps =     No
    Print Pair Ener =     No
    Local CC        =     No
    SCS-MP2         =     False
    SCSN-MP2        =     False
    SCS-CCSD        =     False

    Using old T1 amplitudes.
    Using old T2 amplitudes.

MP2 correlation energy -0.3424267725543001
                Solving CC Amplitude Equations
                ------------------------------
  Iter             Energy              RMS        T1Diag      D1Diag    New D1Diag    D2Diag
  ----     ---------------------    ---------   ----------  ----------  ----------   --------
     0        -0.354500781395569    0.000e+00    0.011904    0.030350    0.030350    0.185779
     1        -0.354500782342219    1.943e-08    0.011904    0.030350    0.030350    0.185779
     2        -0.354500782650846    9.082e-09    0.011904    0.030350    0.030350    0.185779

    Iterations converged.


    Largest TIA Amplitudes:
              3  45         0.0221207764
              4  54         0.0221207764
              3  46         0.0142954191
              4  55         0.0142954191
              3  47         0.0113271395
              4  56         0.0113271395
              3  48         0.0083600786
              4  57         0.0083600786
              6  64        -0.0046129084
              2   0        -0.0045807935

    Largest TIjAb Amplitudes:
      3   3  27  27        -0.0884390504
      4   4  17  17        -0.0884390504
      3   4  27  17        -0.0546643104
      4   3  17  27        -0.0546643104
      3   3  27  28        -0.0478059641
      3   3  28  27        -0.0478059641
      4   4  17  18        -0.0478059641
      4   4  18  17        -0.0478059641
      3   3  28  28        -0.0322828325
      4   4  18  18        -0.0322828325

    SCF energy       (wfn)                    =  -76.845012966703507
    Reference energy (file100)                =  -76.845012966703450

    Opposite-spin MP2 correlation energy      =   -0.265421353788478
    Same-spin MP2 correlation energy          =   -0.077005418765822
    MP2 correlation energy                    =   -0.342426772554300
      * MP2 total energy                      =  -77.187439739257755

    Opposite-spin CCSD correlation energy     =   -0.288199791901490
    Same-spin CCSD correlation energy         =   -0.066300990749355
    CCSD correlation energy                   =   -0.354500782650846
      * CCSD total energy                     =  -77.199513749354296


			**************************
			*                        *
			*         CCHBAR         *
			*                        *
			**************************


			**************************
			*        CCLAMBDA        *
			**************************


	Nuclear Rep. energy (wfn)     =   24.323218171379235
	Reference           (wfn)     =                    0
	SCF energy          (wfn)     =  -76.845012966703507
	Reference energy    (CC_INFO) =  -76.845012966703450
	CCSD energy         (CC_INFO) =   -0.354500782650846
	Total CCSD energy   (CC_INFO) =  -77.199513749354296

	Input parameters:
	-----------------
	Maxiter           =     50
	Convergence       = 1.0e-07
	Restart           =     No
	Cache Level       =     2
	Model III         =     No
	DIIS              =     Yes
	AO Basis          =     No
	ABCD              =     NEW
	Local CC          =     No
	Parameters for left-handed eigenvectors:
	    Irr   Root  Ground-State?    EOM energy        R0
	  1   0     0        Yes       0.0000000000   1.0000000000
	Labels for eigenvector 1:
	LIA 0 -1, Lia 0 -1, LIJAB 0 -1, Lijab 0 -1, LIjAb 0 -1, 2LIjAb - LIjbA 0 -1
	Symmetry of left-hand state: Ag
	Symmetry of left-hand eigenvector: Ag

	          Solving Lambda Equations
	          ------------------------
	Iter     PseudoEnergy or Norm         RMS  
	----     ---------------------     --------
	   0        -0.354765167466938    0.000e+00
	   1        -0.342497518026918    1.961e-02
	   2        -0.340970087930634    4.339e-03
	   3        -0.340692206316934    1.289e-03
	   4        -0.340679913486072    2.889e-04
	   5        -0.340682218529360    9.493e-05
	   6        -0.340676224421464    3.292e-05
	   7        -0.340676302482813    1.068e-05
	   8        -0.340676147214573    3.453e-06
	   9        -0.340676151949967    8.412e-07
	  10        -0.340676155348277    1.925e-07
	  11        -0.340676152210708    5.272e-08

	Largest LIA Amplitudes:
	          3  45         0.0155870458
	          4  54         0.0155870458
	          3  46         0.0100520839
	          4  55         0.0100520839
	          3  47         0.0080428019
	          4  56         0.0080428019
	          2   0        -0.0061725606
	          3  48         0.0054145960
	          4  57         0.0054145960
	          6  67         0.0044793164

	Largest LIjAb Amplitudes:
	  3   3  27  27        -0.0846454505
	  4   4  17  17        -0.0846454505
	  3   4  27  17        -0.0508725700
	  4   3  17  27        -0.0508725700
	  3   3  27  28        -0.0456648458
	  3   3  28  27        -0.0456648458
	  4   4  17  18        -0.0456648458
	  4   4  18  17        -0.0456648458
	  3   3  28  28        -0.0307046205
	  4   4  18  18        -0.0307046205

	Iterations converged.

	Overlap <L|e^T> =        0.86534384089

			**************************
			*                        *
			*        CCDENSITY       *
			*                        *
			**************************


	Input parameters:
	-----------------
	Wave function    =   CCSD
	Reference wfn    =   RHF
	Dertype          = 1
	Tolerance        = 1.0e-14
	Cache Level      = 2
	AO Basis         = No
	OPDM Only        = No
	Relax OPDM       = Yes
	Compute Xi       = No
	Use Zeta         = No
	Xi connected     = Yes
	Compute NO       = No

	Nuclear Rep. energy (wfn)     =   24.323218171379235
	SCF energy          (wfn)     =  -76.845012966703507
	Reference energy    (file100) =  -76.845012966703450
	CCSD energy         (CC_INFO) =   -0.354500782650846
	Total CCSD energy   (CC_INFO) =  -77.199513749354296
	Number of States = 1

	Ground?  State     EOM Energy       R0
	  Yes     0 Ag    0.0000000000   1.00000000

	Virial Theorem Data:
	--------------------
	Kinetic energy (ref)   =   76.521757268356509
	Kinetic energy (corr)  =    0.419384803081099
	Kinetic energy (total) =   76.941142071437611
	-V/T (ref)             =    2.004224363238462
	-V/T (corr)            =    1.845287621407431
	-V/T (total)           =    2.003358043186788
  Cartesian Displacement SALCs
  By SALC:
  Number of SALCs: 2, nirreps: Ag
  Project out translations: False
  Project out rotations: False
	irrep = 0, ncomponent = 2
		0: atom 0, direction x, coef 0.707107
		1: atom 1, direction x, coef -0.707107
	irrep = 0, ncomponent = 2
		0: atom 2, direction x, coef 0.707107
		1: atom 3, direction x, coef -0.707107

  By Atomic Center:
  Number of atomic centers: 4
   Atomic Center 0:
	x component, size = 1
		0: salc 0, irrep 0, coef 0.707107
	y component, size = 0
	z component, size = 0
   Atomic Center 1:
	x component, size = 1
		0: salc 0, irrep 0, coef -0.707107
	y component, size = 0
	z component, size = 0
   Atomic Center 2:
	x component, size = 1
		0: salc 1, irrep 0, coef 0.707107
	y component, size = 0
	z component, size = 0
   Atomic Center 3:
	x component, size = 1
		0: salc 1, irrep 0, coef -0.707107
	y component, size = 0
	z component, size = 0

    Molecular point group: d2h
    Full point group: D_inf_h

    Geometry (in Bohr), charge = 0, multiplicity = 1:

       Center              X                  Y                   Z       
    ------------   -----------------  -----------------  -----------------
         C           -1.161161115049    -0.000000000000     0.000000000000
         C            1.161161115049     0.000000000000     0.000000000000
         H           -3.192182062907    -0.000000000000     0.000000000000
         H            3.192182062907     0.000000000000     0.000000000000

	Presorting MO-basis TPDM.
	Sorting File: MO TPDM (AA|AA) nbuckets = 1
	Starting first half-transformation.
	Sorting half-transformed TPDM.
	First half integral transformation complete.


  -Nuclear Repulsion Energy 1st Derivatives:
     Atom            X                  Y                   Z
    ------   -----------------  -----------------  -----------------
       1        5.537163209075     0.000000000000     0.000000000000
       2       -5.537163209075    -0.000000000000     0.000000000000
       3        1.795659009002     0.000000000000     0.000000000000
       4       -1.795659009002    -0.000000000000     0.000000000000


  -Core Hamiltonian Gradient:
     Atom            X                  Y                   Z
    ------   -----------------  -----------------  -----------------
       1      -13.188660852977    -0.000000000000     0.000000000000
       2       13.188660852977     0.000000000000     0.000000000000
       3       -4.359910236206    -0.000000000000     0.000000000000
       4        4.359910236206     0.000000000000     0.000000000000


  -Lagrangian contribution to gradient:
     Atom            X                  Y                   Z
    ------   -----------------  -----------------  -----------------
       1       -0.089317929575    -0.000000000000     0.000000000000
       2        0.089317929575     0.000000000000     0.000000000000
       3        0.205476850698     0.000000000000     0.000000000000
       4       -0.205476850698    -0.000000000000     0.000000000000


  -Two-electron contribution to gradient:
     Atom            X                  Y                   Z
    ------   -----------------  -----------------  -----------------
       1        7.697483419196     0.000000000000     0.000000000000
       2       -7.697483419196    -0.000000000000     0.000000000000
       3        2.345849873326     0.000000000000     0.000000000000
       4       -2.345849873326    -0.000000000000     0.000000000000


  -Total gradient:
     Atom            X                  Y                   Z
    ------   -----------------  -----------------  -----------------
       1       -0.043332154282    -0.000000000000     0.000000000000
       2        0.043332154282     0.000000000000     0.000000000000
       3       -0.012924503180    -0.000000000000     0.000000000000
       4        0.012924503180     0.000000000000     0.000000000000


  Based on options and gradient (rms=1.85E-02), recommend projecting translations and not projecting rotations.
hessian() will perform frequency computation by finite difference of analytic gradients.

         ----------------------------------------------------------
                                   FINDIF
                     R. A. King and Jonathon Misiewicz
         ---------------------------------------------------------

  Using finite-differences of gradients to determine vibrational frequencies and 
  normal modes.  Resulting frequencies are only valid at stationary points.
    Generating geometries for use with 3-point formula.
    Displacement size will be 5.00e-03.
    Number of atoms is 4.
    Number of irreps is 8.
    Number of SALCs is 9.
    Translations projected? 1. Rotations projected? 0.
    Index of SALCs per irrep:
     1 :  0  1 
     2 :  2  3 
     3 :  4  5 
     4 : 
     5 : 
     6 :  6 
     7 :  7 
     8 :  8 
    Number of SALCs per irrep:
     Irrep 1: 2
     Irrep 2: 2
     Irrep 3: 2
     Irrep 4: 0
     Irrep 5: 0
     Irrep 6: 1
     Irrep 7: 1
     Irrep 8: 1
    Number of geometries (including reference) is 12.
    Number of displacements per irrep:
      Irrep 1: 4
      Irrep 2: 2
      Irrep 3: 2
      Irrep 4: 0
      Irrep 5: 0
      Irrep 6: 1
      Irrep 7: 1
      Irrep 8: 1

  //>>>>>>>>>>>>>>>>>>>>>>>>>>>>>>>>>>>//
  //    Loading displacement 1 of 12   //
  //<<<<<<<<<<<<<<<<<<<<<<<<<<<<<<<<<<<//
gradient() will perform analytic gradient computation.

*** tstart() called on atlantis
*** at Tue Apr 19 01:58:25 2022

   => Loading Basis Set <=

    Name: CC-PVTZ
    Role: ORBITAL
    Keyword: BASIS
    atoms 1-2 entry C          line   186 file /home/akrom/software/anaconda3/envs/ffpenv/share/psi4/basis/cc-pvtz.gbs 
    atoms 3-4 entry H          line    23 file /home/akrom/software/anaconda3/envs/ffpenv/share/psi4/basis/cc-pvtz.gbs 


         ---------------------------------------------------------
                                   SCF
               by Justin Turney, Rob Parrish, Andy Simmonett
                          and Daniel G. A. Smith
                              RHF Reference
                        1 Threads,    500 MiB Core
         ---------------------------------------------------------

  ==> Geometry <==

    Molecular point group: d2h
    Full point group: D_inf_h

    Geometry (in Angstrom), charge = 0, multiplicity = 1:

       Center              X                  Y                   Z               Mass       
    ------------   -----------------  -----------------  -----------------  -----------------
         C           -0.614460000000    -0.000000000000     0.000000000000    12.000000000000
         C            0.614460000000     0.000000000000     0.000000000000    12.000000000000
         H           -1.689230000000    -0.000000000000     0.000000000000     1.007825032230
         H            1.689230000000     0.000000000000     0.000000000000     1.007825032230

  Running in d2h symmetry.

  Rotational constants: A = ************  B =      1.13802  C =      1.13802 [cm^-1]
  Rotational constants: A = ************  B =  34116.98697  C =  34116.98697 [MHz]
  Nuclear repulsion =   24.323218171379235

  Charge       = 0
  Multiplicity = 1
  Electrons    = 14
  Nalpha       = 7
  Nbeta        = 7

  ==> Algorithm <==

  SCF Algorithm Type is PK.
  DIIS enabled.
  MOM disabled.
  Fractional occupation disabled.
  Guess Type is SAD.
  Energy threshold   = 1.00e-10
  Density threshold  = 1.00e-10
  Integral threshold = 0.00e+00

  ==> Primary Basis <==

  Basis Set: CC-PVTZ
    Blend: CC-PVTZ
    Number of shells: 32
    Number of basis function: 88
    Number of Cartesian functions: 100
    Spherical Harmonics?: true
    Max angular momentum: 3

  ==> Pre-Iterations <==

   -------------------------------------------------------
    Irrep   Nso     Nmo     Nalpha   Nbeta   Ndocc  Nsocc
   -------------------------------------------------------
     Ag        20      20       0       0       0       0
     B1g       10      10       0       0       0       0
     B2g       10      10       0       0       0       0
     B3g        4       4       0       0       0       0
     Au         4       4       0       0       0       0
     B1u       10      10       0       0       0       0
     B2u       10      10       0       0       0       0
     B3u       20      20       0       0       0       0
   -------------------------------------------------------
    Total      88      88       7       7       7       0
   -------------------------------------------------------

  ==> Integral Setup <==

  Using in-core PK algorithm.
   Calculation information:
      Number of atoms:                   4
      Number of AO shells:              32
      Number of primitives:             68
      Number of atomic orbitals:       100
      Number of basis functions:        88

      Integral cutoff                 1.00e-12
      Number of threads:                 1

  Performing in-core PK
  Using 15338972 doubles for integral storage.
  We computed 139123 shell quartets total.
  Whereas there are 139656 unique shell quartets.

  ==> DiskJK: Disk-Based J/K Matrices <==

    J tasked:                  Yes
    K tasked:                  Yes
    wK tasked:                  No
    Memory [MiB]:              375
    Schwarz Cutoff:          1E-12

    OpenMP threads:              1

  Minimum eigenvalue in the overlap matrix is 1.4146724323E-04.
  Using Symmetric Orthogonalization.

  SCF Guess: Superposition of Atomic Densities via on-the-fly atomic UHF.

  ==> Iterations <==

                        Total Energy        Delta E     RMS |[F,P]|

   @RHF iter SAD:   -75.89510197415646   -7.58951e+01   0.00000e+00 
   @RHF iter   1:   -76.80624573990612   -9.11144e-01   7.80434e-03 DIIS
   @RHF iter   2:   -76.84063147420585   -3.43857e-02   2.66272e-03 DIIS
   @RHF iter   3:   -76.84486635598623   -4.23488e-03   3.33193e-04 DIIS
   @RHF iter   4:   -76.84501063148679   -1.44276e-04   4.09534e-05 DIIS
   @RHF iter   5:   -76.84501290035477   -2.26887e-06   7.00369e-06 DIIS
   @RHF iter   6:   -76.84501296444925   -6.40945e-08   1.23298e-06 DIIS
   @RHF iter   7:   -76.84501296665773   -2.20848e-09   1.71813e-07 DIIS
   @RHF iter   8:   -76.84501296670315   -4.54179e-11   1.55786e-08 DIIS
   @RHF iter   9:   -76.84501296670361   -4.54747e-13   1.60690e-09 DIIS
   @RHF iter  10:   -76.84501296670341    1.98952e-13   1.57078e-10 DIIS
   @RHF iter  11:   -76.84501296670351   -9.94760e-14   1.74774e-11 DIIS
  Energy and wave function converged.


  ==> Post-Iterations <==

    Orbital Energies [Eh]
    ---------------------

    Doubly Occupied:                                                      

       1Ag   -11.250960     1B3u  -11.247708     2Ag    -1.020447  
       2B3u   -0.765343     3Ag    -0.674973     1B1u   -0.403735  
       1B2u   -0.403735  

    Virtual:                                                              

       3B3u    0.148970     4Ag     0.170427     1B2g    0.170692  
       1B1g    0.170692     5Ag     0.311507     4B3u    0.397219  
       2B1u    0.436966     2B2u    0.436966     5B3u    0.512759  
       2B2g    0.570489     2B1g    0.570489     6Ag     0.601388  
       7Ag     0.772108     8Ag     0.772627     1B3g    0.772627  
       3B2u    0.796682     3B1u    0.796682     6B3u    0.934282  
       7B3u    1.060067     3B2g    1.061237     3B1g    1.061237  
       8B3u    1.090730     1Au     1.090730     9Ag     1.200916  
       4B1u    1.442573     4B2u    1.442573     9B3u    1.597682  
      10Ag     1.670102     4B2g    1.672046     4B1g    1.672046  
      10B3u    1.998163     5B2u    2.324909     5B1u    2.324909  
      11Ag     2.497531    11B3u    2.655859     2B3g    2.703728  
      12Ag     2.703728     5B1g    2.751233     5B2g    2.751233  
       6B1u    2.824853     6B2u    2.824853     7B2u    3.012835  
       7B1u    3.012835    13Ag     3.139550     6B1g    3.223527  
       6B2g    3.223527     7B2g    3.224254     7B1g    3.224254  
      14Ag     3.227094    15Ag     3.228881     3B3g    3.228881  
      12B3u    3.257972     2Au     3.293895    13B3u    3.293895  
       8B1u    3.435737     8B2u    3.435737    14B3u    3.456808  
       3Au     3.456808    15B3u    3.866811    16Ag     3.883488  
       4B3g    3.883488     8B2g    4.136433     8B1g    4.136433  
       9B2u    4.263536     9B1u    4.263536    17Ag     4.452712  
       4Au     4.466817    16B3u    4.466817    17B3u    4.778879  
       9B2g    4.845384     9B1g    4.845384    18Ag     5.156618  
      10B1u    5.729201    10B2u    5.729201    18B3u    6.092269  
      10B2g    6.298054    10B1g    6.298054    19B3u    6.335192  
      19Ag     6.698557    20Ag     9.379052    20B3u   16.155209  

    Final Occupation by Irrep:
             Ag   B1g   B2g   B3g    Au   B1u   B2u   B3u 
    DOCC [     3,    0,    0,    0,    0,    1,    1,    2 ]

  @RHF Final Energy:   -76.84501296670351

   => Energetics <=

    Nuclear Repulsion Energy =             24.3232181713792350
    One-Electron Energy =                -150.8026605465180410
    Two-Electron Energy =                  49.6344294084352953
    Total Energy =                        -76.8450129667035071

Computation Completed


Properties will be evaluated at   0.000000,   0.000000,   0.000000 [a0]

Properties computed using the SCF density matrix

  Nuclear Dipole Moment: [e a0]
     X:     0.0000      Y:     0.0000      Z:     0.0000

  Electronic Dipole Moment: [e a0]
     X:     0.0000      Y:     0.0000      Z:     0.0000

  Dipole Moment: [e a0]
     X:     0.0000      Y:     0.0000      Z:     0.0000     Total:     0.0000

  Dipole Moment: [D]
     X:     0.0000      Y:     0.0000      Z:     0.0000     Total:     0.0000


*** tstop() called on atlantis at Tue Apr 19 01:58:26 2022
Module time:
	user time   =       0.88 seconds =       0.01 minutes
	system time =       0.02 seconds =       0.00 minutes
	total time  =          1 seconds =       0.02 minutes
Total time:
	user time   =       7.16 seconds =       0.12 minutes
	system time =       1.16 seconds =       0.02 minutes
	total time  =          8 seconds =       0.13 minutes
 MINTS: Wrapper to libmints.
   by Justin Turney

   Calculation information:
      Number of threads:                 1
      Number of atoms:                   4
      Number of AO shells:              32
      Number of SO shells:              16
      Number of primitives:             68
      Number of atomic orbitals:       100
      Number of basis functions:        88

      Number of irreps:                  8
      Integral cutoff                 0.00e+00
      Number of functions per irrep: [  20   10   10    4    4   10   10   20 ]

 OEINTS: Overlap, kinetic, potential, dipole, and quadrupole integrals
         stored in file 35.

      Computing two-electron integrals...done
      Computed 999886 non-zero two-electron integrals.
        Stored in file 33.


*** tstart() called on atlantis
*** at Tue Apr 19 01:58:26 2022


	Wfn Parameters:
	--------------------
	Wavefunction         = CCSD
	Number of irreps     = 8
	Number of MOs        = 88
	Number of active MOs = 88
	AO-Basis             = NONE
	Semicanonical        = false
	Reference            = RHF
	Print Level          = 1

	IRREP	# MOs	# FZDC	# DOCC	# SOCC	# VIRT	# FZVR
	-----	-----	------	------	------	------	------
	 Ag	   20	    0	    3	    0	    17	    0
	 B1g	   10	    0	    0	    0	    10	    0
	 B2g	   10	    0	    0	    0	    10	    0
	 B3g	   4	    0	    0	    0	    4	    0
	 Au	   4	    0	    0	    0	    4	    0
	 B1u	   10	    0	    1	    0	    9	    0
	 B2u	   10	    0	    1	    0	    9	    0
	 B3u	   20	    0	    2	    0	    18	    0
	Transforming integrals...
	IWL integrals will be deleted.
	(OO|OO)...
	Presorting SO-basis two-electron integrals.
	Sorting File: SO Ints (nn|nn) nbuckets = 1
	Transforming the one-electron integrals and constructing Fock matrices
	Starting first half-transformation.
	Sorting half-transformed integrals.
	First half integral transformation complete.
	Starting second half-transformation.
	Two-electron integral transformation complete.
	(OO|OV)...
	Starting second half-transformation.
	Two-electron integral transformation complete.
	(OO|VV)...
	Starting second half-transformation.
	Two-electron integral transformation complete.
	(OV|OO)...
	Starting first half-transformation.
	Sorting half-transformed integrals.
	First half integral transformation complete.
	Starting second half-transformation.
	Two-electron integral transformation complete.
	(OV|OV)...
	Starting second half-transformation.
	Two-electron integral transformation complete.
	(OV|VV)...
	Starting second half-transformation.
	Two-electron integral transformation complete.
	(VV|OO)...
	Starting first half-transformation.
	Sorting half-transformed integrals.
	First half integral transformation complete.
	Starting second half-transformation.
	Two-electron integral transformation complete.
	(VV|OV)...
	Starting second half-transformation.
	Two-electron integral transformation complete.
	(VV|VV)...
	Starting second half-transformation.
	Two-electron integral transformation complete.
	Frozen core energy     =      0.00000000000000

	Size of irrep 0 of <ab|cd> integrals:      1.014 (MW) /      8.112 (MB)
	Size of irrep 1 of <ab|cd> integrals:      0.666 (MW) /      5.327 (MB)
	Size of irrep 2 of <ab|cd> integrals:      0.666 (MW) /      5.327 (MB)
	Size of irrep 3 of <ab|cd> integrals:      0.412 (MW) /      3.297 (MB)
	Size of irrep 4 of <ab|cd> integrals:      0.410 (MW) /      3.277 (MB)
	Size of irrep 5 of <ab|cd> integrals:      0.669 (MW) /      5.353 (MB)
	Size of irrep 6 of <ab|cd> integrals:      0.669 (MW) /      5.353 (MB)
	Size of irrep 7 of <ab|cd> integrals:      1.008 (MW) /      8.064 (MB)
	Total:                                     5.514 (MW) /     44.110 (MB)

	Size of irrep 0 of <ia|bc> integrals:      0.106 (MW) /      0.846 (MB)
	Size of irrep 1 of <ia|bc> integrals:      0.057 (MW) /      0.457 (MB)
	Size of irrep 2 of <ia|bc> integrals:      0.057 (MW) /      0.457 (MB)
	Size of irrep 3 of <ia|bc> integrals:      0.024 (MW) /      0.195 (MB)
	Size of irrep 4 of <ia|bc> integrals:      0.026 (MW) /      0.205 (MB)
	Size of irrep 5 of <ia|bc> integrals:      0.056 (MW) /      0.445 (MB)
	Size of irrep 6 of <ia|bc> integrals:      0.056 (MW) /      0.445 (MB)
	Size of irrep 7 of <ia|bc> integrals:      0.108 (MW) /      0.867 (MB)
	Total:                                     0.490 (MW) /      3.917 (MB)

	Size of irrep 0 of tijab amplitudes:       0.015 (MW) /      0.121 (MB)
	Size of irrep 1 of tijab amplitudes:       0.003 (MW) /      0.026 (MB)
	Size of irrep 2 of tijab amplitudes:       0.003 (MW) /      0.026 (MB)
	Size of irrep 3 of tijab amplitudes:       0.001 (MW) /      0.010 (MB)
	Size of irrep 4 of tijab amplitudes:       0.000 (MW) /      0.000 (MB)
	Size of irrep 5 of tijab amplitudes:       0.005 (MW) /      0.039 (MB)
	Size of irrep 6 of tijab amplitudes:       0.005 (MW) /      0.039 (MB)
	Size of irrep 7 of tijab amplitudes:       0.012 (MW) /      0.096 (MB)
	Total:                                     0.045 (MW) /      0.358 (MB)

	Nuclear Rep. energy          =     24.32321817137924
	SCF energy                   =    -76.84501296670351
	One-electron energy          =   -150.80266054621836
	Two-electron energy          =     49.63442940813567
	Reference energy             =    -76.84501296670345

*** tstop() called on atlantis at Tue Apr 19 01:58:27 2022
Module time:
	user time   =       0.24 seconds =       0.00 minutes
	system time =       0.16 seconds =       0.00 minutes
	total time  =          1 seconds =       0.02 minutes
Total time:
	user time   =       7.72 seconds =       0.13 minutes
	system time =       1.32 seconds =       0.02 minutes
	total time  =          9 seconds =       0.15 minutes
            **************************
            *                        *
            *        CCENERGY        *
            *                        *
            **************************

    Nuclear Rep. energy (wfn)     =   24.323218171379235
    SCF energy          (wfn)     =  -76.845012966703507
    Reference energy    (file100) =  -76.845012966703450

    Input parameters:
    -----------------
    Wave function   =     CCSD
    Reference wfn   =     RHF
    Brueckner       =     No
    Memory (Mbytes) =     524.3
    Maxiter         =     50
    R_Convergence   =     1.0e-07
    E_Convergence   =     1.0e-08
    Restart         =     Yes
    DIIS            =     Yes
    AO Basis        =     NONE
    ABCD            =     NEW
    Cache Level     =     2
    Cache Type      =     LOW
    Print Level     =     1
    Num. of threads =     1
    # Amps to Print =     10
    Print MP2 Amps? =     No
    Analyze T2 Amps =     No
    Print Pair Ener =     No
    Local CC        =     No
    SCS-MP2         =     False
    SCSN-MP2        =     False
    SCS-CCSD        =     False

MP2 correlation energy -0.3424267725543001
                Solving CC Amplitude Equations
                ------------------------------
  Iter             Energy              RMS        T1Diag      D1Diag    New D1Diag    D2Diag
  ----     ---------------------    ---------   ----------  ----------  ----------   --------
     0        -0.342426772554300    0.000e+00    0.000000    0.000000    0.000000    0.167684
     1        -0.341286095810186    5.742e-02    0.010312    0.026115    0.026115    0.166167
     2        -0.351584484541635    2.368e-02    0.010263    0.026040    0.026040    0.176870
     3        -0.354186809433713    1.012e-02    0.011848    0.030167    0.030167    0.183156
     4        -0.354417626631930    3.057e-03    0.011931    0.030403    0.030403    0.185274
     5        -0.354494328506921    6.985e-04    0.011925    0.030400    0.030400    0.185726
     6        -0.354498597130195    1.789e-04    0.011908    0.030358    0.030358    0.185766
     7        -0.354500612710471    3.961e-05    0.011905    0.030351    0.030351    0.185776
     8        -0.354500917108744    1.055e-05    0.011904    0.030350    0.030350    0.185779
     9        -0.354500742873916    2.414e-06    0.011904    0.030350    0.030350    0.185778
    10        -0.354500771071393    6.372e-07    0.011904    0.030350    0.030350    0.185779
    11        -0.354500777509324    1.477e-07    0.011904    0.030350    0.030350    0.185779
    12        -0.354500781360384    4.488e-08    0.011904    0.030350    0.030350    0.185779

    Iterations converged.


    Largest TIA Amplitudes:
              3  45         0.0221207756
              4  54         0.0221207756
              3  46         0.0142954183
              4  55         0.0142954183
              3  47         0.0113271393
              4  56         0.0113271393
              3  48         0.0083600779
              4  57         0.0083600779
              6  64        -0.0046129084
              2   0        -0.0045807934

    Largest TIjAb Amplitudes:
      3   3  27  27        -0.0884390461
      4   4  17  17        -0.0884390461
      3   4  27  17        -0.0546643107
      4   3  17  27        -0.0546643107
      3   3  27  28        -0.0478059618
      3   3  28  27        -0.0478059618
      4   4  17  18        -0.0478059618
      4   4  18  17        -0.0478059618
      3   3  28  28        -0.0322828316
      4   4  18  18        -0.0322828316

    SCF energy       (wfn)                    =  -76.845012966703507
    Reference energy (file100)                =  -76.845012966703450

    Opposite-spin MP2 correlation energy      =   -0.265421353788478
    Same-spin MP2 correlation energy          =   -0.077005418765822
    MP2 correlation energy                    =   -0.342426772554300
      * MP2 total energy                      =  -77.187439739257755

    Opposite-spin CCSD correlation energy     =   -0.288199790433379
    Same-spin CCSD correlation energy         =   -0.066300990927004
    CCSD correlation energy                   =   -0.354500781360384
      * CCSD total energy                     =  -77.199513748063836


			**************************
			*                        *
			*         CCHBAR         *
			*                        *
			**************************


			**************************
			*        CCLAMBDA        *
			**************************


	Nuclear Rep. energy (wfn)     =   24.323218171379235
	Reference           (wfn)     =                    0
	SCF energy          (wfn)     =  -76.845012966703507
	Reference energy    (CC_INFO) =  -76.845012966703450
	CCSD energy         (CC_INFO) =   -0.354500781360384
	Total CCSD energy   (CC_INFO) =  -77.199513748063836

	Input parameters:
	-----------------
	Maxiter           =     50
	Convergence       = 1.0e-07
	Restart           =     No
	Cache Level       =     2
	Model III         =     No
	DIIS              =     Yes
	AO Basis          =     No
	ABCD              =     NEW
	Local CC          =     No
	Parameters for left-handed eigenvectors:
	    Irr   Root  Ground-State?    EOM energy        R0
	  1   0     0        Yes       0.0000000000   1.0000000000
	Labels for eigenvector 1:
	LIA 0 -1, Lia 0 -1, LIJAB 0 -1, Lijab 0 -1, LIjAb 0 -1, 2LIjAb - LIjbA 0 -1
	Symmetry of left-hand state: Ag
	Symmetry of left-hand eigenvector: Ag

	          Solving Lambda Equations
	          ------------------------
	Iter     PseudoEnergy or Norm         RMS  
	----     ---------------------     --------
	   0        -0.354765166161582    5.272e-08
	   1        -0.342497517778375    1.961e-02
	   2        -0.340970088090898    4.339e-03
	   3        -0.340692206514751    1.289e-03
	   4        -0.340679913660657    2.889e-04
	   5        -0.340682218691518    9.493e-05
	   6        -0.340676224582979    3.292e-05
	   7        -0.340676302645118    1.068e-05
	   8        -0.340676147376067    3.453e-06
	   9        -0.340676152112203    8.412e-07
	  10        -0.340676155510109    1.925e-07
	  11        -0.340676152372678    5.272e-08

	Largest LIA Amplitudes:
	          3  45         0.0155870458
	          4  54         0.0155870458
	          3  46         0.0100520841
	          4  55         0.0100520841
	          3  47         0.0080428020
	          4  56         0.0080428020
	          2   0        -0.0061725605
	          3  48         0.0054145960
	          4  57         0.0054145960
	          6  67         0.0044793162

	Largest LIjAb Amplitudes:
	  3   3  27  27        -0.0846454505
	  4   4  17  17        -0.0846454505
	  3   4  27  17        -0.0508725702
	  4   3  17  27        -0.0508725702
	  3   3  27  28        -0.0456648457
	  3   3  28  27        -0.0456648457
	  4   4  17  18        -0.0456648457
	  4   4  18  17        -0.0456648457
	  3   3  28  28        -0.0307046205
	  4   4  18  18        -0.0307046205

	Iterations converged.

	Overlap <L|e^T> =        0.86534384182

			**************************
			*                        *
			*        CCDENSITY       *
			*                        *
			**************************


	Input parameters:
	-----------------
	Wave function    =   CCSD
	Reference wfn    =   RHF
	Dertype          = 1
	Tolerance        = 1.0e-14
	Cache Level      = 2
	AO Basis         = No
	OPDM Only        = No
	Relax OPDM       = Yes
	Compute Xi       = No
	Use Zeta         = No
	Xi connected     = Yes
	Compute NO       = No

	Nuclear Rep. energy (wfn)     =   24.323218171379235
	SCF energy          (wfn)     =  -76.845012966703507
	Reference energy    (file100) =  -76.845012966703450
	CCSD energy         (CC_INFO) =   -0.354500781360384
	Total CCSD energy   (CC_INFO) =  -77.199513748063836
	Number of States = 1

	Ground?  State     EOM Energy       R0
	  Yes     0 Ag    0.0000000000   1.00000000

	Virial Theorem Data:
	--------------------
	Kinetic energy (ref)   =   76.521757268356509
	Kinetic energy (corr)  =    0.419384792653915
	Kinetic energy (total) =   76.941142061010424
	-V/T (ref)             =    2.004224363238462
	-V/T (corr)            =    1.845287639346821
	-V/T (total)           =    2.003358043305993
  Cartesian Displacement SALCs
  By SALC:
  Number of SALCs: 2, nirreps: Ag
  Project out translations: False
  Project out rotations: False
	irrep = 0, ncomponent = 2
		0: atom 0, direction x, coef 0.707107
		1: atom 1, direction x, coef -0.707107
	irrep = 0, ncomponent = 2
		0: atom 2, direction x, coef 0.707107
		1: atom 3, direction x, coef -0.707107

  By Atomic Center:
  Number of atomic centers: 4
   Atomic Center 0:
	x component, size = 1
		0: salc 0, irrep 0, coef 0.707107
	y component, size = 0
	z component, size = 0
   Atomic Center 1:
	x component, size = 1
		0: salc 0, irrep 0, coef -0.707107
	y component, size = 0
	z component, size = 0
   Atomic Center 2:
	x component, size = 1
		0: salc 1, irrep 0, coef 0.707107
	y component, size = 0
	z component, size = 0
   Atomic Center 3:
	x component, size = 1
		0: salc 1, irrep 0, coef -0.707107
	y component, size = 0
	z component, size = 0

    Molecular point group: d2h
    Full point group: D_inf_h

    Geometry (in Bohr), charge = 0, multiplicity = 1:

       Center              X                  Y                   Z       
    ------------   -----------------  -----------------  -----------------
         C           -1.161161115049    -0.000000000000     0.000000000000
         C            1.161161115049     0.000000000000     0.000000000000
         H           -3.192182062907    -0.000000000000     0.000000000000
         H            3.192182062907     0.000000000000     0.000000000000

	Presorting MO-basis TPDM.
	Sorting File: MO TPDM (AA|AA) nbuckets = 1
	Starting first half-transformation.
	Sorting half-transformed TPDM.
	First half integral transformation complete.


  -Nuclear Repulsion Energy 1st Derivatives:
     Atom            X                  Y                   Z
    ------   -----------------  -----------------  -----------------
       1        5.537163209075     0.000000000000     0.000000000000
       2       -5.537163209075    -0.000000000000     0.000000000000
       3        1.795659009002     0.000000000000     0.000000000000
       4       -1.795659009002    -0.000000000000     0.000000000000


  -Core Hamiltonian Gradient:
     Atom            X                  Y                   Z
    ------   -----------------  -----------------  -----------------
       1      -13.188660842481    -0.000000000000     0.000000000000
       2       13.188660842481     0.000000000000     0.000000000000
       3       -4.359910241164    -0.000000000000     0.000000000000
       4        4.359910241164     0.000000000000     0.000000000000


  -Lagrangian contribution to gradient:
     Atom            X                  Y                   Z
    ------   -----------------  -----------------  -----------------
       1       -0.089317928783    -0.000000000000     0.000000000000
       2        0.089317928783     0.000000000000     0.000000000000
       3        0.205476850935     0.000000000000     0.000000000000
       4       -0.205476850935    -0.000000000000     0.000000000000


  -Two-electron contribution to gradient:
     Atom            X                  Y                   Z
    ------   -----------------  -----------------  -----------------
       1        7.697483407521     0.000000000000     0.000000000000
       2       -7.697483407521    -0.000000000000     0.000000000000
       3        2.345849878334     0.000000000000     0.000000000000
       4       -2.345849878334    -0.000000000000     0.000000000000


  -Total gradient:
     Atom            X                  Y                   Z
    ------   -----------------  -----------------  -----------------
       1       -0.043332154667    -0.000000000000     0.000000000000
       2        0.043332154667     0.000000000000     0.000000000000
       3       -0.012924502894    -0.000000000000     0.000000000000
       4        0.012924502894     0.000000000000     0.000000000000


  //>>>>>>>>>>>>>>>>>>>>>>>>>>>>>>>>>>>//
  //    Loading displacement 2 of 12   //
  //<<<<<<<<<<<<<<<<<<<<<<<<<<<<<<<<<<<//
gradient() will perform analytic gradient computation.

*** tstart() called on atlantis
*** at Tue Apr 19 01:58:31 2022

   => Loading Basis Set <=

    Name: CC-PVTZ
    Role: ORBITAL
    Keyword: BASIS
    atoms 1-2 entry C          line   186 file /home/akrom/software/anaconda3/envs/ffpenv/share/psi4/basis/cc-pvtz.gbs 
    atoms 3-4 entry H          line    23 file /home/akrom/software/anaconda3/envs/ffpenv/share/psi4/basis/cc-pvtz.gbs 


         ---------------------------------------------------------
                                   SCF
               by Justin Turney, Rob Parrish, Andy Simmonett
                          and Daniel G. A. Smith
                              RHF Reference
                        1 Threads,    500 MiB Core
         ---------------------------------------------------------

  ==> Geometry <==

    Molecular point group: d2h
    Full point group: D_inf_h

    Geometry (in Angstrom), charge = 0, multiplicity = 1:

       Center              X                  Y                   Z               Mass       
    ------------   -----------------  -----------------  -----------------  -----------------
         C           -0.615000089229    -0.000000000000     0.000000000000    12.000000000000
         C            0.615000089229     0.000000000000     0.000000000000    12.000000000000
         H           -1.689230000000    -0.000000000000     0.000000000000     1.007825032230
         H            1.689230000000     0.000000000000     0.000000000000     1.007825032230

  Running in d2h symmetry.

  Rotational constants: A = ************  B =      1.13680  C =      1.13680 [cm^-1]
  Rotational constants: A = ************  B =  34080.32226  C =  34080.32226 [MHz]
  Nuclear repulsion =   24.311929094340595

  Charge       = 0
  Multiplicity = 1
  Electrons    = 14
  Nalpha       = 7
  Nbeta        = 7

  ==> Algorithm <==

  SCF Algorithm Type is PK.
  DIIS enabled.
  MOM disabled.
  Fractional occupation disabled.
  Guess Type is SAD.
  Energy threshold   = 1.00e-10
  Density threshold  = 1.00e-10
  Integral threshold = 0.00e+00

  ==> Primary Basis <==

  Basis Set: CC-PVTZ
    Blend: CC-PVTZ
    Number of shells: 32
    Number of basis function: 88
    Number of Cartesian functions: 100
    Spherical Harmonics?: true
    Max angular momentum: 3

  ==> Pre-Iterations <==

   -------------------------------------------------------
    Irrep   Nso     Nmo     Nalpha   Nbeta   Ndocc  Nsocc
   -------------------------------------------------------
     Ag        20      20       0       0       0       0
     B1g       10      10       0       0       0       0
     B2g       10      10       0       0       0       0
     B3g        4       4       0       0       0       0
     Au         4       4       0       0       0       0
     B1u       10      10       0       0       0       0
     B2u       10      10       0       0       0       0
     B3u       20      20       0       0       0       0
   -------------------------------------------------------
    Total      88      88       7       7       7       0
   -------------------------------------------------------

  ==> Integral Setup <==

  Using in-core PK algorithm.
   Calculation information:
      Number of atoms:                   4
      Number of AO shells:              32
      Number of primitives:             68
      Number of atomic orbitals:       100
      Number of basis functions:        88

      Integral cutoff                 1.00e-12
      Number of threads:                 1

  Performing in-core PK
  Using 15338972 doubles for integral storage.
  We computed 139123 shell quartets total.
  Whereas there are 139656 unique shell quartets.

  ==> DiskJK: Disk-Based J/K Matrices <==

    J tasked:                  Yes
    K tasked:                  Yes
    wK tasked:                  No
    Memory [MiB]:              375
    Schwarz Cutoff:          1E-12

    OpenMP threads:              1

  Minimum eigenvalue in the overlap matrix is 1.4205928343E-04.
  Using Symmetric Orthogonalization.

  SCF Guess: Superposition of Atomic Densities via on-the-fly atomic UHF.

  ==> Iterations <==

                        Total Energy        Delta E     RMS |[F,P]|

   @RHF iter SAD:   -75.89404839780299   -7.58940e+01   0.00000e+00 
   @RHF iter   1:   -76.80621500492229   -9.12167e-01   7.78368e-03 DIIS
   @RHF iter   2:   -76.84047590700114   -3.42609e-02   2.65419e-03 DIIS
   @RHF iter   3:   -76.84468537849493   -4.20947e-03   3.33321e-04 DIIS
   @RHF iter   4:   -76.84482999963465   -1.44621e-04   4.10155e-05 DIIS
   @RHF iter   5:   -76.84483227440414   -2.27477e-06   7.00443e-06 DIIS
   @RHF iter   6:   -76.84483233850548   -6.41013e-08   1.23141e-06 DIIS
   @RHF iter   7:   -76.84483234070913   -2.20365e-09   1.71937e-07 DIIS
   @RHF iter   8:   -76.84483234075465   -4.55174e-11   1.55527e-08 DIIS
   @RHF iter   9:   -76.84483234075499   -3.41061e-13   1.60498e-09 DIIS
   @RHF iter  10:   -76.84483234075500   -1.42109e-14   1.56340e-10 DIIS
   @RHF iter  11:   -76.84483234075512   -1.13687e-13   1.74341e-11 DIIS
  Energy and wave function converged.


  ==> Post-Iterations <==

    Orbital Energies [Eh]
    ---------------------

    Doubly Occupied:                                                      

       1Ag   -11.251262     1B3u  -11.248031     2Ag    -1.020173  
       2B3u   -0.765732     3Ag    -0.675136     1B1u   -0.403512  
       1B2u   -0.403512  

    Virtual:                                                              

       3B3u    0.148956     1B1g    0.170398     1B2g    0.170398  
       4Ag     0.170415     5Ag     0.311544     4B3u    0.396955  
       2B1u    0.437065     2B2u    0.437065     5B3u    0.512876  
[...]
    12        -0.354501089998032    4.496e-08    0.011904    0.030350    0.030350    0.185779

    Iterations converged.


    Largest TIA Amplitudes:
              5  44         0.0221207913
              6  63         0.0221207913
              5  46         0.0142953792
              6  65         0.0142953792
              5  48         0.0113270314
              6  67         0.0113270314
              5  50         0.0083600736
              6  69         0.0083600736
              3   3        -0.0046128795
              4   1        -0.0045804101

    Largest TIjAb Amplitudes:
      5   5  43  43        -0.0884390743
      6   6  62  62        -0.0884390743
      5   6  43  62        -0.0546643230
      6   5  62  43        -0.0546643230
      5   5  43  45        -0.0478059802
      5   5  45  43        -0.0478059802
      6   6  62  64        -0.0478059802
      6   6  64  62        -0.0478059802
      5   5  45  45        -0.0322828352
      6   6  64  64        -0.0322828352

    SCF energy       (wfn)                    =  -76.845007617328690
    Reference energy (file100)                =  -76.845007617328889

    Opposite-spin MP2 correlation energy      =   -0.265421586232303
    Same-spin MP2 correlation energy          =   -0.077005451759591
    MP2 correlation energy                    =   -0.342427037991893
      * MP2 total energy                      =  -77.187434655320786

    Opposite-spin CCSD correlation energy     =   -0.288200088981024
    Same-spin CCSD correlation energy         =   -0.066301001017009
    CCSD correlation energy                   =   -0.354501089998032
      * CCSD total energy                     =  -77.199508707326927


			**************************
			*                        *
			*         CCHBAR         *
			*                        *
			**************************


			**************************
			*        CCLAMBDA        *
			**************************


	Nuclear Rep. energy (wfn)     =   24.323239383855910
	Reference           (wfn)     =                    0
	SCF energy          (wfn)     =  -76.845007617328690
	Reference energy    (CC_INFO) =  -76.845007617328889
	CCSD energy         (CC_INFO) =   -0.354501089998032
	Total CCSD energy   (CC_INFO) =  -77.199508707326927

	Input parameters:
	-----------------
	Maxiter           =     50
	Convergence       = 1.0e-07
	Restart           =     No
	Cache Level       =     2
	Model III         =     No
	DIIS              =     Yes
	AO Basis          =     No
	ABCD              =     NEW
	Local CC          =     No
	Parameters for left-handed eigenvectors:
	    Irr   Root  Ground-State?    EOM energy        R0
	  1   0     0        Yes       0.0000000000   1.0000000000
	Labels for eigenvector 1:
	LIA 0 -1, Lia 0 -1, LIJAB 0 -1, Lijab 0 -1, LIjAb 0 -1, 2LIjAb - LIjbA 0 -1
	Symmetry of left-hand state: A1
	Symmetry of left-hand eigenvector: A1

	          Solving Lambda Equations
	          ------------------------
	Iter     PseudoEnergy or Norm         RMS  
	----     ---------------------     --------
	   0        -0.354765475242309    5.290e-08
	   1        -0.342497802613570    1.961e-02
	   2        -0.340970370511653    4.339e-03
	   3        -0.340692488140025    1.289e-03
	   4        -0.340680194083407    2.889e-04
	   5        -0.340682499223171    9.493e-05
	   6        -0.340676505921535    3.292e-05
	   7        -0.340676582700865    1.068e-05
	   8        -0.340676428253659    3.455e-06
	   9        -0.340676432464353    8.428e-07
	  10        -0.340676436126960    1.933e-07
	  11        -0.340676432915573    5.293e-08

	Largest LIA Amplitudes:
	          5  44         0.0155870621
	          6  63         0.0155870621
	          5  46         0.0100520489
	          6  65         0.0100520489
	          5  48         0.0080427320
	          6  67         0.0080427320
	          4   1        -0.0061721113
	          5  50         0.0054145942
	          6  69         0.0054145942
	          3   9         0.0044790697

	Largest LIjAb Amplitudes:
	  5   5  43  43        -0.0846454795
	  6   6  62  62        -0.0846454795
	  5   6  43  62        -0.0508725811
	  6   5  62  43        -0.0508725811
	  5   5  43  45        -0.0456648649
	  5   5  45  43        -0.0456648649
	  6   6  62  64        -0.0456648649
	  6   6  64  62        -0.0456648649
	  5   5  45  45        -0.0307046251
	  6   6  64  64        -0.0307046251

	Iterations converged.

	Overlap <L|e^T> =        0.86534360331

			**************************
			*                        *
			*        CCDENSITY       *
			*                        *
			**************************


	Input parameters:
	-----------------
	Wave function    =   CCSD
	Reference wfn    =   RHF
	Dertype          = 1
	Tolerance        = 1.0e-14
	Cache Level      = 2
	AO Basis         = No
	OPDM Only        = No
	Relax OPDM       = Yes
	Compute Xi       = No
	Use Zeta         = No
	Xi connected     = Yes
	Compute NO       = No

	Nuclear Rep. energy (wfn)     =   24.323239383855910
	SCF energy          (wfn)     =  -76.845007617328690
	Reference energy    (file100) =  -76.845007617328889
	CCSD energy         (CC_INFO) =   -0.354501089998032
	Total CCSD energy   (CC_INFO) =  -77.199508707326927
	Number of States = 1

	Ground?  State     EOM Energy       R0
	  Yes     0 A1    0.0000000000   1.00000000

	Virial Theorem Data:
	--------------------
	Kinetic energy (ref)   =   76.521772104178680
	Kinetic energy (corr)  =    0.419385401827376
	Kinetic energy (total) =   76.941157506006050
	-V/T (ref)             =    2.004224098635747
	-V/T (corr)            =    1.845287147462391
	-V/T (total)           =    2.003357776379965
  Cartesian Displacement SALCs
  By SALC:
  Number of SALCs: 4, nirreps: A1
  Project out translations: False
  Project out rotations: False
	irrep = 0, ncomponent = 1
		0: atom 0, direction x, coef 1.000000
	irrep = 0, ncomponent = 1
		0: atom 1, direction x, coef 1.000000
	irrep = 0, ncomponent = 1
		0: atom 2, direction x, coef 1.000000
	irrep = 0, ncomponent = 1
		0: atom 3, direction x, coef 1.000000

  By Atomic Center:
  Number of atomic centers: 4
   Atomic Center 0:
	x component, size = 1
		0: salc 0, irrep 0, coef 1.000000
	y component, size = 0
	z component, size = 0
   Atomic Center 1:
	x component, size = 1
		0: salc 1, irrep 0, coef 1.000000
	y component, size = 0
	z component, size = 0
   Atomic Center 2:
	x component, size = 1
		0: salc 2, irrep 0, coef 1.000000
	y component, size = 0
	z component, size = 0
   Atomic Center 3:
	x component, size = 1
		0: salc 3, irrep 0, coef 1.000000
	y component, size = 0
	z component, size = 0

    Molecular point group: c2v
    Full point group: C_inf_v

    Geometry (in Bohr), charge = 0, multiplicity = 1:

       Center              X                  Y                   Z       
    ------------   -----------------  -----------------  -----------------
         C           -1.161445204175     0.000000000000     0.000000000000
         C            1.160877025923     0.000000000000     0.000000000000
         H           -3.188799462353     0.000000000000     0.000000000000
         H            3.195564663461     0.000000000000     0.000000000000

	Presorting MO-basis TPDM.
	Sorting File: MO TPDM (AA|AA) nbuckets = 1
	Starting first half-transformation.
	Sorting half-transformed TPDM.
	First half integral transformation complete.


  -Nuclear Repulsion Energy 1st Derivatives:
     Atom            X                  Y                   Z
    ------   -----------------  -----------------  -----------------
       1        5.531364458616     0.000000000000     0.000000000000
       2       -5.542934862809     0.000000000000     0.000000000000
       3        1.801459107056     0.000000000000     0.000000000000
       4       -1.789888702864     0.000000000000     0.000000000000


  -Core Hamiltonian Gradient:
     Atom            X                  Y                   Z
    ------   -----------------  -----------------  -----------------
       1      -13.190179002323     0.000000000000     0.000000000000
       2       13.187280829089     0.000000000000     0.000000000000
       3       -4.358429249854     0.000000000000     0.000000000000
       4        4.361327423088     0.000000000000     0.000000000000


  -Lagrangian contribution to gradient:
     Atom            X                  Y                   Z
    ------   -----------------  -----------------  -----------------
       1       -0.088021028556     0.000000000000     0.000000000000
       2        0.090595769602     0.000000000000     0.000000000000
       3        0.204182734468     0.000000000000     0.000000000000
       4       -0.206757475514     0.000000000000     0.000000000000


  -Two-electron contribution to gradient:
     Atom            X                  Y                   Z
    ------   -----------------  -----------------  -----------------
       1        7.702120719085     0.000000000000     0.000000000000
       2       -7.692976383866     0.000000000000     0.000000000000
       3        2.341245386167     0.000000000000     0.000000000000
       4       -2.350389721386     0.000000000000     0.000000000000


  -Total gradient:
     Atom            X                  Y                   Z
    ------   -----------------  -----------------  -----------------
       1       -0.044714853177     0.000000000000     0.000000000000
       2        0.041965352016     0.000000000000     0.000000000000
       3       -0.011542022162     0.000000000000     0.000000000000
       4        0.014291523324     0.000000000000     0.000000000000


         ----------------------------------------------------------
                                   FINDIF
                     R. A. King and Jonathon Misiewicz
         ---------------------------------------------------------

  Computing second-derivative from gradients using projected, 
  symmetry-adapted, cartesian coordinates.

  12 gradients passed in, including the reference geometry.
  Generating complete list of displacements from unique ones.

    Operation 3 takes plus displacements of irrep B1g to minus ones.
    Operation 2 takes plus displacements of irrep B2g to minus ones.
    Operation 3 takes plus displacements of irrep B1u to minus ones.
    Operation 2 takes plus displacements of irrep B2u to minus ones.
    Operation 2 takes plus displacements of irrep B3u to minus ones.

-------------------------------------------------------------


  ==> Harmonic Vibrational Analysis <==

  non-mass-weighted Hessian:       Symmetric? True   Hermitian? True   Lin Dep Dim?  3 (0)
  projection of translations (True) and rotations (False) removed 3 degrees of freedom (5)
  total projector:                 Symmetric? True   Hermitian? True   Lin Dep Dim?  3 (3)
  mass-weighted Hessian:           Symmetric? True   Hermitian? True   Lin Dep Dim?  3 (0)
  pre-proj  low-frequency mode:    0.0000i [cm^-1]
  pre-proj  low-frequency mode:    0.0000  [cm^-1]
  pre-proj  low-frequency mode:    0.0000  [cm^-1]
  pre-proj  low-frequency mode:  301.9201  [cm^-1]
  pre-proj  low-frequency mode:  301.9201  [cm^-1]
  pre-proj  all modes:['0.0000i' '0.0000' '0.0000' '301.9201' '301.9201' '706.3067' '706.3067'
 '855.4743' '855.4743' '1897.9981' '3264.3619' '3377.4028']
  projected mass-weighted Hessian: Symmetric? True   Hermitian? True   Lin Dep Dim?  3 (3)
  post-proj low-frequency mode:    0.0000i [cm^-1] (TR)
  post-proj low-frequency mode:    0.0000i [cm^-1] (TR)
  post-proj low-frequency mode:    0.0000  [cm^-1] (TR)
  post-proj low-frequency mode:  301.9201  [cm^-1] (V)
  post-proj low-frequency mode:  301.9201  [cm^-1] (V)
  post-proj  all modes:['0.0000i' '0.0000i' '0.0000' '301.9201' '301.9201' '706.3067' '706.3067'
 '855.4743' '855.4743' '1897.9981' '3264.3619' '3377.4028']

  Note that "Vibration"s include 2 un-projected rotation-like modes.
  Vibration                       4                   5                   6           
  Freq [cm^-1]                 301.9201            301.9201            706.3067       
  Irrep                          B2g                 B1g                 B2g          
  Reduced mass [u]              2.4331              2.4331              1.5047        
  Force const [mDyne/A]         0.1307              0.1307              0.4423        
  Turning point v=0 [a0]        0.4048              0.4048              0.3366        
  RMS dev v=0 [a0 u^1/2]        0.4465              0.4465              0.2919        
  Char temp [K]                434.3958            434.3958           1016.2181       
  ----------------------------------------------------------------------------------
      1   C               -0.00  0.00  0.25   -0.00  0.25 -0.00    0.00  0.00 -0.15   
      2   C               -0.00 -0.00 -0.25   -0.00 -0.25  0.00    0.00 -0.00  0.15   
      3   H               -0.00  0.00  0.66   -0.00  0.66 -0.00    0.00 -0.00  0.69   
      4   H               -0.00 -0.00 -0.66   -0.00 -0.66  0.00   -0.00  0.00 -0.69   

  Vibration                       7                   8                   9           
  Freq [cm^-1]                 706.3067            855.4743            855.4743       
  Irrep                          B1g                 B2u                 B1u          
  Reduced mass [u]              1.5047              1.0848              1.0848        
  Force const [mDyne/A]         0.4423              0.4678              0.4678        
  Turning point v=0 [a0]        0.3366              0.3602              0.3602        
  RMS dev v=0 [a0 u^1/2]        0.2919              0.2653              0.2653        
  Char temp [K]               1016.2181           1230.8370           1230.8370       
  ----------------------------------------------------------------------------------
      1   C                0.00 -0.15 -0.00    0.00 -0.06 -0.00    0.00  0.00 -0.06   
      2   C                0.00  0.15  0.00    0.00 -0.06 -0.00    0.00  0.00 -0.06   
      3   H               -0.00  0.69  0.00    0.00  0.70  0.00   -0.00 -0.00  0.70   
      4   H                0.00 -0.69 -0.00    0.00  0.70  0.00   -0.00 -0.00  0.70   

  Vibration                       10                  11                  12          
  Freq [cm^-1]                1897.9981           3264.3619           3377.4028       
  Irrep                           Ag                 B3u                  Ag          
  Reduced mass [u]              4.0524              1.0848              1.2066        
  Force const [mDyne/A]         8.6011              6.8109              8.1090        
  Turning point v=0 [a0]        0.1251              0.1844              0.1719        
  RMS dev v=0 [a0 u^1/2]        0.1781              0.1358              0.1335        
  Char temp [K]               2730.7966           4696.6900           4859.3306       
  ----------------------------------------------------------------------------------
      1   C                0.37 -0.00  0.00   -0.06 -0.00 -0.00   -0.10 -0.00  0.00   
      2   C               -0.37  0.00  0.00   -0.06  0.00  0.00    0.10 -0.00 -0.00   
      3   H                0.60  0.00  0.00    0.70  0.00  0.00    0.70 -0.00 -0.00   
      4   H               -0.60 -0.00 -0.00    0.70 -0.00 -0.00   -0.70  0.00  0.00   

  ==> Thermochemistry Components <==

  Entropy, S
    Electronic S            0.000 [cal/(mol K)]        0.000 [J/(mol K)]       0.00000000 [mEh/K] (multiplicity = 1)
    Translational S        35.704 [cal/(mol K)]      149.387 [J/(mol K)]       0.05689862 [mEh/K] (mol. weight = 26.0157 [u], P = 101325.00 [Pa])
    Rotational S           10.952 [cal/(mol K)]       45.824 [J/(mol K)]       0.01745345 [mEh/K] (symmetry no. = 2)
    Vibrational S           3.745 [cal/(mol K)]       15.670 [J/(mol K)]       0.00596839 [mEh/K]
  Total S                  50.402 [cal/(mol K)]      210.881 [J/(mol K)]       0.08032046 [mEh/K]
  Correction S              0.000 [cal/(mol K)]        0.000 [J/(mol K)]       0.00000000 [mEh/K]

  Constant volume heat capacity, Cv
    Electronic Cv           0.000 [cal/(mol K)]        0.000 [J/(mol K)]       0.00000000 [mEh/K]
    Translational Cv        2.981 [cal/(mol K)]       12.472 [J/(mol K)]       0.00475022 [mEh/K]
    Rotational Cv           1.987 [cal/(mol K)]        8.314 [J/(mol K)]       0.00316681 [mEh/K]
    Vibrational Cv          6.119 [cal/(mol K)]       25.604 [J/(mol K)]       0.00975198 [mEh/K]
  Total Cv                 11.087 [cal/(mol K)]       46.390 [J/(mol K)]       0.01766900 [mEh/K]
  Correction Cv             0.000 [cal/(mol K)]        0.000 [J/(mol K)]       0.00000000 [mEh/K]

  Constant pressure heat capacity, Cp
    Electronic Cp           0.000 [cal/(mol K)]        0.000 [J/(mol K)]       0.00000000 [mEh/K]
    Translational Cp        4.968 [cal/(mol K)]       20.786 [J/(mol K)]       0.00791703 [mEh/K]
    Rotational Cp           1.987 [cal/(mol K)]        8.314 [J/(mol K)]       0.00316681 [mEh/K]
    Vibrational Cp          6.119 [cal/(mol K)]       25.604 [J/(mol K)]       0.00975198 [mEh/K]
  Total Cp                 13.075 [cal/(mol K)]       54.704 [J/(mol K)]       0.02083581 [mEh/K]
  Correction Cp             0.000 [cal/(mol K)]        0.000 [J/(mol K)]       0.00000000 [mEh/K]

  ==> Thermochemistry Energy Analysis <==

  Raw electronic energy, E0
  Total E0, Electronic energy at well bottom at 0 [K]                  -77.19951375 [Eh]

  Zero-point energy, ZPE_vib = Sum_i nu_i / 2
    Electronic ZPE          0.000 [kcal/mol]        0.000 [kJ/mol]       0.00000000 [Eh]
    Translational ZPE       0.000 [kcal/mol]        0.000 [kJ/mol]       0.00000000 [Eh]
    Rotational ZPE          0.000 [kcal/mol]        0.000 [kJ/mol]       0.00000000 [Eh]
    Vibrational ZPE        17.537 [kcal/mol]       73.374 [kJ/mol]       0.02794666 [Eh]        6133.582 [cm^-1]
  Correction ZPE           17.537 [kcal/mol]       73.374 [kJ/mol]       0.02794666 [Eh]        6133.582 [cm^-1]
  Total ZPE, Electronic energy at 0 [K]                                -77.17156709 [Eh]

  Thermal Energy, E (includes ZPE)
    Electronic E            0.000 [kcal/mol]        0.000 [kJ/mol]       0.00000000 [Eh]
    Translational E         0.889 [kcal/mol]        3.718 [kJ/mol]       0.00141628 [Eh]
    Rotational E            0.592 [kcal/mol]        2.479 [kJ/mol]       0.00094418 [Eh]
    Vibrational E          18.280 [kcal/mol]       76.484 [kJ/mol]       0.02913103 [Eh]
  Correction E             19.761 [kcal/mol]       82.681 [kJ/mol]       0.03149149 [Eh]
  Total E, Electronic energy at  298.15 [K]                            -77.16802225 [Eh]

  Enthalpy, H_trans = E_trans + k_B * T
    Electronic H            0.000 [kcal/mol]        0.000 [kJ/mol]       0.00000000 [Eh]
    Translational H         1.481 [kcal/mol]        6.197 [kJ/mol]       0.00236046 [Eh]
    Rotational H            0.592 [kcal/mol]        2.479 [kJ/mol]       0.00094418 [Eh]
    Vibrational H          18.280 [kcal/mol]       76.484 [kJ/mol]       0.02913103 [Eh]
  Correction H             20.354 [kcal/mol]       85.160 [kJ/mol]       0.03243568 [Eh]
  Total H, Enthalpy at  298.15 [K]                                     -77.16707807 [Eh]

  Gibbs free energy, G = H - T * S
    Electronic G            0.000 [kcal/mol]        0.000 [kJ/mol]       0.00000000 [Eh]
    Translational G        -9.164 [kcal/mol]      -38.342 [kJ/mol]      -0.01460386 [Eh]
    Rotational G           -2.673 [kcal/mol]      -11.183 [kJ/mol]      -0.00425956 [Eh]
    Vibrational G          17.163 [kcal/mol]       71.812 [kJ/mol]       0.02735156 [Eh]
  Correction G              5.326 [kcal/mol]       22.286 [kJ/mol]       0.00848813 [Eh]
  Total G, Free enthalpy at  298.15 [K]                                -77.19102561 [Eh]

    Psi4 stopped on: Tuesday, 19 April 2022 01:59AM
    Psi4 wall time for execution: 0:01:37.36

*** Psi4 exiting successfully. Buy a developer a beer!
