
    -----------------------------------------------------------------------
          Psi4: An Open-Source Ab Initio Electronic Structure Package
                               Psi4 1.3.2 release

                         Git: Rev {HEAD} ecbda83 


    R. M. Parrish, L. A. Burns, D. G. A. Smith, A. C. Simmonett,
    A. E. DePrince III, E. G. Hohenstein, U. Bozkaya, A. Yu. Sokolov,
    R. Di Remigio, R. M. Richard, J. F. Gonthier, A. M. James,
    H. R. McAlexander, A. Kumar, M. Saitow, X. Wang, B. P. Pritchard,
    P. Verma, H. F. Schaefer III, K. Patkowski, R. A. King, E. F. Valeev,
    F. A. Evangelista, J. M. Turney, T. D. Crawford, and C. D. Sherrill,
    J. Chem. Theory Comput. 13(7) pp 3185--3197 (2017).
    (doi: 10.1021/acs.jctc.7b00174)


                         Additional Contributions by
    P. Kraus, H. Kruse, M. H. Lechner, M. C. Schieber, R. A. Shaw,
    A. Alenaizan, R. Galvelis, Z. L. Glick, S. Lehtola, and J. P. Misiewicz

    -----------------------------------------------------------------------


    Psi4 started on: Tuesday, 19 April 2022 08:01PM

    Process ID: 9379
    Host:       atlantis
    PSIDATADIR: /home/akrom/software/anaconda3/envs/ffpenv/share/psi4
    Memory:     500.0 MiB
    Threads:    1
    
  ==> Input File <==

--------------------------------------------------------------------------
set basis  6-31++G**
molecule {
0 1
   C        0.32153        0.81326        0.00000
   C       -0.86505       -0.12817        0.00000
   C        0.54353       -0.68508        0.00000
   H        0.53795        1.36069       -0.92039
   H        0.53795        1.36069        0.92039
   H       -1.44742       -0.21449        0.92034
   H       -1.44742       -0.21449       -0.92034
   H        0.90937       -1.14629       -0.92037
   H        0.90937       -1.14629        0.92037
}
energy('scf')
frequencies('scf')
--------------------------------------------------------------------------

*** tstart() called on atlantis
*** at Tue Apr 19 20:01:47 2022

   => Loading Basis Set <=

    Name: 6-31++G**
    Role: ORBITAL
    Keyword: BASIS
    atoms 1-3 entry C          line   115 file /home/akrom/software/anaconda3/envs/ffpenv/share/psi4/basis/6-31ppgss.gbs 
    atoms 4-9 entry H          line    46 file /home/akrom/software/anaconda3/envs/ffpenv/share/psi4/basis/6-31ppgss.gbs 


         ---------------------------------------------------------
                                   SCF
               by Justin Turney, Rob Parrish, Andy Simmonett
                          and Daniel G. A. Smith
                              RHF Reference
                        1 Threads,    500 MiB Core
         ---------------------------------------------------------

  ==> Geometry <==

    Molecular point group: cs
    Full point group: Cs

    Geometry (in Angstrom), charge = 0, multiplicity = 1:

       Center              X                  Y                   Z               Mass       
    ------------   -----------------  -----------------  -----------------  -----------------
         C            0.321531939855     0.813261460475     0.000000000000    12.000000000000
         C           -0.865048060145    -0.128168539525     0.000000000000    12.000000000000
         C            0.543531939855    -0.685078539525     0.000000000000    12.000000000000
         H            0.537951939855     1.360691460475    -0.920390000000     1.007825032230
         H            0.537951939855     1.360691460475     0.920390000000     1.007825032230
         H           -1.447418060145    -0.214488539525     0.920340000000     1.007825032230
         H           -1.447418060145    -0.214488539525    -0.920340000000     1.007825032230
         H            0.909371939855    -1.146288539525    -0.920370000000     1.007825032230
         H            0.909371939855    -1.146288539525     0.920370000000     1.007825032230

  Running in cs symmetry.

  Rotational constants: A =      0.66472  B =      0.66470  C =      0.41647 [cm^-1]
  Rotational constants: A =  19927.70596  B =  19927.20236  C =  12485.44714 [MHz]
  Nuclear repulsion =   75.281464809014025

  Charge       = 0
  Multiplicity = 1
  Electrons    = 24
  Nalpha       = 12
  Nbeta        = 12

  ==> Algorithm <==

  SCF Algorithm Type is DF.
  DIIS enabled.
  MOM disabled.
  Fractional occupation disabled.
  Guess Type is SAD.
  Energy threshold   = 1.00e-06
  Density threshold  = 1.00e-06
  Integral threshold = 0.00e+00

  ==> Primary Basis <==

  Basis Set: 6-31++G**
    Blend: 6-31++G**
    Number of shells: 48
    Number of basis function: 93
    Number of Cartesian functions: 93
    Spherical Harmonics?: false
    Max angular momentum: 2

   => Loading Basis Set <=

    Name: (6-31++G** AUX)
    Role: JKFIT
    Keyword: DF_BASIS_SCF
    atoms 1-3 entry C          line   154 file /home/akrom/software/anaconda3/envs/ffpenv/share/psi4/basis/aug-cc-pvdz-jkfit.gbs 
    atoms 4-9 entry H          line    70 file /home/akrom/software/anaconda3/envs/ffpenv/share/psi4/basis/aug-cc-pvdz-jkfit.gbs 

  ==> Pre-Iterations <==

   -------------------------------------------------------
    Irrep   Nso     Nmo     Nalpha   Nbeta   Ndocc  Nsocc
   -------------------------------------------------------
     A'        60      60       0       0       0       0
     A"        33      33       0       0       0       0
   -------------------------------------------------------
    Total      93      93      12      12      12       0
   -------------------------------------------------------

  ==> Integral Setup <==

  DFHelper Memory: AOs need 0.037 GiB; user supplied 0.366 GiB. Using in-core AOs.

  ==> MemDFJK: Density-Fitted J/K Matrices <==

    J tasked:                   Yes
    K tasked:                   Yes
    wK tasked:                   No
    OpenMP threads:               1
    Memory [MiB]:               375
    Algorithm:                 Core
    Schwarz Cutoff:           1E-12
    Mask sparsity (%):       0.0000
    Fitting Condition:        1E-10

   => Auxiliary Basis Set <=

  Basis Set: (6-31++G** AUX)
    Blend: AUG-CC-PVDZ-JKFIT
    Number of shells: 156
    Number of basis function: 513
    Number of Cartesian functions: 513
    Spherical Harmonics?: false
    Max angular momentum: 3

  Minimum eigenvalue in the overlap matrix is 1.8844418511E-04.
  Using Symmetric Orthogonalization.

  SCF Guess: Superposition of Atomic Densities via on-the-fly atomic UHF.

  ==> Iterations <==

                           Total Energy        Delta E     RMS |[F,P]|

   @DF-RHF iter SAD:  -116.58940148888092   -1.16589e+02   0.00000e+00 
   @DF-RHF iter   1:  -116.94339380405253   -3.53992e-01   6.66089e-03 DIIS
   @DF-RHF iter   2:  -117.04243972355401   -9.90459e-02   3.30096e-03 DIIS
   @DF-RHF iter   3:  -117.06862067403840   -2.61810e-02   4.60687e-04 DIIS
   @DF-RHF iter   4:  -117.06962205209875   -1.00138e-03   5.61238e-05 DIIS
   @DF-RHF iter   5:  -117.06964429471779   -2.22426e-05   1.30595e-05 DIIS
   @DF-RHF iter   6:  -117.06964561211527   -1.31740e-06   2.15544e-06 DIIS
   @DF-RHF iter   7:  -117.06964564986502   -3.77498e-08   2.71249e-07 DIIS
  Energy and wave function converged.


  ==> Post-Iterations <==

    Orbital Energies [Eh]
    ---------------------

    Doubly Occupied:                                                      

       1Ap   -11.230430     2Ap   -11.229479     3Ap   -11.229474  
       4Ap    -1.126725     5Ap    -0.814651     6Ap    -0.814645  
       1App   -0.663331     7Ap    -0.622353     2App   -0.510433  
       3App   -0.510418     8Ap    -0.416683     9Ap    -0.416675  

    Virtual:                                                              

      10Ap     0.049980     4App    0.060595    11Ap     0.062033  
      12Ap     0.062033     5App    0.092154     6App    0.092158  
      13Ap     0.139175    14Ap     0.142760    15Ap     0.142762  
      16Ap     0.175313    17Ap     0.183395    18Ap     0.183400  
       7App    0.222601     8App    0.235007     9App    0.235014  
      19Ap     0.240320    20Ap     0.242044    21Ap     0.242045  
      10App    0.333409    22Ap     0.351561    23Ap     0.369243  
      24Ap     0.445114    25Ap     0.445127    11App    0.451842  
      12App    0.451866    26Ap     0.521413    27Ap     0.521421  
      28Ap     0.794524    29Ap     0.882013    30Ap     0.882031  
      13App    0.947411    31Ap     1.015490    32Ap     1.018305  
      33Ap     1.018309    14App    1.035086    15App    1.035114  
      34Ap     1.146337    16App    1.158016    35Ap     1.249009  
      17App    1.304422    18App    1.304464    36Ap     1.326255  
      37Ap     1.326271    38Ap     1.524657    39Ap     1.524667  
      40Ap     1.830004    19App    1.891018    20App    1.897022  
      21App    1.897037    41Ap     2.082830    42Ap     2.082866  
      22App    2.195088    43Ap     2.392448    23App    2.393550  
      24App    2.393611    25App    2.530179    44Ap     2.558631  
      45Ap     2.558675    46Ap     2.600117    47Ap     2.600175  
      26App    2.697599    27App    2.697621    48Ap     2.711610  
      49Ap     2.862454    50Ap     2.862470    51Ap     3.006788  
      28App    3.026622    29App    3.026627    30App    3.155167  
      52Ap     3.193913    53Ap     3.272886    54Ap     3.272945  
      55Ap     3.565899    31App    3.690028    56Ap     3.770127  
      57Ap     3.770186    32App    3.942263    33App    3.942291  
      58Ap     4.712417    59Ap     4.982769    60Ap     4.982770  

    Final Occupation by Irrep:
             Ap   App 
    DOCC [     9,    3 ]

  @DF-RHF Final Energy:  -117.06964564986502

   => Energetics <=

    Nuclear Repulsion Energy =             75.2814648090140253
    One-Electron Energy =                -305.5316518158884946
    Two-Electron Energy =                 113.1805413570094316
    Total Energy =                       -117.0696456498650235

Computation Completed


Properties will be evaluated at   0.000000,   0.000000,   0.000000 [a0]

Properties computed using the SCF density matrix

  Nuclear Dipole Moment: [e a0]
     X:    -0.0002      Y:    -0.0002      Z:     0.0000

  Electronic Dipole Moment: [e a0]
     X:     0.0001      Y:     0.0001      Z:     0.0000

  Dipole Moment: [e a0]
     X:    -0.0000      Y:    -0.0000      Z:     0.0000     Total:     0.0000

  Dipole Moment: [D]
     X:    -0.0001      Y:    -0.0001      Z:     0.0000     Total:     0.0001


*** tstop() called on atlantis at Tue Apr 19 20:01:47 2022
Module time:
	user time   =       0.71 seconds =       0.01 minutes
	system time =       0.04 seconds =       0.00 minutes
	total time  =          0 seconds =       0.00 minutes
Total time:
	user time   =       0.71 seconds =       0.01 minutes
	system time =       0.04 seconds =       0.00 minutes
	total time  =          0 seconds =       0.00 minutes
gradient() will perform analytic gradient computation.

*** tstart() called on atlantis
*** at Tue Apr 19 20:01:47 2022

   => Loading Basis Set <=

    Name: 6-31++G**
    Role: ORBITAL
    Keyword: BASIS
    atoms 1-3 entry C          line   115 file /home/akrom/software/anaconda3/envs/ffpenv/share/psi4/basis/6-31ppgss.gbs 
    atoms 4-9 entry H          line    46 file /home/akrom/software/anaconda3/envs/ffpenv/share/psi4/basis/6-31ppgss.gbs 


         ---------------------------------------------------------
                                   SCF
               by Justin Turney, Rob Parrish, Andy Simmonett
                          and Daniel G. A. Smith
                              RHF Reference
                        1 Threads,    500 MiB Core
         ---------------------------------------------------------

  ==> Geometry <==

    Molecular point group: cs
    Full point group: Cs

    Geometry (in Angstrom), charge = 0, multiplicity = 1:

       Center              X                  Y                   Z               Mass       
    ------------   -----------------  -----------------  -----------------  -----------------
         C            0.321531939855     0.813261460475     0.000000000000    12.000000000000
         C           -0.865048060145    -0.128168539525     0.000000000000    12.000000000000
         C            0.543531939855    -0.685078539525     0.000000000000    12.000000000000
         H            0.537951939855     1.360691460475    -0.920390000000     1.007825032230
         H            0.537951939855     1.360691460475     0.920390000000     1.007825032230
         H           -1.447418060145    -0.214488539525     0.920340000000     1.007825032230
         H           -1.447418060145    -0.214488539525    -0.920340000000     1.007825032230
         H            0.909371939855    -1.146288539525    -0.920370000000     1.007825032230
         H            0.909371939855    -1.146288539525     0.920370000000     1.007825032230

  Running in cs symmetry.

  Rotational constants: A =      0.66472  B =      0.66470  C =      0.41647 [cm^-1]
  Rotational constants: A =  19927.70596  B =  19927.20236  C =  12485.44714 [MHz]
  Nuclear repulsion =   75.281464809014025

  Charge       = 0
  Multiplicity = 1
  Electrons    = 24
  Nalpha       = 12
  Nbeta        = 12

  ==> Algorithm <==

  SCF Algorithm Type is DF.
  DIIS enabled.
  MOM disabled.
  Fractional occupation disabled.
  Guess Type is SAD.
  Energy threshold   = 1.00e-08
  Density threshold  = 1.00e-08
  Integral threshold = 0.00e+00

  ==> Primary Basis <==

  Basis Set: 6-31++G**
    Blend: 6-31++G**
    Number of shells: 48
    Number of basis function: 93
    Number of Cartesian functions: 93
    Spherical Harmonics?: false
    Max angular momentum: 2

   => Loading Basis Set <=

    Name: (6-31++G** AUX)
    Role: JKFIT
    Keyword: DF_BASIS_SCF
    atoms 1-3 entry C          line   154 file /home/akrom/software/anaconda3/envs/ffpenv/share/psi4/basis/aug-cc-pvdz-jkfit.gbs 
    atoms 4-9 entry H          line    70 file /home/akrom/software/anaconda3/envs/ffpenv/share/psi4/basis/aug-cc-pvdz-jkfit.gbs 

  ==> Pre-Iterations <==

   -------------------------------------------------------
    Irrep   Nso     Nmo     Nalpha   Nbeta   Ndocc  Nsocc
   -------------------------------------------------------
     A'        60      60       0       0       0       0
     A"        33      33       0       0       0       0
   -------------------------------------------------------
    Total      93      93      12      12      12       0
   -------------------------------------------------------

  ==> Integral Setup <==

  DFHelper Memory: AOs need 0.037 GiB; user supplied 0.366 GiB. Using in-core AOs.

  ==> MemDFJK: Density-Fitted J/K Matrices <==

    J tasked:                   Yes
    K tasked:                   Yes
    wK tasked:                   No
    OpenMP threads:               1
    Memory [MiB]:               375
    Algorithm:                 Core
    Schwarz Cutoff:           1E-12
    Mask sparsity (%):       0.0000
    Fitting Condition:        1E-10

   => Auxiliary Basis Set <=

  Basis Set: (6-31++G** AUX)
    Blend: AUG-CC-PVDZ-JKFIT
    Number of shells: 156
    Number of basis function: 513
    Number of Cartesian functions: 513
    Spherical Harmonics?: false
    Max angular momentum: 3

  Minimum eigenvalue in the overlap matrix is 1.8844418511E-04.
  Using Symmetric Orthogonalization.

  SCF Guess: Superposition of Atomic Densities via on-the-fly atomic UHF.

  ==> Iterations <==

                           Total Energy        Delta E     RMS |[F,P]|

   @DF-RHF iter SAD:  -116.58940148890949   -1.16589e+02   0.00000e+00 
   @DF-RHF iter   1:  -116.94339380408661   -3.53992e-01   6.66089e-03 DIIS
   @DF-RHF iter   2:  -117.04243972358613   -9.90459e-02   3.30096e-03 DIIS
   @DF-RHF iter   3:  -117.06862067407084   -2.61810e-02   4.60687e-04 DIIS
   @DF-RHF iter   4:  -117.06962205213064   -1.00138e-03   5.61238e-05 DIIS
   @DF-RHF iter   5:  -117.06964429474995   -2.22426e-05   1.30595e-05 DIIS
   @DF-RHF iter   6:  -117.06964561214747   -1.31740e-06   2.15544e-06 DIIS
   @DF-RHF iter   7:  -117.06964564989767   -3.77502e-08   2.71249e-07 DIIS
   @DF-RHF iter   8:  -117.06964565042756   -5.29894e-10   3.60909e-08 DIIS
   @DF-RHF iter   9:  -117.06964565043499   -7.43228e-12   6.50345e-09 DIIS
  Energy and wave function converged.


  ==> Post-Iterations <==

    Orbital Energies [Eh]
    ---------------------

    Doubly Occupied:                                                      

       1Ap   -11.230429     2Ap   -11.229478     3Ap   -11.229473  
       4Ap    -1.126724     5Ap    -0.814650     6Ap    -0.814645  
       1App   -0.663332     7Ap    -0.622353     2App   -0.510433  
       3App   -0.510417     8Ap    -0.416682     9Ap    -0.416674  

    Virtual:                                                              

      10Ap     0.049980     4App    0.060595    11Ap     0.062033  
      12Ap     0.062033     5App    0.092154     6App    0.092158  
      13Ap     0.139175    14Ap     0.142760    15Ap     0.142762  
      16Ap     0.175313    17Ap     0.183395    18Ap     0.183400  
       7App    0.222601     8App    0.235007     9App    0.235014  
      19Ap     0.240320    20Ap     0.242044    21Ap     0.242045  
      10App    0.333410    22Ap     0.351562    23Ap     0.369243  
      24Ap     0.445115    25Ap     0.445127    11App    0.451843  
      12App    0.451867    26Ap     0.521414    27Ap     0.521422  
      28Ap     0.794525    29Ap     0.882015    30Ap     0.882032  
      13App    0.947412    31Ap     1.015491    32Ap     1.018306  
      33Ap     1.018310    14App    1.035087    15App    1.035115  
      34Ap     1.146338    16App    1.158017    35Ap     1.249010  
      17App    1.304422    18App    1.304465    36Ap     1.326256  
      37Ap     1.326272    38Ap     1.524658    39Ap     1.524668  
      40Ap     1.830005    19App    1.891019    20App    1.897023  
      21App    1.897038    41Ap     2.082831    42Ap     2.082867  
      22App    2.195089    43Ap     2.392449    23App    2.393551  
      24App    2.393612    25App    2.530180    44Ap     2.558633  
      45Ap     2.558676    46Ap     2.600118    47Ap     2.600176  
      26App    2.697600    27App    2.697622    48Ap     2.711611  
      49Ap     2.862455    50Ap     2.862471    51Ap     3.006789  
      28App    3.026623    29App    3.026628    30App    3.155168  
      52Ap     3.193914    53Ap     3.272887    54Ap     3.272946  
      55Ap     3.565900    31App    3.690029    56Ap     3.770128  
      57Ap     3.770187    32App    3.942264    33App    3.942292  
      58Ap     4.712418    59Ap     4.982771    60Ap     4.982771  

    Final Occupation by Irrep:
             Ap   App 
    DOCC [     9,    3 ]

  @DF-RHF Final Energy:  -117.06964565043499

   => Energetics <=

    Nuclear Repulsion Energy =             75.2814648090140253
    One-Electron Energy =                -305.5316423661706153
    Two-Electron Energy =                 113.1805319067215834
    Total Energy =                       -117.0696456504349925

Computation Completed


Properties will be evaluated at   0.000000,   0.000000,   0.000000 [a0]

Properties computed using the SCF density matrix

  Nuclear Dipole Moment: [e a0]
     X:    -0.0002      Y:    -0.0002      Z:     0.0000

  Electronic Dipole Moment: [e a0]
     X:     0.0001      Y:     0.0001      Z:     0.0000

  Dipole Moment: [e a0]
     X:    -0.0000      Y:    -0.0000      Z:     0.0000     Total:     0.0000

  Dipole Moment: [D]
     X:    -0.0001      Y:    -0.0001      Z:     0.0000     Total:     0.0001


*** tstop() called on atlantis at Tue Apr 19 20:01:48 2022
Module time:
	user time   =       0.73 seconds =       0.01 minutes
	system time =       0.01 seconds =       0.00 minutes
	total time  =          1 seconds =       0.02 minutes
Total time:
	user time   =       1.45 seconds =       0.02 minutes
	system time =       0.05 seconds =       0.00 minutes
	total time  =          1 seconds =       0.02 minutes

*** tstart() called on atlantis
*** at Tue Apr 19 20:01:48 2022


         ------------------------------------------------------------
                                   SCF GRAD                          
                          Rob Parrish, Justin Turney,                
                       Andy Simmonett, and Alex Sokolov              
         ------------------------------------------------------------

  ==> Geometry <==

    Molecular point group: cs
    Full point group: Cs

    Geometry (in Angstrom), charge = 0, multiplicity = 1:

       Center              X                  Y                   Z               Mass       
    ------------   -----------------  -----------------  -----------------  -----------------
         C            0.321531939855     0.813261460475     0.000000000000    12.000000000000
         C           -0.865048060145    -0.128168539525     0.000000000000    12.000000000000
         C            0.543531939855    -0.685078539525     0.000000000000    12.000000000000
         H            0.537951939855     1.360691460475    -0.920390000000     1.007825032230
         H            0.537951939855     1.360691460475     0.920390000000     1.007825032230
         H           -1.447418060145    -0.214488539525     0.920340000000     1.007825032230
         H           -1.447418060145    -0.214488539525    -0.920340000000     1.007825032230
         H            0.909371939855    -1.146288539525    -0.920370000000     1.007825032230
         H            0.909371939855    -1.146288539525     0.920370000000     1.007825032230

  Nuclear repulsion =   75.281464809014025

  ==> Basis Set <==

  Basis Set: 6-31++G**
    Blend: 6-31++G**
    Number of shells: 48
    Number of basis function: 93
    Number of Cartesian functions: 93
    Spherical Harmonics?: false
    Max angular momentum: 2

  ==> DFJKGrad: Density-Fitted SCF Gradients <==

    Gradient:                    1
    J tasked:                  Yes
    K tasked:                  Yes
    wK tasked:                  No
    OpenMP threads:              1
    Integrals threads:           1
    Memory [MiB]:              375
    Schwarz Cutoff:          0E+00
    Fitting Condition:       1E-10

   => Auxiliary Basis Set <=

  Basis Set: (6-31++G** AUX)
    Blend: AUG-CC-PVDZ-JKFIT
    Number of shells: 156
    Number of basis function: 513
    Number of Cartesian functions: 513
    Spherical Harmonics?: false
    Max angular momentum: 3


  -Total Gradient:
     Atom            X                  Y                   Z
    ------   -----------------  -----------------  -----------------
       1        0.001327350489     0.003358644463     0.000000000000
       2       -0.003544402982    -0.000520927102     0.000000000000
       3        0.002243073172    -0.002815052708     0.000000000000
       4        0.002134218809     0.005401924949    -0.010559379135
       5        0.002134218809     0.005401924949     0.010559379135
       6       -0.005755521629    -0.000855970214     0.010548622857
       7       -0.005755521629    -0.000855970214    -0.010548622857
       8        0.003608292480    -0.004557287060    -0.010555210900
       9        0.003608292480    -0.004557287060     0.010555210900


*** tstop() called on atlantis at Tue Apr 19 20:01:49 2022
Module time:
	user time   =       0.66 seconds =       0.01 minutes
	system time =       0.01 seconds =       0.00 minutes
	total time  =          1 seconds =       0.02 minutes
Total time:
	user time   =       2.11 seconds =       0.04 minutes
	system time =       0.06 seconds =       0.00 minutes
	total time  =          2 seconds =       0.03 minutes

  Based on options and gradient (rms=5.81E-03), recommend projecting translations and projecting rotations.
hessian() will perform analytic frequency computation.

*** tstart() called on atlantis
*** at Tue Apr 19 20:01:49 2022

   => Loading Basis Set <=

    Name: 6-31++G**
    Role: ORBITAL
    Keyword: BASIS
    atoms 1-3 entry C          line   115 file /home/akrom/software/anaconda3/envs/ffpenv/share/psi4/basis/6-31ppgss.gbs 
    atoms 4-9 entry H          line    46 file /home/akrom/software/anaconda3/envs/ffpenv/share/psi4/basis/6-31ppgss.gbs 


         ---------------------------------------------------------
                                   SCF
               by Justin Turney, Rob Parrish, Andy Simmonett
                          and Daniel G. A. Smith
                              RHF Reference
                        1 Threads,    500 MiB Core
         ---------------------------------------------------------

  ==> Geometry <==

    Molecular point group: cs
    Full point group: Cs

    Geometry (in Angstrom), charge = 0, multiplicity = 1:

       Center              X                  Y                   Z               Mass       
    ------------   -----------------  -----------------  -----------------  -----------------
         C            0.321531939855     0.813261460475     0.000000000000    12.000000000000
         C           -0.865048060145    -0.128168539525     0.000000000000    12.000000000000
         C            0.543531939855    -0.685078539525     0.000000000000    12.000000000000
         H            0.537951939855     1.360691460475    -0.920390000000     1.007825032230
         H            0.537951939855     1.360691460475     0.920390000000     1.007825032230
         H           -1.447418060145    -0.214488539525     0.920340000000     1.007825032230
         H           -1.447418060145    -0.214488539525    -0.920340000000     1.007825032230
         H            0.909371939855    -1.146288539525    -0.920370000000     1.007825032230
         H            0.909371939855    -1.146288539525     0.920370000000     1.007825032230

  Running in cs symmetry.

  Rotational constants: A =      0.66472  B =      0.66470  C =      0.41647 [cm^-1]
  Rotational constants: A =  19927.70596  B =  19927.20236  C =  12485.44714 [MHz]
  Nuclear repulsion =   75.281464809014025

  Charge       = 0
  Multiplicity = 1
  Electrons    = 24
  Nalpha       = 12
  Nbeta        = 12

  ==> Algorithm <==

  SCF Algorithm Type is DF.
  DIIS enabled.
  MOM disabled.
  Fractional occupation disabled.
  Guess Type is SAD.
  Energy threshold   = 1.00e-08
  Density threshold  = 1.00e-08
  Integral threshold = 0.00e+00

  ==> Primary Basis <==

  Basis Set: 6-31++G**
    Blend: 6-31++G**
    Number of shells: 48
    Number of basis function: 93
    Number of Cartesian functions: 93
    Spherical Harmonics?: false
    Max angular momentum: 2

   => Loading Basis Set <=

    Name: (6-31++G** AUX)
    Role: JKFIT
    Keyword: DF_BASIS_SCF
    atoms 1-3 entry C          line   154 file /home/akrom/software/anaconda3/envs/ffpenv/share/psi4/basis/aug-cc-pvdz-jkfit.gbs 
    atoms 4-9 entry H          line    70 file /home/akrom/software/anaconda3/envs/ffpenv/share/psi4/basis/aug-cc-pvdz-jkfit.gbs 

  ==> Pre-Iterations <==

   -------------------------------------------------------
    Irrep   Nso     Nmo     Nalpha   Nbeta   Ndocc  Nsocc
   -------------------------------------------------------
     A'        60      60       0       0       0       0
     A"        33      33       0       0       0       0
   -------------------------------------------------------
    Total      93      93      12      12      12       0
   -------------------------------------------------------

  ==> Integral Setup <==

  DFHelper Memory: AOs need 0.037 GiB; user supplied 0.366 GiB. Using in-core AOs.

  ==> MemDFJK: Density-Fitted J/K Matrices <==

    J tasked:                   Yes
    K tasked:                   Yes
    wK tasked:                   No
    OpenMP threads:               1
    Memory [MiB]:               375
    Algorithm:                 Core
    Schwarz Cutoff:           1E-12
    Mask sparsity (%):       0.0000
    Fitting Condition:        1E-10

   => Auxiliary Basis Set <=

  Basis Set: (6-31++G** AUX)
    Blend: AUG-CC-PVDZ-JKFIT
    Number of shells: 156
    Number of basis function: 513
    Number of Cartesian functions: 513
    Spherical Harmonics?: false
    Max angular momentum: 3

  Minimum eigenvalue in the overlap matrix is 1.8844418511E-04.
  Using Symmetric Orthogonalization.

  SCF Guess: Superposition of Atomic Densities via on-the-fly atomic UHF.

  ==> Iterations <==

                           Total Energy        Delta E     RMS |[F,P]|

   @DF-RHF iter SAD:  -116.58940148890953   -1.16589e+02   0.00000e+00 
   @DF-RHF iter   1:  -116.94339380408692   -3.53992e-01   6.66089e-03 DIIS
   @DF-RHF iter   2:  -117.04243972358670   -9.90459e-02   3.30096e-03 DIIS
   @DF-RHF iter   3:  -117.06862067407124   -2.61810e-02   4.60687e-04 DIIS
   @DF-RHF iter   4:  -117.06962205213085   -1.00138e-03   5.61238e-05 DIIS
   @DF-RHF iter   5:  -117.06964429475025   -2.22426e-05   1.30595e-05 DIIS
   @DF-RHF iter   6:  -117.06964561214781   -1.31740e-06   2.15544e-06 DIIS
   @DF-RHF iter   7:  -117.06964564989785   -3.77500e-08   2.71249e-07 DIIS
   @DF-RHF iter   8:  -117.06964565042783   -5.29980e-10   3.60909e-08 DIIS
   @DF-RHF iter   9:  -117.06964565043553   -7.70228e-12   6.50345e-09 DIIS
  Energy and wave function converged.


  ==> Post-Iterations <==

    Orbital Energies [Eh]
    ---------------------

    Doubly Occupied:                                                      

       1Ap   -11.230429     2Ap   -11.229478     3Ap   -11.229473  
       4Ap    -1.126724     5Ap    -0.814650     6Ap    -0.814645  
       1App   -0.663332     7Ap    -0.622353     2App   -0.510433  
       3App   -0.510417     8Ap    -0.416682     9Ap    -0.416674  

    Virtual:                                                              

      10Ap     0.049980     4App    0.060595    11Ap     0.062033  
      12Ap     0.062033     5App    0.092154     6App    0.092158  
      13Ap     0.139175    14Ap     0.142760    15Ap     0.142762  
      16Ap     0.175313    17Ap     0.183395    18Ap     0.183400  
       7App    0.222601     8App    0.235007     9App    0.235014  
      19Ap     0.240320    20Ap     0.242044    21Ap     0.242045  
      10App    0.333410    22Ap     0.351562    23Ap     0.369243  
      24Ap     0.445115    25Ap     0.445127    11App    0.451843  
      12App    0.451867    26Ap     0.521414    27Ap     0.521422  
      28Ap     0.794525    29Ap     0.882015    30Ap     0.882032  
      13App    0.947412    31Ap     1.015491    32Ap     1.018306  
      33Ap     1.018310    14App    1.035087    15App    1.035115  
      34Ap     1.146338    16App    1.158017    35Ap     1.249010  
      17App    1.304422    18App    1.304465    36Ap     1.326256  
      37Ap     1.326272    38Ap     1.524658    39Ap     1.524668  
      40Ap     1.830005    19App    1.891019    20App    1.897023  
      21App    1.897038    41Ap     2.082831    42Ap     2.082867  
      22App    2.195089    43Ap     2.392449    23App    2.393551  
      24App    2.393612    25App    2.530180    44Ap     2.558633  
      45Ap     2.558676    46Ap     2.600118    47Ap     2.600176  
      26App    2.697600    27App    2.697622    48Ap     2.711611  
      49Ap     2.862455    50Ap     2.862471    51Ap     3.006789  
      28App    3.026623    29App    3.026628    30App    3.155168  
      52Ap     3.193914    53Ap     3.272887    54Ap     3.272946  
      55Ap     3.565900    31App    3.690029    56Ap     3.770128  
      57Ap     3.770187    32App    3.942264    33App    3.942292  
      58Ap     4.712418    59Ap     4.982771    60Ap     4.982771  

    Final Occupation by Irrep:
             Ap   App 
    DOCC [     9,    3 ]

  @DF-RHF Final Energy:  -117.06964565043553

   => Energetics <=

    Nuclear Repulsion Energy =             75.2814648090140253
    One-Electron Energy =                -305.5316423661740828
    Two-Electron Energy =                 113.1805319067245108
    Total Energy =                       -117.0696456504355325

Computation Completed


Properties will be evaluated at   0.000000,   0.000000,   0.000000 [a0]

Properties computed using the SCF density matrix

  Nuclear Dipole Moment: [e a0]
     X:    -0.0002      Y:    -0.0002      Z:     0.0000

  Electronic Dipole Moment: [e a0]
     X:     0.0001      Y:     0.0001      Z:     0.0000

  Dipole Moment: [e a0]
     X:    -0.0000      Y:    -0.0000      Z:     0.0000     Total:     0.0000

  Dipole Moment: [D]
     X:    -0.0001      Y:    -0.0001      Z:     0.0000     Total:     0.0001


*** tstop() called on atlantis at Tue Apr 19 20:01:50 2022
Module time:
	user time   =       0.74 seconds =       0.01 minutes
	system time =       0.02 seconds =       0.00 minutes
	total time  =          1 seconds =       0.02 minutes
Total time:
	user time   =       2.85 seconds =       0.05 minutes
	system time =       0.08 seconds =       0.00 minutes
	total time  =          3 seconds =       0.05 minutes

*** tstart() called on atlantis
*** at Tue Apr 19 20:01:50 2022


         ------------------------------------------------------------
                                   SCF HESS                          
                          Rob Parrish, Justin Turney,                
                       Andy Simmonett, and Alex Sokolov              
         ------------------------------------------------------------

  ==> Geometry <==

    Molecular point group: cs
    Full point group: Cs

    Geometry (in Angstrom), charge = 0, multiplicity = 1:

       Center              X                  Y                   Z               Mass       
    ------------   -----------------  -----------------  -----------------  -----------------
         C            0.321531939855     0.813261460475     0.000000000000    12.000000000000
         C           -0.865048060145    -0.128168539525     0.000000000000    12.000000000000
         C            0.543531939855    -0.685078539525     0.000000000000    12.000000000000
         H            0.537951939855     1.360691460475    -0.920390000000     1.007825032230
         H            0.537951939855     1.360691460475     0.920390000000     1.007825032230
         H           -1.447418060145    -0.214488539525     0.920340000000     1.007825032230
         H           -1.447418060145    -0.214488539525    -0.920340000000     1.007825032230
         H            0.909371939855    -1.146288539525    -0.920370000000     1.007825032230
         H            0.909371939855    -1.146288539525     0.920370000000     1.007825032230

  Nuclear repulsion =   75.281464809014025

  ==> Basis Set <==

  Basis Set: 6-31++G**
    Blend: 6-31++G**
    Number of shells: 48
    Number of basis function: 93
    Number of Cartesian functions: 93
    Spherical Harmonics?: false
    Max angular momentum: 2

  ==> DFJKGrad: Density-Fitted SCF Gradients <==

    Gradient:                    2
    J tasked:                  Yes
    K tasked:                  Yes
    wK tasked:                  No
    OpenMP threads:              1
    Integrals threads:           1
    Memory [MiB]:              375
    Schwarz Cutoff:          0E+00
    Fitting Condition:       1E-10

   => Auxiliary Basis Set <=

  Basis Set: (6-31++G** AUX)
    Blend: AUG-CC-PVDZ-JKFIT
    Number of shells: 156
    Number of basis function: 513
    Number of Cartesian functions: 513
    Spherical Harmonics?: false
    Max angular momentum: 3

  DFHelper Memory: AOs need 0.037 GiB; user supplied 0.439 GiB. Using in-core AOs.

  ==> MemDFJK: Density-Fitted J/K Matrices <==

    J tasked:                   Yes
    K tasked:                   Yes
    wK tasked:                   No
    OpenMP threads:               1
    Memory [MiB]:               450
    Algorithm:                 Core
    Schwarz Cutoff:           1E-12
    Mask sparsity (%):       0.0000
    Fitting Condition:        1E-10

   => Auxiliary Basis Set <=

  Basis Set: (6-31++G** AUX)
    Blend: AUG-CC-PVDZ-JKFIT
    Number of shells: 156
    Number of basis function: 513
    Number of Cartesian functions: 513
    Spherical Harmonics?: false
    Max angular momentum: 3


         ------------------------------------------------------------
                                     CPHF                           
                                  Rob Parrish                       
         ------------------------------------------------------------

  ==> Geometry <==

    Molecular point group: cs
    Full point group: Cs

    Geometry (in Angstrom), charge = 0, multiplicity = 1:

       Center              X                  Y                   Z               Mass       
    ------------   -----------------  -----------------  -----------------  -----------------
         C            0.321531939855     0.813261460475     0.000000000000    12.000000000000
         C           -0.865048060145    -0.128168539525     0.000000000000    12.000000000000
         C            0.543531939855    -0.685078539525     0.000000000000    12.000000000000
         H            0.537951939855     1.360691460475    -0.920390000000     1.007825032230
         H            0.537951939855     1.360691460475     0.920390000000     1.007825032230
         H           -1.447418060145    -0.214488539525     0.920340000000     1.007825032230
         H           -1.447418060145    -0.214488539525    -0.920340000000     1.007825032230
         H            0.909371939855    -1.146288539525    -0.920370000000     1.007825032230
         H            0.909371939855    -1.146288539525     0.920370000000     1.007825032230

  Nuclear repulsion =   75.281464809014025
  Reference energy  = -117.069645650435533

  ==> Basis Set <==

  Basis Set: 6-31++G**
    Blend: 6-31++G**
    Number of shells: 48
    Number of basis function: 93
    Number of Cartesian functions: 93
    Spherical Harmonics?: false
    Max angular momentum: 2

  ==> CGRSolver (by Rob Parrish) <==

   Number of roots    =        27
   Preconditioning    =    JACOBI
   Convergence cutoff =     1E-06
   Maximum iterations =       100

  ==> CPHFRHamiltonian (by Rob Parrish) <== 

  ==> MemDFJK: Density-Fitted J/K Matrices <==

    J tasked:                   Yes
    K tasked:                   Yes
    wK tasked:                   No
    OpenMP threads:               1
    Memory [MiB]:               450
    Algorithm:                 Core
    Schwarz Cutoff:           1E-12
    Mask sparsity (%):       0.0000
    Fitting Condition:        1E-10

   => Auxiliary Basis Set <=

  Basis Set: (6-31++G** AUX)
    Blend: AUG-CC-PVDZ-JKFIT
    Number of shells: 156
    Number of basis function: 513
    Number of Cartesian functions: 513
    Spherical Harmonics?: false
    Max angular momentum: 3

  ==> CPHF Iterations <==

  => Iterations <=

             Iter  Converged  Remaining    Residual
  CGR           1          0         27   1.160E-01
  CGR           2          0         27   2.014E-02
  CGR           3          0         27   4.430E-03
  CGR           4          0         27   1.222E-03
  CGR           5          0         27   2.771E-04
  CGR           6          0         27   1.039E-04
  CGR           7          0         27   2.373E-05
  CGR           8          3         24   6.187E-06
  CGR           9         19          8   1.101E-06
  CGR          10         27          0   1.978E-07

    CGRSolver converged.


*** tstop() called on atlantis at Tue Apr 19 21:34:21 2022
Module time:
	user time   =    5548.70 seconds =      92.48 minutes
	system time =       0.19 seconds =       0.00 minutes
	total time  =       5551 seconds =      92.52 minutes
Total time:
	user time   =    5551.55 seconds =      92.53 minutes
	system time =       0.27 seconds =       0.00 minutes
	total time  =       5554 seconds =      92.57 minutes


  ==> Harmonic Vibrational Analysis <==

  non-mass-weighted Hessian:       Symmetric? True   Hermitian? True   Lin Dep Dim?  0 (0)
  projection of translations (True) and rotations (True) removed 6 degrees of freedom (6)
  total projector:                 Symmetric? True   Hermitian? True   Lin Dep Dim?  6 (6)
  mass-weighted Hessian:           Symmetric? True   Hermitian? True   Lin Dep Dim?  0 (0)
  pre-proj  low-frequency mode:    0.0000i [cm^-1]
  pre-proj  low-frequency mode:    0.2083  [cm^-1]
  pre-proj  low-frequency mode:    0.3448  [cm^-1]
  pre-proj  low-frequency mode:  143.3087  [cm^-1]
  pre-proj  low-frequency mode:  216.3227  [cm^-1]
  pre-proj  low-frequency mode:  216.3339  [cm^-1]
  pre-proj  all modes:['0.2033i' '0.2083' '0.3448' '143.3087' '216.3227' '216.3339' '879.1632'
 '879.1791' '913.6197' '913.6652' '983.5008' '1218.5327' '1218.5455'
 '1248.6488' '1253.9320' '1286.2889' '1340.3959' '1340.3992' '1612.3871'
 '1612.4100' '1667.2072' '3134.5618' '3134.5805' '3147.7015' '3208.0402'
 '3208.0549' '3231.2772']
  projected mass-weighted Hessian: Symmetric? True   Hermitian? True   Lin Dep Dim?  6 (6)
  post-proj low-frequency mode:    0.0000i [cm^-1] (TR)
  post-proj low-frequency mode:    0.0000i [cm^-1] (TR)
  post-proj low-frequency mode:    0.0000  [cm^-1] (TR)
  post-proj low-frequency mode:    0.0000  [cm^-1] (TR)
  post-proj low-frequency mode:    0.0000  [cm^-1] (TR)
  post-proj low-frequency mode:    0.0000  [cm^-1] (TR)
  post-proj  all modes:['0.0000i' '0.0000i' '0.0000' '0.0000' '0.0000' '0.0000' '879.1588'
 '879.1746' '913.6197' '913.6652' '983.5008' '1218.5327' '1218.5455'
 '1248.6488' '1253.7904' '1286.2889' '1339.6495' '1339.6526' '1612.3871'
 '1612.4100' '1667.2072' '3134.5618' '3134.5805' '3147.7015' '3208.0400'
 '3208.0547' '3231.2772']

  Vibration                       7                   8                   9           
  Freq [cm^-1]                 879.1588            879.1746            913.6197       
  Irrep                          App                 App                  Ap          
  Reduced mass [u]              1.0217              1.0217              3.9639        
  Force const [mDyne/A]         0.4653              0.4653              1.9494        
  Turning point v=0 [a0]        0.3661              0.3661              0.1823        
  RMS dev v=0 [a0 u^1/2]        0.2617              0.2617              0.2567        
  IR activ [km/mol]             0.0000              0.0000             29.3036        
  Char temp [K]               1264.9138           1264.9365           1314.4954       
  ----------------------------------------------------------------------------------
      1   C               -0.00  0.00 -0.03   -0.00  0.00  0.01   -0.20  0.21 -0.00   
      2   C                0.00 -0.00  0.00    0.00  0.00 -0.03    0.30  0.08  0.00   
      3   C               -0.00 -0.00  0.02    0.00 -0.00  0.02   -0.07 -0.29 -0.00   
      4   H                0.29  0.19  0.16    0.31 -0.28 -0.08   -0.31  0.24 -0.01   
      5   H               -0.29 -0.19  0.16   -0.31  0.28 -0.08   -0.31  0.24  0.01   
      6   H               -0.08  0.44 -0.01    0.32  0.07  0.18    0.26  0.09 -0.03   
      7   H                0.08 -0.44 -0.01   -0.32 -0.07  0.18    0.26  0.09  0.03   
      8   H               -0.36  0.06 -0.15    0.18  0.37 -0.10   -0.16 -0.33 -0.02   
      9   H                0.36 -0.06 -0.15   -0.18 -0.37 -0.10   -0.16 -0.33  0.02   

  Vibration                       10                  11                  12          
  Freq [cm^-1]                 913.6652            983.5008           1218.5327       
  Irrep                           Ap                 App                  Ap          
  Reduced mass [u]              3.9639              1.0440              1.2345        
  Force const [mDyne/A]         1.9496              0.5950              1.0800        
  Turning point v=0 [a0]        0.1823              0.3424              0.2829        
  RMS dev v=0 [a0 u^1/2]        0.2567              0.2474              0.2223        
  IR activ [km/mol]            29.2951              0.0036              6.3893        
  Char temp [K]               1314.5608           1415.0387           1753.1972       
  ----------------------------------------------------------------------------------
      1   C               -0.21 -0.22  0.00    0.00 -0.00 -0.03   -0.07  0.04 -0.00   
      2   C               -0.08  0.28  0.00   -0.00  0.00 -0.03    0.02 -0.03  0.00   
      3   C                0.29 -0.09 -0.00    0.00  0.00 -0.03   -0.09 -0.07  0.00   
      4   H               -0.24 -0.17  0.02    0.13  0.33  0.20    0.36 -0.14 -0.01   
      5   H               -0.24 -0.17 -0.02   -0.13 -0.33  0.20    0.36 -0.14  0.01   
      6   H               -0.09  0.40  0.00    0.35  0.05  0.20   -0.03  0.17 -0.01   
      7   H               -0.09  0.40 -0.00   -0.35 -0.05  0.20   -0.03  0.17  0.01   
      8   H                0.33 -0.02 -0.02    0.22 -0.28  0.20    0.44  0.35 -0.00   
      9   H                0.33 -0.02  0.02   -0.22  0.28  0.20    0.44  0.35  0.00   

  Vibration                       13                  14                  15          
  Freq [cm^-1]                1218.5455           1248.6488           1253.7904       
  Irrep                           Ap                  Ap                  Ap          
  Reduced mass [u]              1.2346              2.9489              1.4254        
  Force const [mDyne/A]         1.0801              2.7088              1.3202        
  Turning point v=0 [a0]        0.2829              0.1808              0.2596        
  RMS dev v=0 [a0 u^1/2]        0.2223              0.2196              0.2191        
  IR activ [km/mol]             6.3860              0.0000              0.0000        
  Char temp [K]               1753.2157           1796.5277           1803.9252       
  ----------------------------------------------------------------------------------
      1   C                0.08 -0.02 -0.00   -0.09 -0.23 -0.00   -0.10  0.04  0.00   
      2   C                0.01 -0.11  0.00    0.24  0.04 -0.00    0.02 -0.11  0.00   
      3   C               -0.03  0.00  0.00   -0.15  0.19  0.00    0.09  0.07 -0.00   
      4   H               -0.40  0.15 -0.01   -0.13 -0.34 -0.05    0.37 -0.15 -0.00   
      5   H               -0.40  0.15  0.01   -0.13 -0.34  0.05    0.37 -0.15  0.00   
      6   H               -0.08  0.54  0.00    0.36  0.05  0.05   -0.06  0.40  0.00   
      7   H               -0.08  0.54 -0.00    0.36  0.05 -0.05   -0.06  0.40 -0.00   
      8   H                0.10  0.07  0.01   -0.23  0.29 -0.05   -0.31 -0.25  0.00   
      9   H                0.10  0.07 -0.01   -0.23  0.29  0.05   -0.31 -0.25 -0.00   

  Vibration                       16                  17                  18          
  Freq [cm^-1]                1286.2889           1339.6495           1339.6526       
  Irrep                          App                 App                 App          
  Reduced mass [u]              1.0078              1.4480              1.4480        
  Force const [mDyne/A]         0.9825              1.5311              1.5311        
  Turning point v=0 [a0]        0.3048              0.2491              0.2491        
  RMS dev v=0 [a0 u^1/2]        0.2163              0.2120              0.2120        
  IR activ [km/mol]             0.0000              0.0000              0.0000        
  Char temp [K]               1850.6833           1927.4573           1927.4619       
  ----------------------------------------------------------------------------------
      1   C               -0.00  0.00 -0.00    0.00 -0.00  0.16   -0.00  0.00 -0.01   
      2   C               -0.00 -0.00 -0.00    0.00 -0.00 -0.09    0.00  0.00 -0.14   
      3   C                0.00  0.00  0.00   -0.00 -0.00 -0.07    0.00 -0.00  0.15   
      4   H               -0.38  0.15  0.00   -0.17 -0.36 -0.08   -0.35  0.17  0.01   
      5   H                0.38 -0.15 -0.00    0.17  0.36 -0.08    0.35 -0.17  0.01   
      6   H               -0.06  0.40  0.00    0.17  0.35  0.05    0.36 -0.17  0.07   
      7   H                0.06 -0.40  0.00   -0.17 -0.35  0.05   -0.36  0.17  0.07   
      8   H                0.32  0.25 -0.00   -0.16 -0.36  0.04   -0.36  0.18 -0.08   
      9   H               -0.32 -0.25 -0.00    0.16  0.36  0.04    0.36 -0.18 -0.08   

  Vibration                       19                  20                  21          
  Freq [cm^-1]                1612.3871           1612.4100           1667.2072       
  Irrep                           Ap                  Ap                  Ap          
  Reduced mass [u]              1.0928              1.0928              1.2673        
  Force const [mDyne/A]         1.6740              1.6740              2.0754        
  Turning point v=0 [a0]        0.2614              0.2614              0.2387        
  RMS dev v=0 [a0 u^1/2]        0.1932              0.1932              0.1900        
  IR activ [km/mol]             0.2154              0.2156              0.0000        
  Char temp [K]               2319.8660           2319.8990           2398.7399       
  ----------------------------------------------------------------------------------
      1   C               -0.02 -0.06  0.00   -0.02 -0.02  0.00   -0.03 -0.08 -0.00   
      2   C               -0.01 -0.01 -0.00   -0.07 -0.01 -0.00    0.09  0.01  0.00   
      3   C                0.03 -0.05 -0.00   -0.03  0.03  0.00   -0.06  0.07  0.00   
      4   H                0.16  0.41  0.31    0.07  0.15  0.12    0.12  0.29  0.25   
      5   H                0.16  0.41 -0.31    0.07  0.15 -0.12    0.12  0.29 -0.25   
      6   H                0.07  0.02  0.05    0.46  0.07  0.33   -0.31 -0.05 -0.25   
      7   H                0.07  0.02 -0.05    0.46  0.07 -0.33   -0.31 -0.05  0.25   
      8   H               -0.22  0.29 -0.26    0.19 -0.23  0.21    0.20 -0.25  0.25   
      9   H               -0.22  0.29  0.26    0.19 -0.23 -0.21    0.20 -0.25 -0.25   

  Vibration                       22                  23                  24          
  Freq [cm^-1]                3134.5618           3134.5805           3147.7015       
  Irrep                           Ap                  Ap                  Ap          
  Reduced mass [u]              1.0504              1.0504              1.0643        
  Force const [mDyne/A]         6.0809              6.0810              6.2129        
  Turning point v=0 [a0]        0.1912              0.1912              0.1896        
  RMS dev v=0 [a0 u^1/2]        0.1386              0.1386              0.1383        
  IR activ [km/mol]            37.5140             37.5187              0.0000        
  Char temp [K]               4509.9366           4509.9634           4528.8417       
  ----------------------------------------------------------------------------------
      1   C                0.02  0.04  0.00    0.01  0.02  0.00    0.02  0.04 -0.00   
      2   C                0.01  0.00  0.00    0.05  0.01  0.00   -0.04 -0.01  0.00   
      3   C               -0.03  0.03  0.00    0.02 -0.02  0.00    0.03 -0.03  0.00   
      4   H               -0.10 -0.26  0.45   -0.04 -0.11  0.19   -0.08 -0.20  0.35   
      5   H               -0.10 -0.26 -0.45   -0.04 -0.11 -0.19   -0.08 -0.20 -0.35   
      6   H               -0.04 -0.01  0.06   -0.29 -0.04  0.49    0.21  0.03 -0.35   
      7   H               -0.04 -0.01 -0.06   -0.29 -0.04 -0.49    0.21  0.03  0.35   
      8   H                0.15 -0.19 -0.39   -0.11  0.14  0.30   -0.13  0.17  0.35   
      9   H                0.15 -0.19  0.39   -0.11  0.14 -0.30   -0.13  0.17 -0.35   

  Vibration                       25                  26                  27          
  Freq [cm^-1]                3208.0400           3208.0547           3231.2772       
  Irrep                          App                 App                 App          
  Reduced mass [u]              1.1213              1.1213              1.1162        
  Force const [mDyne/A]         6.7992              6.7993              6.8666        
  Turning point v=0 [a0]        0.1829              0.1829              0.1827        
  RMS dev v=0 [a0 u^1/2]        0.1370              0.1370              0.1365        
  IR activ [km/mol]             0.0000              0.0000             54.7827        
  Char temp [K]               4615.6553           4615.6764           4649.0884       
  ----------------------------------------------------------------------------------
      1   C                0.00  0.00  0.02   -0.00 -0.00 -0.08    0.00  0.00 -0.06   
      2   C               -0.00 -0.00 -0.08    0.00  0.00  0.03    0.00  0.00 -0.06   
      3   C                0.00 -0.00  0.06   -0.00  0.00  0.06   -0.00  0.00 -0.06   
      4   H                0.02  0.06 -0.10   -0.11 -0.28  0.48   -0.08 -0.20  0.34   
      5   H               -0.02 -0.06 -0.10    0.11  0.28  0.48    0.08  0.20  0.34   
      6   H               -0.29 -0.04  0.46    0.10  0.01 -0.15   -0.22 -0.03  0.34   
      7   H                0.29  0.04  0.46   -0.10 -0.01 -0.15    0.22  0.03  0.34   
      8   H                0.14 -0.18 -0.36    0.13 -0.16 -0.32   -0.14  0.17  0.34   
      9   H               -0.14  0.18 -0.36   -0.13  0.16 -0.32    0.14 -0.17  0.34   

  ==> Thermochemistry Components <==

  Entropy, S
    Electronic S            0.000 [cal/(mol K)]        0.000 [J/(mol K)]       0.00000000 [mEh/K] (multiplicity = 1)
    Translational S        37.135 [cal/(mol K)]      155.375 [J/(mol K)]       0.05917914 [mEh/K] (mol. weight = 42.0470 [u], P = 101325.00 [Pa])
    Rotational S           21.699 [cal/(mol K)]       90.789 [J/(mol K)]       0.03457982 [mEh/K] (symmetry no. = 1)
    Vibrational S           0.907 [cal/(mol K)]        3.795 [J/(mol K)]       0.00144527 [mEh/K]
  Total S                  59.742 [cal/(mol K)]      249.959 [J/(mol K)]       0.09520423 [mEh/K]
  Correction S              0.000 [cal/(mol K)]        0.000 [J/(mol K)]       0.00000000 [mEh/K]

  Constant volume heat capacity, Cv
    Electronic Cv           0.000 [cal/(mol K)]        0.000 [J/(mol K)]       0.00000000 [mEh/K]
    Translational Cv        2.981 [cal/(mol K)]       12.472 [J/(mol K)]       0.00475022 [mEh/K]
    Rotational Cv           2.981 [cal/(mol K)]       12.472 [J/(mol K)]       0.00475022 [mEh/K]
    Vibrational Cv          3.708 [cal/(mol K)]       15.513 [J/(mol K)]       0.00590850 [mEh/K]
  Total Cv                  9.669 [cal/(mol K)]       40.456 [J/(mol K)]       0.01540893 [mEh/K]
  Correction Cv             0.000 [cal/(mol K)]        0.000 [J/(mol K)]       0.00000000 [mEh/K]

  Constant pressure heat capacity, Cp
    Electronic Cp           0.000 [cal/(mol K)]        0.000 [J/(mol K)]       0.00000000 [mEh/K]
    Translational Cp        4.968 [cal/(mol K)]       20.786 [J/(mol K)]       0.00791703 [mEh/K]
    Rotational Cp           2.981 [cal/(mol K)]       12.472 [J/(mol K)]       0.00475022 [mEh/K]
    Vibrational Cp          3.708 [cal/(mol K)]       15.513 [J/(mol K)]       0.00590850 [mEh/K]
  Total Cp                 11.656 [cal/(mol K)]       48.771 [J/(mol K)]       0.01857574 [mEh/K]
  Correction Cp             0.000 [cal/(mol K)]        0.000 [J/(mol K)]       0.00000000 [mEh/K]

  ==> Thermochemistry Energy Analysis <==

  Raw electronic energy, E0
  Total E0, Electronic energy at well bottom at 0 [K]                 -117.06964565 [Eh]

  Zero-point energy, ZPE_vib = Sum_i nu_i / 2
    Electronic ZPE          0.000 [kcal/mol]        0.000 [kJ/mol]       0.00000000 [Eh]
    Translational ZPE       0.000 [kcal/mol]        0.000 [kJ/mol]       0.00000000 [Eh]
    Rotational ZPE          0.000 [kcal/mol]        0.000 [kJ/mol]       0.00000000 [Eh]
    Vibrational ZPE        53.510 [kcal/mol]      223.884 [kJ/mol]       0.08527283 [Eh]       18715.224 [cm^-1]
  Correction ZPE           53.510 [kcal/mol]      223.884 [kJ/mol]       0.08527283 [Eh]       18715.224 [cm^-1]
  Total ZPE, Electronic energy at 0 [K]                               -116.98437282 [Eh]

  Thermal Energy, E (includes ZPE)
    Electronic E            0.000 [kcal/mol]        0.000 [kJ/mol]       0.00000000 [Eh]
    Translational E         0.889 [kcal/mol]        3.718 [kJ/mol]       0.00141628 [Eh]
    Rotational E            0.889 [kcal/mol]        3.718 [kJ/mol]       0.00141628 [Eh]
    Vibrational E          53.733 [kcal/mol]      224.820 [kJ/mol]       0.08562932 [Eh]
  Correction E             55.511 [kcal/mol]      232.257 [kJ/mol]       0.08846187 [Eh]
  Total E, Electronic energy at  298.15 [K]                           -116.98118378 [Eh]

  Enthalpy, H_trans = E_trans + k_B * T
    Electronic H            0.000 [kcal/mol]        0.000 [kJ/mol]       0.00000000 [Eh]
    Translational H         1.481 [kcal/mol]        6.197 [kJ/mol]       0.00236046 [Eh]
    Rotational H            0.889 [kcal/mol]        3.718 [kJ/mol]       0.00141628 [Eh]
    Vibrational H          53.733 [kcal/mol]      224.820 [kJ/mol]       0.08562932 [Eh]
  Correction H             56.103 [kcal/mol]      234.736 [kJ/mol]       0.08940605 [Eh]
  Total H, Enthalpy at  298.15 [K]                                    -116.98023960 [Eh]

  Gibbs free energy, G = H - T * S
    Electronic G            0.000 [kcal/mol]        0.000 [kJ/mol]       0.00000000 [Eh]
    Translational G        -9.591 [kcal/mol]      -40.128 [kJ/mol]      -0.01528380 [Eh]
    Rotational G           -5.581 [kcal/mol]      -23.350 [kJ/mol]      -0.00889370 [Eh]
    Vibrational G          53.463 [kcal/mol]      223.688 [kJ/mol]       0.08519841 [Eh]
  Correction G             38.291 [kcal/mol]      160.210 [kJ/mol]       0.06102091 [Eh]
  Total G, Free enthalpy at  298.15 [K]                               -117.00862474 [Eh]

    Psi4 stopped on: Tuesday, 19 April 2022 09:34PM
    Psi4 wall time for execution: 1:32:34.82

*** Psi4 exiting successfully. Buy a developer a beer!
