
    -----------------------------------------------------------------------
          Psi4: An Open-Source Ab Initio Electronic Structure Package
                               Psi4 1.3.2 release

                         Git: Rev {HEAD} ecbda83 


    R. M. Parrish, L. A. Burns, D. G. A. Smith, A. C. Simmonett,
    A. E. DePrince III, E. G. Hohenstein, U. Bozkaya, A. Yu. Sokolov,
    R. Di Remigio, R. M. Richard, J. F. Gonthier, A. M. James,
    H. R. McAlexander, A. Kumar, M. Saitow, X. Wang, B. P. Pritchard,
    P. Verma, H. F. Schaefer III, K. Patkowski, R. A. King, E. F. Valeev,
    F. A. Evangelista, J. M. Turney, T. D. Crawford, and C. D. Sherrill,
    J. Chem. Theory Comput. 13(7) pp 3185--3197 (2017).
    (doi: 10.1021/acs.jctc.7b00174)


                         Additional Contributions by
    P. Kraus, H. Kruse, M. H. Lechner, M. C. Schieber, R. A. Shaw,
    A. Alenaizan, R. Galvelis, Z. L. Glick, S. Lehtola, and J. P. Misiewicz

    -----------------------------------------------------------------------


    Psi4 started on: Tuesday, 19 April 2022 02:09AM

    Process ID: 26020
    Host:       atlantis
    PSIDATADIR: /home/akrom/software/anaconda3/envs/ffpenv/share/psi4
    Memory:     500.0 MiB
    Threads:    1
    
  ==> Input File <==

--------------------------------------------------------------------------
set basis  aug-cc-pVTZ
molecule {
0 1
   C       -0.61446        0.00000        0.00000
   C        0.61446        0.00000        0.00000
   H       -1.68923        0.00000        0.00000
   H        1.68923        0.00000        0.00000
}
energy('m06-2x')
frequencies('m06-2x')
--------------------------------------------------------------------------

*** tstart() called on atlantis
*** at Tue Apr 19 02:09:48 2022

   => Loading Basis Set <=

    Name: AUG-CC-PVTZ
    Role: ORBITAL
    Keyword: BASIS
    atoms 1-2 entry C          line   235 file /home/akrom/software/anaconda3/envs/ffpenv/share/psi4/basis/aug-cc-pvtz.gbs 
    atoms 3-4 entry H          line    36 file /home/akrom/software/anaconda3/envs/ffpenv/share/psi4/basis/aug-cc-pvtz.gbs 


         ---------------------------------------------------------
                                   SCF
               by Justin Turney, Rob Parrish, Andy Simmonett
                          and Daniel G. A. Smith
                              RKS Reference
                        1 Threads,    500 MiB Core
         ---------------------------------------------------------

  ==> Geometry <==

    Molecular point group: d2h
    Full point group: D_inf_h

    Geometry (in Angstrom), charge = 0, multiplicity = 1:

       Center              X                  Y                   Z               Mass       
    ------------   -----------------  -----------------  -----------------  -----------------
         C           -0.614460000000    -0.000000000000     0.000000000000    12.000000000000
         C            0.614460000000     0.000000000000     0.000000000000    12.000000000000
         H           -1.689230000000    -0.000000000000     0.000000000000     1.007825032230
         H            1.689230000000     0.000000000000     0.000000000000     1.007825032230

  Running in d2h symmetry.

  Rotational constants: A = ************  B =      1.13802  C =      1.13802 [cm^-1]
  Rotational constants: A = ************  B =  34116.98697  C =  34116.98697 [MHz]
  Nuclear repulsion =   24.323218171379235

  Charge       = 0
  Multiplicity = 1
  Electrons    = 14
  Nalpha       = 7
  Nbeta        = 7

  ==> Algorithm <==

  SCF Algorithm Type is DF.
  DIIS enabled.
  MOM disabled.
  Fractional occupation disabled.
  Guess Type is SAD.
  Energy threshold   = 1.00e-06
  Density threshold  = 1.00e-06
  Integral threshold = 0.00e+00

  ==> Primary Basis <==

  Basis Set: AUG-CC-PVTZ
    Blend: AUG-CC-PVTZ
    Number of shells: 46
    Number of basis function: 138
    Number of Cartesian functions: 160
    Spherical Harmonics?: true
    Max angular momentum: 3

  ==> DFT Potential <==

   => Composite Functional: M06-2X <= 

    Hybrid M06-2X Meta-GGA XC Functional

    Y. Zhao and D. G. Truhlar,  Theor. Chem. Acc., 120, 215, 2008


    Deriv               =              1
    GGA                 =           TRUE
    Meta                =           TRUE

    Exchange Hybrid     =           TRUE
    MP2 Hybrid          =          FALSE

   => Exchange Functionals <=

    1.0000   XC_HYB_MGGA_X_M06_2X

   => Exact (HF) Exchange <=

    0.5400               HF 

   => Correlation Functionals <=

    1.0000   XC_MGGA_C_M06_2X

   => Molecular Quadrature <=

    Radial Scheme          =       TREUTLER
    Pruning Scheme         =           FLAT
    Nuclear Scheme         =       TREUTLER

    BS radius alpha        =              1
    Pruning alpha          =              1
    Radial Points          =             75
    Spherical Points       =            302
    Total Points           =          90600
    Total Blocks           =            752
    Max Points             =            256
    Max Functions          =            138

   => Loading Basis Set <=

    Name: (AUG-CC-PVTZ AUX)
    Role: JKFIT
    Keyword: DF_BASIS_SCF
    atoms 1-2 entry C          line   162 file /home/akrom/software/anaconda3/envs/ffpenv/share/psi4/basis/aug-cc-pvtz-jkfit.gbs 
    atoms 3-4 entry H          line    70 file /home/akrom/software/anaconda3/envs/ffpenv/share/psi4/basis/aug-cc-pvtz-jkfit.gbs 

  ==> Pre-Iterations <==

   -------------------------------------------------------
    Irrep   Nso     Nmo     Nalpha   Nbeta   Ndocc  Nsocc
   -------------------------------------------------------
     Ag        30      30       0       0       0       0
     B1g       16      16       0       0       0       0
     B2g       16      16       0       0       0       0
     B3g        7       7       0       0       0       0
     Au         7       7       0       0       0       0
     B1u       16      16       0       0       0       0
     B2u       16      16       0       0       0       0
     B3u       30      30       0       0       0       0
   -------------------------------------------------------
    Total     138     138       7       7       7       0
   -------------------------------------------------------

  ==> Integral Setup <==

  DFHelper Memory: AOs need 0.047 GiB; user supplied 0.047 GiB. Using in-core AOs.

  ==> MemDFJK: Density-Fitted J/K Matrices <==

    J tasked:                   Yes
    K tasked:                   Yes
    wK tasked:                   No
    OpenMP threads:               1
    Memory [MiB]:                48
    Algorithm:                 Core
    Schwarz Cutoff:           1E-12
    Mask sparsity (%):       0.0420
    Fitting Condition:        1E-10

   => Auxiliary Basis Set <=

  Basis Set: (AUG-CC-PVTZ AUX)
    Blend: AUG-CC-PVTZ-JKFIT
    Number of shells: 88
    Number of basis function: 300
    Number of Cartesian functions: 372
    Spherical Harmonics?: true
    Max angular momentum: 4

  Cached 50.0% of DFT collocation blocks in 0.426 [GiB].

  Minimum eigenvalue in the overlap matrix is 9.1550632594E-06.
  Using Symmetric Orthogonalization.

  SCF Guess: Superposition of Atomic Densities via on-the-fly atomic UHF.

  ==> Iterations <==

                           Total Energy        Delta E     RMS |[F,P]|

   @DF-RKS iter SAD:   -76.54049396990210   -7.65405e+01   0.00000e+00 
   @DF-RKS iter   1:   -77.19593980934313   -6.55446e-01   9.50231e-03 DIIS
   @DF-RKS iter   2:   -77.25040536725288   -5.44656e-02   6.90027e-03 DIIS
   @DF-RKS iter   3:   -77.32252733711309   -7.21220e-02   3.50692e-04 DIIS
   @DF-RKS iter   4:   -77.32272907690822   -2.01740e-04   1.73167e-05 DIIS
   @DF-RKS iter   5:   -77.32272987957801   -8.02670e-07   2.09504e-06 DIIS
   @DF-RKS iter   6:   -77.32272988676932   -7.19132e-09   3.25708e-07 DIIS
  Energy and wave function converged.


  ==> Post-Iterations <==

    Orbital Energies [Eh]
    ---------------------

    Doubly Occupied:                                                      

       1Ag   -10.558822     1B3u  -10.556507     2Ag    -0.846788  
       2B3u   -0.648004     3Ag    -0.563479     1B1u   -0.353628  
       1B2u   -0.353628  

    Virtual:                                                              

       4Ag     0.002877     3B3u    0.010076     1B1g    0.036582  
       1B2g    0.036582     2B1u    0.053183     2B2u    0.053183  
       5Ag     0.063398     4B3u    0.078625     2B1g    0.103615  
       2B2g    0.103615     6Ag     0.106559     5B3u    0.159342  
       6B3u    0.207755     7Ag     0.209410     3B2u    0.214845  
       3B1u    0.214845     1B3g    0.235374     8Ag     0.235374  
       9Ag     0.308974     3B1g    0.310847     3B2g    0.310847  
       7B3u    0.323204     1Au     0.337013     8B3u    0.337013  
      10Ag     0.341055     4B1g    0.348165     4B2g    0.348165  
       4B1u    0.402014     4B2u    0.402014     9B3u    0.443538  
      10B3u    0.501210     5B2u    0.503878     5B1u    0.503878  
      11Ag     0.547472     5B1g    0.712871     5B2g    0.712871  
      12Ag     0.772783    11B3u    0.775153    13Ag     0.784777  
       2B3g    0.784778     6B1u    0.828692     6B2u    0.828692  
      14Ag     0.866091    15Ag     0.875069     3B3g    0.875070  
      12B3u    0.911699     2Au     0.911699     6B1g    0.912326  
       6B2g    0.912326     7B1u    0.914610     7B2u    0.914610  
      13B3u    0.919194    16Ag     1.019081     8B2u    1.045344  
       8B1u    1.045344    14B3u    1.064998     3Au     1.064999  
      15B3u    1.078885     7B1g    1.156795     7B2g    1.156795  
      16B3u    1.161280     8B1g    1.249374     8B2g    1.249374  
       9B2u    1.423677     9B1u    1.423677    17Ag     1.471035  
       4B3g    1.471038     9B1g    1.596540     9B2g    1.596540  
      18Ag     1.600089    10B2u    1.710110    10B1u    1.710110  
      17B3u    1.756769    19Ag     1.828949    18B3u    1.829351  
       4Au     1.829358    19B3u    1.926596    20Ag     2.004501  
      10B1g    2.139352    10B2g    2.139352    11B1u    2.514080  
      11B2u    2.514080    20B3u    2.536089    21Ag     2.715618  
      21B3u    2.835363     5B3g    2.879828    22Ag     2.879861  
      11B1g    2.914915    11B2g    2.914915    12B2u    2.995916  
      12B1u    2.995916    13B2u    3.069017    13B1u    3.069017  
       5Au     3.143234    22B3u    3.143257     6B3g    3.256411  
      23Ag     3.256431    24Ag     3.274213    12B1g    3.373716  
      12B2g    3.373716    25Ag     3.401525    14B2u    3.463502  
      14B1u    3.463502    13B1g    3.534215    13B2g    3.534215  
      23B3u    3.543466     6Au     3.750438    24B3u    3.750472  
      26Ag     3.808699     7B3g    3.808772    25B3u    3.966543  
      26B3u    4.267920    27Ag     4.267929     7Au     4.267973  
      14B1g    4.379903    14B2g    4.379903    15B2u    4.390533  
      15B1u    4.390533    15B1g    4.618762    15B2g    4.618762  
      27B3u    4.888474    28Ag     4.961792    16B2u    5.366563  
      16B1u    5.366563    28B3u    5.721861    29B3u    6.185543  
      16B1g    6.269737    16B2g    6.269737    29Ag     6.380072  
      30Ag    12.790327    30B3u   18.034145  

    Final Occupation by Irrep:
             Ag   B1g   B2g   B3g    Au   B1u   B2u   B3u 
    DOCC [     3,    0,    0,    0,    0,    1,    1,    2 ]

  @DF-RKS Final Energy:   -77.32272988676932

   => Energetics <=

    Nuclear Repulsion Energy =             24.3232181713792350
    One-Electron Energy =                -150.9911921590455677
    Two-Electron Energy =                  54.8622929128956969
    DFT Exchange-Correlation Energy =      -5.5170488119986754
    Empirical Dispersion Energy =           0.0000000000000000
    VV10 Nonlocal Energy =                  0.0000000000000000
    Total Energy =                        -77.3227298867693094

Computation Completed


Properties will be evaluated at   0.000000,   0.000000,   0.000000 [a0]

Properties computed using the SCF density matrix

  Nuclear Dipole Moment: [e a0]
     X:     0.0000      Y:     0.0000      Z:     0.0000

  Electronic Dipole Moment: [e a0]
     X:     0.0000      Y:     0.0000      Z:     0.0000

  Dipole Moment: [e a0]
     X:     0.0000      Y:     0.0000      Z:     0.0000     Total:     0.0000

  Dipole Moment: [D]
     X:     0.0000      Y:     0.0000      Z:     0.0000     Total:     0.0000


*** tstop() called on atlantis at Tue Apr 19 02:09:55 2022
Module time:
	user time   =       6.88 seconds =       0.11 minutes
	system time =       0.12 seconds =       0.00 minutes
	total time  =          7 seconds =       0.12 minutes
Total time:
	user time   =       6.88 seconds =       0.11 minutes
	system time =       0.12 seconds =       0.00 minutes
	total time  =          7 seconds =       0.12 minutes
gradient() will perform analytic gradient computation.

*** tstart() called on atlantis
*** at Tue Apr 19 02:09:55 2022

   => Loading Basis Set <=

    Name: AUG-CC-PVTZ
    Role: ORBITAL
    Keyword: BASIS
    atoms 1-2 entry C          line   235 file /home/akrom/software/anaconda3/envs/ffpenv/share/psi4/basis/aug-cc-pvtz.gbs 
    atoms 3-4 entry H          line    36 file /home/akrom/software/anaconda3/envs/ffpenv/share/psi4/basis/aug-cc-pvtz.gbs 


         ---------------------------------------------------------
                                   SCF
               by Justin Turney, Rob Parrish, Andy Simmonett
                          and Daniel G. A. Smith
                              RKS Reference
                        1 Threads,    500 MiB Core
         ---------------------------------------------------------

  ==> Geometry <==

    Molecular point group: d2h
    Full point group: D_inf_h

    Geometry (in Angstrom), charge = 0, multiplicity = 1:

       Center              X                  Y                   Z               Mass       
    ------------   -----------------  -----------------  -----------------  -----------------
         C           -0.614460000000    -0.000000000000     0.000000000000    12.000000000000
         C            0.614460000000     0.000000000000     0.000000000000    12.000000000000
         H           -1.689230000000    -0.000000000000     0.000000000000     1.007825032230
         H            1.689230000000     0.000000000000     0.000000000000     1.007825032230

  Running in d2h symmetry.

  Rotational constants: A = ************  B =      1.13802  C =      1.13802 [cm^-1]
  Rotational constants: A = ************  B =  34116.98697  C =  34116.98697 [MHz]
  Nuclear repulsion =   24.323218171379235

  Charge       = 0
  Multiplicity = 1
  Electrons    = 14
  Nalpha       = 7
  Nbeta        = 7

  ==> Algorithm <==

  SCF Algorithm Type is DF.
  DIIS enabled.
  MOM disabled.
  Fractional occupation disabled.
  Guess Type is SAD.
  Energy threshold   = 1.00e-08
  Density threshold  = 1.00e-08
  Integral threshold = 0.00e+00

  ==> Primary Basis <==

  Basis Set: AUG-CC-PVTZ
    Blend: AUG-CC-PVTZ
    Number of shells: 46
    Number of basis function: 138
    Number of Cartesian functions: 160
    Spherical Harmonics?: true
    Max angular momentum: 3

  ==> DFT Potential <==

   => Composite Functional: M06-2X <= 

    Hybrid M06-2X Meta-GGA XC Functional

    Y. Zhao and D. G. Truhlar,  Theor. Chem. Acc., 120, 215, 2008


    Deriv               =              1
    GGA                 =           TRUE
    Meta                =           TRUE

    Exchange Hybrid     =           TRUE
    MP2 Hybrid          =          FALSE

   => Exchange Functionals <=

    1.0000   XC_HYB_MGGA_X_M06_2X

   => Exact (HF) Exchange <=

    0.5400               HF 

   => Correlation Functionals <=

    1.0000   XC_MGGA_C_M06_2X

   => Molecular Quadrature <=

    Radial Scheme          =       TREUTLER
    Pruning Scheme         =           FLAT
    Nuclear Scheme         =       TREUTLER

    BS radius alpha        =              1
    Pruning alpha          =              1
    Radial Points          =             75
    Spherical Points       =            302
    Total Points           =          90600
    Total Blocks           =            752
    Max Points             =            256
    Max Functions          =            138

   => Loading Basis Set <=

    Name: (AUG-CC-PVTZ AUX)
    Role: JKFIT
    Keyword: DF_BASIS_SCF
    atoms 1-2 entry C          line   162 file /home/akrom/software/anaconda3/envs/ffpenv/share/psi4/basis/aug-cc-pvtz-jkfit.gbs 
    atoms 3-4 entry H          line    70 file /home/akrom/software/anaconda3/envs/ffpenv/share/psi4/basis/aug-cc-pvtz-jkfit.gbs 

  ==> Pre-Iterations <==

   -------------------------------------------------------
    Irrep   Nso     Nmo     Nalpha   Nbeta   Ndocc  Nsocc
   -------------------------------------------------------
     Ag        30      30       0       0       0       0
     B1g       16      16       0       0       0       0
     B2g       16      16       0       0       0       0
     B3g        7       7       0       0       0       0
     Au         7       7       0       0       0       0
     B1u       16      16       0       0       0       0
     B2u       16      16       0       0       0       0
     B3u       30      30       0       0       0       0
   -------------------------------------------------------
    Total     138     138       7       7       7       0
   -------------------------------------------------------

  ==> Integral Setup <==

  DFHelper Memory: AOs need 0.047 GiB; user supplied 0.047 GiB. Using in-core AOs.

  ==> MemDFJK: Density-Fitted J/K Matrices <==

    J tasked:                   Yes
    K tasked:                   Yes
    wK tasked:                   No
    OpenMP threads:               1
    Memory [MiB]:                48
    Algorithm:                 Core
    Schwarz Cutoff:           1E-12
    Mask sparsity (%):       0.0420
    Fitting Condition:        1E-10

   => Auxiliary Basis Set <=

  Basis Set: (AUG-CC-PVTZ AUX)
    Blend: AUG-CC-PVTZ-JKFIT
    Number of shells: 88
    Number of basis function: 300
    Number of Cartesian functions: 372
    Spherical Harmonics?: true
    Max angular momentum: 4

  Cached 50.0% of DFT collocation blocks in 0.426 [GiB].

  Minimum eigenvalue in the overlap matrix is 9.1550632594E-06.
  Using Symmetric Orthogonalization.

  SCF Guess: Superposition of Atomic Densities via on-the-fly atomic UHF.

  ==> Iterations <==

                           Total Energy        Delta E     RMS |[F,P]|

   @DF-RKS iter SAD:   -76.54049396990210   -7.65405e+01   0.00000e+00 
   @DF-RKS iter   1:   -77.19593980934313   -6.55446e-01   9.50231e-03 DIIS
   @DF-RKS iter   2:   -77.25040536725288   -5.44656e-02   6.90027e-03 DIIS
   @DF-RKS iter   3:   -77.32252733711309   -7.21220e-02   3.50692e-04 DIIS
   @DF-RKS iter   4:   -77.32272907690822   -2.01740e-04   1.73167e-05 DIIS
   @DF-RKS iter   5:   -77.32272987957801   -8.02670e-07   2.09504e-06 DIIS
   @DF-RKS iter   6:   -77.32272988676932   -7.19132e-09   3.25708e-07 DIIS
   @DF-RKS iter   7:   -77.32272988693695   -1.67631e-10   4.17538e-08 DIIS
   @DF-RKS iter   8:   -77.32272988694078   -3.82272e-12   4.51383e-09 DIIS
  Energy and wave function converged.


  ==> Post-Iterations <==

    Orbital Energies [Eh]
    ---------------------

    Doubly Occupied:                                                      

       1Ag   -10.558823     1B3u  -10.556509     2Ag    -0.846788  
       2B3u   -0.648004     3Ag    -0.563479     1B1u   -0.353628  
       1B2u   -0.353628  

    Virtual:                                                              

       4Ag     0.002877     3B3u    0.010076     1B1g    0.036582  
       1B2g    0.036582     2B1u    0.053182     2B2u    0.053182  
       5Ag     0.063398     4B3u    0.078625     2B1g    0.103614  
       2B2g    0.103614     6Ag     0.106559     5B3u    0.159342  
       6B3u    0.207755     7Ag     0.209410     3B2u    0.214845  
       3B1u    0.214845     1B3g    0.235374     8Ag     0.235374  
       9Ag     0.308973     3B1g    0.310847     3B2g    0.310847  
       7B3u    0.323204     1Au     0.337013     8B3u    0.337013  
      10Ag     0.341055     4B1g    0.348165     4B2g    0.348165  
       4B1u    0.402014     4B2u    0.402014     9B3u    0.443538  
      10B3u    0.501210     5B2u    0.503878     5B1u    0.503878  
      11Ag     0.547472     5B1g    0.712871     5B2g    0.712871  
      12Ag     0.772783    11B3u    0.775153    13Ag     0.784777  
       2B3g    0.784778     6B1u    0.828692     6B2u    0.828692  
      14Ag     0.866091    15Ag     0.875069     3B3g    0.875070  
      12B3u    0.911699     2Au     0.911699     6B1g    0.912326  
       6B2g    0.912326     7B1u    0.914610     7B2u    0.914610  
      13B3u    0.919193    16Ag     1.019080     8B2u    1.045344  
       8B1u    1.045344    14B3u    1.064998     3Au     1.064999  
      15B3u    1.078884     7B1g    1.156795     7B2g    1.156795  
      16B3u    1.161281     8B1g    1.249374     8B2g    1.249374  
       9B2u    1.423678     9B1u    1.423678    17Ag     1.471035  
       4B3g    1.471038     9B1g    1.596540     9B2g    1.596540  
      18Ag     1.600089    10B2u    1.710111    10B1u    1.710111  
      17B3u    1.756769    19Ag     1.828949    18B3u    1.829351  
       4Au     1.829358    19B3u    1.926596    20Ag     2.004501  
      10B1g    2.139352    10B2g    2.139352    11B1u    2.514080  
      11B2u    2.514080    20B3u    2.536089    21Ag     2.715619  
      21B3u    2.835363     5B3g    2.879828    22Ag     2.879861  
      11B1g    2.914914    11B2g    2.914914    12B2u    2.995915  
      12B1u    2.995915    13B2u    3.069017    13B1u    3.069017  
       5Au     3.143234    22B3u    3.143257     6B3g    3.256411  
      23Ag     3.256431    24Ag     3.274213    12B1g    3.373716  
      12B2g    3.373716    25Ag     3.401525    14B2u    3.463502  
      14B1u    3.463502    13B1g    3.534214    13B2g    3.534214  
      23B3u    3.543466     6Au     3.750438    24B3u    3.750472  
      26Ag     3.808699     7B3g    3.808772    25B3u    3.966542  
      26B3u    4.267920    27Ag     4.267928     7Au     4.267973  
      14B1g    4.379904    14B2g    4.379904    15B2u    4.390533  
      15B1u    4.390533    15B1g    4.618761    15B2g    4.618761  
      27B3u    4.888473    28Ag     4.961793    16B2u    5.366562  
      16B1u    5.366562    28B3u    5.721862    29B3u    6.185543  
      16B1g    6.269737    16B2g    6.269737    29Ag     6.380071  
      30Ag    12.790326    30B3u   18.034144  

    Final Occupation by Irrep:
             Ag   B1g   B2g   B3g    Au   B1u   B2u   B3u 
    DOCC [     3,    0,    0,    0,    0,    1,    1,    2 ]

  @DF-RKS Final Energy:   -77.32272988694078

   => Energetics <=

    Nuclear Repulsion Energy =             24.3232181713792350
    One-Electron Energy =                -150.9911479234564808
    Two-Electron Energy =                  54.8622455642108662
    DFT Exchange-Correlation Energy =      -5.5170456990743970
    Empirical Dispersion Energy =           0.0000000000000000
    VV10 Nonlocal Energy =                  0.0000000000000000
    Total Energy =                        -77.3227298869407775

Computation Completed


Properties will be evaluated at   0.000000,   0.000000,   0.000000 [a0]

Properties computed using the SCF density matrix

  Nuclear Dipole Moment: [e a0]
     X:     0.0000      Y:     0.0000      Z:     0.0000

  Electronic Dipole Moment: [e a0]
     X:     0.0000      Y:     0.0000      Z:     0.0000

  Dipole Moment: [e a0]
     X:     0.0000      Y:     0.0000      Z:     0.0000     Total:     0.0000

  Dipole Moment: [D]
     X:     0.0000      Y:     0.0000      Z:     0.0000     Total:     0.0000


*** tstop() called on atlantis at Tue Apr 19 02:10:04 2022
Module time:
	user time   =       8.66 seconds =       0.14 minutes
	system time =       0.01 seconds =       0.00 minutes
	total time  =          9 seconds =       0.15 minutes
Total time:
	user time   =      15.55 seconds =       0.26 minutes
	system time =       0.13 seconds =       0.00 minutes
	total time  =         16 seconds =       0.27 minutes

*** tstart() called on atlantis
*** at Tue Apr 19 02:10:04 2022


         ------------------------------------------------------------
                                   SCF GRAD                          
                          Rob Parrish, Justin Turney,                
                       Andy Simmonett, and Alex Sokolov              
         ------------------------------------------------------------

  ==> Geometry <==

    Molecular point group: d2h
    Full point group: D_inf_h

    Geometry (in Angstrom), charge = 0, multiplicity = 1:

       Center              X                  Y                   Z               Mass       
    ------------   -----------------  -----------------  -----------------  -----------------
         C           -0.614460000000    -0.000000000000     0.000000000000    12.000000000000
         C            0.614460000000     0.000000000000     0.000000000000    12.000000000000
         H           -1.689230000000    -0.000000000000     0.000000000000     1.007825032230
         H            1.689230000000     0.000000000000     0.000000000000     1.007825032230

  Nuclear repulsion =   24.323218171379235

  ==> Basis Set <==

  Basis Set: AUG-CC-PVTZ
    Blend: AUG-CC-PVTZ
    Number of shells: 46
    Number of basis function: 138
    Number of Cartesian functions: 160
    Spherical Harmonics?: true
    Max angular momentum: 3

  ==> DFJKGrad: Density-Fitted SCF Gradients <==

    Gradient:                    1
    J tasked:                  Yes
    K tasked:                  Yes
    wK tasked:                  No
    OpenMP threads:              1
    Integrals threads:           1
    Memory [MiB]:              375
    Schwarz Cutoff:          0E+00
    Fitting Condition:       1E-10

   => Auxiliary Basis Set <=

  Basis Set: (AUG-CC-PVTZ AUX)
    Blend: AUG-CC-PVTZ-JKFIT
    Number of shells: 88
    Number of basis function: 300
    Number of Cartesian functions: 372
    Spherical Harmonics?: true
    Max angular momentum: 4

  ==> DFT Potential <==

   => Composite Functional: M06-2X <= 

    Hybrid M06-2X Meta-GGA XC Functional

    Y. Zhao and D. G. Truhlar,  Theor. Chem. Acc., 120, 215, 2008


    Deriv               =              1
    GGA                 =           TRUE
    Meta                =           TRUE

    Exchange Hybrid     =           TRUE
    MP2 Hybrid          =          FALSE

   => Exchange Functionals <=

    1.0000   XC_HYB_MGGA_X_M06_2X

   => Exact (HF) Exchange <=

    0.5400               HF 

   => Correlation Functionals <=

    1.0000   XC_MGGA_C_M06_2X

   => Molecular Quadrature <=

    Radial Scheme          =       TREUTLER
    Pruning Scheme         =           FLAT
    Nuclear Scheme         =       TREUTLER

    BS radius alpha        =              1
    Pruning alpha          =              1
    Radial Points          =             75
    Spherical Points       =            302
    Total Points           =          90600
    Total Blocks           =            752
    Max Points             =            256
    Max Functions          =            138


  -Total Gradient:
     Atom            X                  Y                   Z
    ------   -----------------  -----------------  -----------------
       1       -0.060501154790    -0.000000000000     0.000000000000
       2        0.060501154790     0.000000000000     0.000000000000
       3       -0.008479897365    -0.000000000000     0.000000000000
       4        0.008479897365     0.000000000000     0.000000000000


*** tstop() called on atlantis at Tue Apr 19 02:10:06 2022
Module time:
	user time   =       1.95 seconds =       0.03 minutes
	system time =       0.00 seconds =       0.00 minutes
	total time  =          2 seconds =       0.03 minutes
Total time:
	user time   =      17.50 seconds =       0.29 minutes
	system time =       0.13 seconds =       0.00 minutes
	total time  =         18 seconds =       0.30 minutes

  Based on options and gradient (rms=2.49E-02), recommend projecting translations and not projecting rotations.
hessian() will perform frequency computation by finite difference of analytic gradients.

         ----------------------------------------------------------
                                   FINDIF
                     R. A. King and Jonathon Misiewicz
         ---------------------------------------------------------

  Using finite-differences of gradients to determine vibrational frequencies and 
  normal modes.  Resulting frequencies are only valid at stationary points.
    Generating geometries for use with 3-point formula.
    Displacement size will be 5.00e-03.
    Number of atoms is 4.
    Number of irreps is 8.
    Number of SALCs is 9.
    Translations projected? 1. Rotations projected? 0.
    Index of SALCs per irrep:
     1 :  0  1 
     2 :  2  3 
     3 :  4  5 
     4 : 
     5 : 
     6 :  6 
     7 :  7 
     8 :  8 
    Number of SALCs per irrep:
     Irrep 1: 2
     Irrep 2: 2
     Irrep 3: 2
     Irrep 4: 0
     Irrep 5: 0
     Irrep 6: 1
     Irrep 7: 1
     Irrep 8: 1
    Number of geometries (including reference) is 12.
    Number of displacements per irrep:
      Irrep 1: 4
      Irrep 2: 2
      Irrep 3: 2
      Irrep 4: 0
      Irrep 5: 0
      Irrep 6: 1
      Irrep 7: 1
      Irrep 8: 1

  //>>>>>>>>>>>>>>>>>>>>>>>>>>>>>>>>>>>//
  //    Loading displacement 1 of 12   //
  //<<<<<<<<<<<<<<<<<<<<<<<<<<<<<<<<<<<//
gradient() will perform analytic gradient computation.

*** tstart() called on atlantis
*** at Tue Apr 19 02:10:06 2022

   => Loading Basis Set <=

    Name: AUG-CC-PVTZ
    Role: ORBITAL
    Keyword: BASIS
    atoms 1-2 entry C          line   235 file /home/akrom/software/anaconda3/envs/ffpenv/share/psi4/basis/aug-cc-pvtz.gbs 
    atoms 3-4 entry H          line    36 file /home/akrom/software/anaconda3/envs/ffpenv/share/psi4/basis/aug-cc-pvtz.gbs 


         ---------------------------------------------------------
                                   SCF
               by Justin Turney, Rob Parrish, Andy Simmonett
                          and Daniel G. A. Smith
                              RKS Reference
                        1 Threads,    500 MiB Core
         ---------------------------------------------------------

  ==> Geometry <==

    Molecular point group: d2h
    Full point group: D_inf_h

    Geometry (in Angstrom), charge = 0, multiplicity = 1:

       Center              X                  Y                   Z               Mass       
    ------------   -----------------  -----------------  -----------------  -----------------
         C           -0.614460000000    -0.000000000000     0.000000000000    12.000000000000
         C            0.614460000000     0.000000000000     0.000000000000    12.000000000000
         H           -1.689230000000    -0.000000000000     0.000000000000     1.007825032230
         H            1.689230000000     0.000000000000     0.000000000000     1.007825032230

  Running in d2h symmetry.

  Rotational constants: A = ************  B =      1.13802  C =      1.13802 [cm^-1]
  Rotational constants: A = ************  B =  34116.98697  C =  34116.98697 [MHz]
  Nuclear repulsion =   24.323218171379235

  Charge       = 0
  Multiplicity = 1
  Electrons    = 14
  Nalpha       = 7
  Nbeta        = 7

  ==> Algorithm <==

  SCF Algorithm Type is DF.
  DIIS enabled.
  MOM disabled.
  Fractional occupation disabled.
  Guess Type is SAD.
  Energy threshold   = 1.00e-08
  Density threshold  = 1.00e-08
  Integral threshold = 0.00e+00

  ==> Primary Basis <==

  Basis Set: AUG-CC-PVTZ
    Blend: AUG-CC-PVTZ
    Number of shells: 46
    Number of basis function: 138
    Number of Cartesian functions: 160
    Spherical Harmonics?: true
    Max angular momentum: 3

  ==> DFT Potential <==

   => Composite Functional: M06-2X <= 

    Hybrid M06-2X Meta-GGA XC Functional

    Y. Zhao and D. G. Truhlar,  Theor. Chem. Acc., 120, 215, 2008


    Deriv               =              1
    GGA                 =           TRUE
    Meta                =           TRUE

    Exchange Hybrid     =           TRUE
    MP2 Hybrid          =          FALSE

   => Exchange Functionals <=

    1.0000   XC_HYB_MGGA_X_M06_2X

   => Exact (HF) Exchange <=

    0.5400               HF 

   => Correlation Functionals <=

    1.0000   XC_MGGA_C_M06_2X

   => Molecular Quadrature <=

    Radial Scheme          =       TREUTLER
    Pruning Scheme         =           FLAT
    Nuclear Scheme         =       TREUTLER

    BS radius alpha        =              1
    Pruning alpha          =              1
    Radial Points          =             75
    Spherical Points       =            302
    Total Points           =          90600
    Total Blocks           =            752
    Max Points             =            256
    Max Functions          =            138

   => Loading Basis Set <=

    Name: (AUG-CC-PVTZ AUX)
    Role: JKFIT
    Keyword: DF_BASIS_SCF
    atoms 1-2 entry C          line   162 file /home/akrom/software/anaconda3/envs/ffpenv/share/psi4/basis/aug-cc-pvtz-jkfit.gbs 
    atoms 3-4 entry H          line    70 file /home/akrom/software/anaconda3/envs/ffpenv/share/psi4/basis/aug-cc-pvtz-jkfit.gbs 

  ==> Pre-Iterations <==

   -------------------------------------------------------
    Irrep   Nso     Nmo     Nalpha   Nbeta   Ndocc  Nsocc
   -------------------------------------------------------
     Ag        30      30       0       0       0       0
     B1g       16      16       0       0       0       0
     B2g       16      16       0       0       0       0
     B3g        7       7       0       0       0       0
     Au         7       7       0       0       0       0
     B1u       16      16       0       0       0       0
     B2u       16      16       0       0       0       0
     B3u       30      30       0       0       0       0
   -------------------------------------------------------
    Total     138     138       7       7       7       0
   -------------------------------------------------------

  ==> Integral Setup <==

  DFHelper Memory: AOs need 0.047 GiB; user supplied 0.047 GiB. Using in-core AOs.

  ==> MemDFJK: Density-Fitted J/K Matrices <==

    J tasked:                   Yes
    K tasked:                   Yes
    wK tasked:                   No
    OpenMP threads:               1
    Memory [MiB]:                48
    Algorithm:                 Core
    Schwarz Cutoff:           1E-12
    Mask sparsity (%):       0.0420
    Fitting Condition:        1E-10

   => Auxiliary Basis Set <=

  Basis Set: (AUG-CC-PVTZ AUX)
    Blend: AUG-CC-PVTZ-JKFIT
    Number of shells: 88
    Number of basis function: 300
    Number of Cartesian functions: 372
    Spherical Harmonics?: true
    Max angular momentum: 4

  Cached 50.0% of DFT collocation blocks in 0.426 [GiB].

  Minimum eigenvalue in the overlap matrix is 9.1550632594E-06.
  Using Symmetric Orthogonalization.

  SCF Guess: Superposition of Atomic Densities via on-the-fly atomic UHF.

  ==> Iterations <==

                           Total Energy        Delta E     RMS |[F,P]|

   @DF-RKS iter SAD:   -76.54049396990210   -7.65405e+01   0.00000e+00 
   @DF-RKS iter   1:   -77.19593980934313   -6.55446e-01   9.50231e-03 DIIS
   @DF-RKS iter   2:   -77.25040536725288   -5.44656e-02   6.90027e-03 DIIS
   @DF-RKS iter   3:   -77.32252733711309   -7.21220e-02   3.50692e-04 DIIS
   @DF-RKS iter   4:   -77.32272907690822   -2.01740e-04   1.73167e-05 DIIS
   @DF-RKS iter   5:   -77.32272987957801   -8.02670e-07   2.09504e-06 DIIS
   @DF-RKS iter   6:   -77.32272988676932   -7.19132e-09   3.25708e-07 DIIS
   @DF-RKS iter   7:   -77.32272988693695   -1.67631e-10   4.17538e-08 DIIS
   @DF-RKS iter   8:   -77.32272988694078   -3.82272e-12   4.51383e-09 DIIS
  Energy and wave function converged.


  ==> Post-Iterations <==

    Orbital Energies [Eh]
    ---------------------

    Doubly Occupied:                                                      

       1Ag   -10.558823     1B3u  -10.556509     2Ag    -0.846788  
       2B3u   -0.648004     3Ag    -0.563479     1B1u   -0.353628  
       1B2u   -0.353628  

    Virtual:                                                              

       4Ag     0.002877     3B3u    0.010076     1B1g    0.036582  
       1B2g    0.036582     2B1u    0.053182     2B2u    0.053182  
       5Ag     0.063398     4B3u    0.078625     2B1g    0.103614  
       2B2g    0.103614     6Ag     0.106559     5B3u    0.159342  
       6B3u    0.207755     7Ag     0.209410     3B2u    0.214845  
       3B1u    0.214845     1B3g    0.235374     8Ag     0.235374  
       9Ag     0.308973     3B1g    0.310847     3B2g    0.310847  
       7B3u    0.323204     1Au     0.337013     8B3u    0.337013  
      10Ag     0.341055     4B1g    0.348165     4B2g    0.348165  
       4B1u    0.402014     4B2u    0.402014     9B3u    0.443538  
      10B3u    0.501210     5B2u    0.503878     5B1u    0.503878  
      11Ag     0.547472     5B1g    0.712871     5B2g    0.712871  
      12Ag     0.772783    11B3u    0.775153    13Ag     0.784777  
       2B3g    0.784778     6B1u    0.828692     6B2u    0.828692  
      14Ag     0.866091    15Ag     0.875069     3B3g    0.875070  
      12B3u    0.911699     2Au     0.911699     6B1g    0.912326  
       6B2g    0.912326     7B1u    0.914610     7B2u    0.914610  
      13B3u    0.919193    16Ag     1.019080     8B2u    1.045344  
       8B1u    1.045344    14B3u    1.064998     3Au     1.064999  
      15B3u    1.078884     7B1g    1.156795     7B2g    1.156795  
      16B3u    1.161281     8B1g    1.249374     8B2g    1.249374  
       9B2u    1.423678     9B1u    1.423678    17Ag     1.471035  
       4B3g    1.471038     9B1g    1.596540     9B2g    1.596540  
      18Ag     1.600089    10B2u    1.710111    10B1u    1.710111  
      17B3u    1.756769    19Ag     1.828949    18B3u    1.829351  
       4Au     1.829358    19B3u    1.926596    20Ag     2.004501  
      10B1g    2.139352    10B2g    2.139352    11B1u    2.514080  
      11B2u    2.514080    20B3u    2.536089    21Ag     2.715619  
      21B3u    2.835363     5B3g    2.879828    22Ag     2.879861  
      11B1g    2.914914    11B2g    2.914914    12B2u    2.995915  
      12B1u    2.995915    13B2u    3.069017    13B1u    3.069017  
       5Au     3.143234    22B3u    3.143257     6B3g    3.256411  
      23Ag     3.256431    24Ag     3.274213    12B1g    3.373716  
      12B2g    3.373716    25Ag     3.401525    14B2u    3.463502  
      14B1u    3.463502    13B1g    3.534214    13B2g    3.534214  
      23B3u    3.543466     6Au     3.750438    24B3u    3.750472  
      26Ag     3.808699     7B3g    3.808772    25B3u    3.966542  
      26B3u    4.267920    27Ag     4.267928     7Au     4.267973  
      14B1g    4.379904    14B2g    4.379904    15B2u    4.390533  
      15B1u    4.390533    15B1g    4.618761    15B2g    4.618761  
      27B3u    4.888473    28Ag     4.961793    16B2u    5.366562  
      16B1u    5.366562    28B3u    5.721862    29B3u    6.185543  
      16B1g    6.269737    16B2g    6.269737    29Ag     6.380071  
      30Ag    12.790326    30B3u   18.034144  

    Final Occupation by Irrep:
             Ag   B1g   B2g   B3g    Au   B1u   B2u   B3u 
    DOCC [     3,    0,    0,    0,    0,    1,    1,    2 ]

  @DF-RKS Final Energy:   -77.32272988694078

   => Energetics <=

    Nuclear Repulsion Energy =             24.3232181713792350
    One-Electron Energy =                -150.9911479234564808
    Two-Electron Energy =                  54.8622455642108662
    DFT Exchange-Correlation Energy =      -5.5170456990743970
    Empirical Dispersion Energy =           0.0000000000000000
    VV10 Nonlocal Energy =                  0.0000000000000000
    Total Energy =                        -77.3227298869407775

Computation Completed


Properties will be evaluated at   0.000000,   0.000000,   0.000000 [a0]

Properties computed using the SCF density matrix

  Nuclear Dipole Moment: [e a0]
     X:     0.0000      Y:     0.0000      Z:     0.0000

  Electronic Dipole Moment: [e a0]
     X:     0.0000      Y:     0.0000      Z:     0.0000

  Dipole Moment: [e a0]
     X:     0.0000      Y:     0.0000      Z:     0.0000     Total:     0.0000

  Dipole Moment: [D]
     X:     0.0000      Y:     0.0000      Z:     0.0000     Total:     0.0000


*** tstop() called on atlantis at Tue Apr 19 02:10:15 2022
Module time:
	user time   =       8.61 seconds =       0.14 minutes
	system time =       0.04 seconds =       0.00 minutes
	total time  =          9 seconds =       0.15 minutes
Total time:
	user time   =      26.39 seconds =       0.44 minutes
	system time =       0.18 seconds =       0.00 minutes
	total time  =         27 seconds =       0.45 minutes

*** tstart() called on atlantis
*** at Tue Apr 19 02:10:15 2022


         ------------------------------------------------------------
                                   SCF GRAD                          
                          Rob Parrish, Justin Turney,                
                       Andy Simmonett, and Alex Sokolov              
         ------------------------------------------------------------

  ==> Geometry <==

    Molecular point group: d2h
    Full point group: D_inf_h

    Geometry (in Angstrom), charge = 0, multiplicity = 1:

       Center              X                  Y                   Z               Mass       
    ------------   -----------------  -----------------  -----------------  -----------------
         C           -0.614460000000    -0.000000000000     0.000000000000    12.000000000000
         C            0.614460000000     0.000000000000     0.000000000000    12.000000000000
         H           -1.689230000000    -0.000000000000     0.000000000000     1.007825032230
         H            1.689230000000     0.000000000000     0.000000000000     1.007825032230

  Nuclear repulsion =   24.323218171379235

  ==> Basis Set <==

  Basis Set: AUG-CC-PVTZ
    Blend: AUG-CC-PVTZ
    Number of shells: 46
    Number of basis function: 138
    Number of Cartesian functions: 160
    Spherical Harmonics?: true
    Max angular momentum: 3

  ==> DFJKGrad: Density-Fitted SCF Gradients <==

    Gradient:                    1
    J tasked:                  Yes
    K tasked:                  Yes
    wK tasked:                  No
    OpenMP threads:              1
    Integrals threads:           1
    Memory [MiB]:              375
    Schwarz Cutoff:          0E+00
    Fitting Condition:       1E-10

   => Auxiliary Basis Set <=

  Basis Set: (AUG-CC-PVTZ AUX)
    Blend: AUG-CC-PVTZ-JKFIT
    Number of shells: 88
    Number of basis function: 300
    Number of Cartesian functions: 372
    Spherical Harmonics?: true
    Max angular momentum: 4

  ==> DFT Potential <==

   => Composite Functional: M06-2X <= 

    Hybrid M06-2X Meta-GGA XC Functional

    Y. Zhao and D. G. Truhlar,  Theor. Chem. Acc., 120, 215, 2008


    Deriv               =              1
    GGA                 =           TRUE
    Meta                =           TRUE

    Exchange Hybrid     =           TRUE
    MP2 Hybrid          =          FALSE

   => Exchange Functionals <=

    1.0000   XC_HYB_MGGA_X_M06_2X

   => Exact (HF) Exchange <=

    0.5400               HF 

   => Correlation Functionals <=

    1.0000   XC_MGGA_C_M06_2X

   => Molecular Quadrature <=

    Radial Scheme          =       TREUTLER
    Pruning Scheme         =           FLAT
    Nuclear Scheme         =       TREUTLER

    BS radius alpha        =              1
    Pruning alpha          =              1
    Radial Points          =             75
    Spherical Points       =            302
    Total Points           =          90600
    Total Blocks           =            752
    Max Points             =            256
    Max Functions          =            138


  -Total Gradient:
     Atom            X                  Y                   Z
    ------   -----------------  -----------------  -----------------
       1       -0.060501154790    -0.000000000000     0.000000000000
       2        0.060501154790     0.000000000000     0.000000000000
       3       -0.008479897365    -0.000000000000     0.000000000000
       4        0.008479897365     0.000000000000     0.000000000000


*** tstop() called on atlantis at Tue Apr 19 02:10:17 2022
Module time:
	user time   =       1.97 seconds =       0.03 minutes
	system time =       0.00 seconds =       0.00 minutes
	total time  =          2 seconds =       0.03 minutes
Total time:
	user time   =      28.36 seconds =       0.47 minutes
	system time =       0.18 seconds =       0.00 minutes
	total time  =         29 seconds =       0.48 minutes

  //>>>>>>>>>>>>>>>>>>>>>>>>>>>>>>>>>>>//
  //    Loading displacement 2 of 12   //
  //<<<<<<<<<<<<<<<<<<<<<<<<<<<<<<<<<<<//
gradient() will perform analytic gradient computation.

*** tstart() called on atlantis
*** at Tue Apr 19 02:10:17 2022

   => Loading Basis Set <=

    Name: AUG-CC-PVTZ
    Role: ORBITAL
    Keyword: BASIS
    atoms 1-2 entry C          line   235 file /home/akrom/software/anaconda3/envs/ffpenv/share/psi4/basis/aug-cc-pvtz.gbs 
    atoms 3-4 entry H          line    36 file /home/akrom/software/anaconda3/envs/ffpenv/share/psi4/basis/aug-cc-pvtz.gbs 


         ---------------------------------------------------------
                                   SCF
               by Justin Turney, Rob Parrish, Andy Simmonett
                          and Daniel G. A. Smith
                              RKS Reference
                        1 Threads,    500 MiB Core
         ---------------------------------------------------------

  ==> Geometry <==

    Molecular point group: d2h
    Full point group: D_inf_h

    Geometry (in Angstrom), charge = 0, multiplicity = 1:

       Center              X                  Y                   Z               Mass       
    ------------   -----------------  -----------------  -----------------  -----------------
         C           -0.615000089229    -0.000000000000     0.000000000000    12.000000000000
         C            0.615000089229     0.000000000000     0.000000000000    12.000000000000
         H           -1.689230000000    -0.000000000000     0.000000000000     1.007825032230
         H            1.689230000000     0.000000000000     0.000000000000     1.007825032230

  Running in d2h symmetry.

  Rotational constants: A = ************  B =      1.13680  C =      1.13680 [cm^-1]
  Rotational constants: A = ************  B =  34080.32226  C =  34080.32226 [MHz]
  Nuclear repulsion =   24.311929094340595

  Charge       = 0
  Multiplicity = 1
  Electrons    = 14
  Nalpha       = 7
  Nbeta        = 7

  ==> Algorithm <==

  SCF Algorithm Type is DF.
  DIIS enabled.
  MOM disabled.
  Fractional occupation disabled.
  Guess Type is SAD.
  Energy threshold   = 1.00e-08
  Density threshold  = 1.00e-08
  Integral threshold = 0.00e+00

  ==> Primary Basis <==

  Basis Set: AUG-CC-PVTZ
    Blend: AUG-CC-PVTZ
    Number of shells: 46
    Number of basis function: 138
    Number of Cartesian functions: 160
    Spherical Harmonics?: true
    Max angular momentum: 3

  ==> DFT Potential <==

   => Composite Functional: M06-2X <= 

    Hybrid M06-2X Meta-GGA XC Functional

    Y. Zhao and D. G. Truhlar,  Theor. Chem. Acc., 120, 215, 2008


    Deriv               =              1
    GGA                 =           TRUE
    Meta                =           TRUE

    Exchange Hybrid     =           TRUE
    MP2 Hybrid          =          FALSE

   => Exchange Functionals <=

    1.0000   XC_HYB_MGGA_X_M06_2X

   => Exact (HF) Exchange <=

    0.5400               HF 

   => Correlation Functionals <=

    1.0000   XC_MGGA_C_M06_2X

   => Molecular Quadrature <=

    Radial Scheme          =       TREUTLER
    Pruning Scheme         =           FLAT
    Nuclear Scheme         =       TREUTLER

    BS radius alpha        =              1
    Pruning alpha          =              1
    Radial Points          =             75
    Spherical Points       =            302
    Total Points           =          90600
    Total Blocks           =            752
    Max Points             =            256
    Max Functions          =            138

   => Loading Basis Set <=

    Name: (AUG-CC-PVTZ AUX)
    Role: JKFIT
    Keyword: DF_BASIS_SCF
    atoms 1-2 entry C          line   162 file /home/akrom/software/anaconda3/envs/ffpenv/share/psi4/basis/aug-cc-pvtz-jkfit.gbs 
    atoms 3-4 entry H          line    70 file /home/akrom/software/anaconda3/envs/ffpenv/share/psi4/basis/aug-cc-pvtz-jkfit.gbs 

  ==> Pre-Iterations <==

   -------------------------------------------------------
    Irrep   Nso     Nmo     Nalpha   Nbeta   Ndocc  Nsocc
   -------------------------------------------------------
     Ag        30      30       0       0       0       0
     B1g       16      16       0       0       0       0
     B2g       16      16       0       0       0       0
     B3g        7       7       0       0       0       0
     Au         7       7       0       0       0       0
     B1u       16      16       0       0       0       0
     B2u       16      16       0       0       0       0
     B3u       30      30       0       0       0       0
   -------------------------------------------------------
    Total     138     138       7       7       7       0
   -------------------------------------------------------

  ==> Integral Setup <==

  DFHelper Memory: AOs need 0.047 GiB; user supplied 0.047 GiB. Using in-core AOs.

  ==> MemDFJK: Density-Fitted J/K Matrices <==

    J tasked:                   Yes
    K tasked:                   Yes
    wK tasked:                   No
    OpenMP threads:               1
    Memory [MiB]:                48
    Algorithm:                 Core
    Schwarz Cutoff:           1E-12
    Mask sparsity (%):       0.0420
    Fitting Condition:        1E-10

   => Auxiliary Basis Set <=

  Basis Set: (AUG-CC-PVTZ AUX)
    Blend: AUG-CC-PVTZ-JKFIT
    Number of shells: 88
    Number of basis function: 300
    Number of Cartesian functions: 372
    Spherical Harmonics?: true
    Max angular momentum: 4

  Cached 50.0% of DFT collocation blocks in 0.430 [GiB].

  Minimum eigenvalue in the overlap matrix is 9.1814319619E-06.
  Using Symmetric Orthogonalization.

  SCF Guess: Superposition of Atomic Densities via on-the-fly atomic UHF.

  ==> Iterations <==

                           Total Energy        Delta E     RMS |[F,P]|

   @DF-RKS iter SAD:   -76.53967105752996   -7.65397e+01   0.00000e+00 
   @DF-RKS iter   1:   -77.19628403451817   -6.56613e-01   9.48196e-03 DIIS
   @DF-RKS iter   2:   -77.25067055654409   -5.43865e-02   6.88116e-03 DIIS
   @DF-RKS iter   3:   -77.32240289424539   -7.17323e-02   3.49061e-04 DIIS
   @DF-RKS iter   4:   -77.32260289298470   -1.99999e-04   1.72919e-05 DIIS
   @DF-RKS iter   5:   -77.32260369288318   -7.99898e-07   2.10809e-06 DIIS
   @DF-RKS iter   6:   -77.32260370009155   -7.20837e-09   3.30625e-07 DIIS
   @DF-RKS iter   7:   -77.32260370026282   -1.71269e-10   4.12082e-08 DIIS
   @DF-RKS iter   8:   -77.32260370026650   -3.68061e-12   4.43873e-09 DIIS
  Energy and wave function converged.


  ==> Post-Iterations <==

    Orbital Energies [Eh]
    ---------------------

    Doubly Occupied:                                                      

       1Ag   -10.559096     1B3u  -10.556797     2Ag    -0.846597  
       2B3u   -0.648328     3Ag    -0.563604     1B1u   -0.353468  
       1B2u   -0.353468  

    Virtual:                                                              

       4Ag     0.002868     3B3u    0.010079     1B1g    0.036424  
       1B2g    0.036424     2B1u    0.053193     2B2u    0.053193  
       5Ag     0.063409     4B3u    0.078640     2B1g    0.103449  
       2B2g    0.103449     6Ag     0.106533     5B3u    0.159317  
       6B3u    0.207701     7Ag     0.209506     3B2u    0.214846  
       3B1u    0.214846     1B3g    0.235342     8Ag     0.235342  
       9Ag     0.308917     3B1g    0.310778     3B2g    0.310778  
       7B3u    0.323143     1Au     0.337000     8B3u    0.337000  
      10Ag     0.341057     4B1g    0.348117     4B2g    0.348117  
       4B1u    0.402044     4B2u    0.402044     9B3u    0.443346  
      10B3u    0.501124     5B2u    0.503924     5B1u    0.503924  
      11Ag     0.547577     5B1g    0.712795     5B2g    0.712795  
      12Ag     0.772610    11B3u    0.774660    13Ag     0.784733  
       2B3g    0.784734     6B1u    0.828713     6B2u    0.828713  
      14Ag     0.865871    15Ag     0.875054     3B3g    0.875055  
      12B3u    0.911625     2Au     0.911625     6B1g    0.912187  
       6B2g    0.912187     7B1u    0.914545     7B2u    0.914545  
      13B3u    0.919184    16Ag     1.019145     8B2u    1.045185  
       8B1u    1.045185    14B3u    1.065102     3Au     1.065103  
      15B3u    1.078708     7B2g    1.156615     7B1g    1.156615  
      16B3u    1.160720     8B1g    1.249295     8B2g    1.249295  
       9B2u    1.424224     9B1u    1.424224    17Ag     1.470861  
       4B3g    1.470864     9B1g    1.596446     9B2g    1.596446  
      18Ag     1.599315    10B2u    1.709856    10B1u    1.709856  
      17B3u    1.756663    18B3u    1.829092     4Au     1.829099  
      19Ag     1.829525    19B3u    1.925912    20Ag     2.003161  
      10B2g    2.139407    10B1g    2.139407    11B1u    2.514251  
      11B2u    2.514251    20B3u    2.535697    21Ag     2.715807  
      21B3u    2.834494     5B3g    2.880033    22Ag     2.880066  
      11B1g    2.914283    11B2g    2.914283    12B2u    2.995229  
      12B1u    2.995229    13B1u    3.069223    13B2u    3.069223  
       5Au     3.143022    22B3u    3.143044     6B3g    3.255925  
      23Ag     3.255945    24Ag     3.273421    12B1g    3.373167  
      12B2g    3.373167    25Ag     3.401113    14B2u    3.462879  
      14B1u    3.462879    13B1g    3.534154    13B2g    3.534154  
      23B3u    3.543959     6Au     3.749847    24B3u    3.749881  
      26Ag     3.808889     7B3g    3.808961    25B3u    3.966414  
      27Ag     4.266882    26B3u    4.267445     7Au     4.267498  
      14B1g    4.379129    14B2g    4.379129    15B2u    4.391082  
      15B1u    4.391082    15B1g    4.618925    15B2g    4.618925  
      27B3u    4.889874    28Ag     4.962682    16B2u    5.366617  
      16B1u    5.366617    28B3u    5.723302    29B3u    6.185141  
      16B1g    6.270060    16B2g    6.270060    29Ag     6.377804  
      30Ag    12.801887    30B3u   18.004285  

    Final Occupation by Irrep:
             Ag   B1g   B2g   B3g    Au   B1u   B2u   B3u 
    DOCC [     3,    0,    0,    0,    0,    1,    1,    2 ]

  @DF-RKS Final Energy:   -77.32260370026650

   => Energetics <=

    Nuclear Repulsion Energy =             24.3119290943405950
    One-Electron Energy =                -150.9675732231268910
    Two-Electron Energy =                  54.8498079880408937
    DFT Exchange-Correlation Energy =      -5.5167675595211048
    Empirical Dispersion Energy =           0.0000000000000000
    VV10 Nonlocal Energy =                  0.0000000000000000
    Total Energy =                        -77.3226037002664981

Computation Completed


Properties will be evaluated at   0.000000,   0.000000,   0.000000 [a0]

Properties computed using the SCF density matrix

  Nuclear Dipole Moment: [e a0]
     X:     0.0000      Y:     0.0000      Z:     0.0000

  Electronic Dipole Moment: [e a0]
     X:     0.0000      Y:     0.0000      Z:     0.0000

  Dipole Moment: [e a0]
     X:     0.0000      Y:     0.0000      Z:     0.0000     Total:     0.0000

  Dipole Moment: [D]
     X:     0.0000      Y:     0.0000      Z:     0.0000     Total:     0.0000


*** tstop() called on atlantis at Tue Apr 19 02:10:26 2022
Module time:
	user time   =       8.60 seconds =       0.14 minutes
	system time =       0.04 seconds =       0.00 minutes
	total time  =          9 seconds =       0.15 minutes
Total time:
	user time   =      36.96 seconds =       0.62 minutes
	system time =       0.22 seconds =       0.00 minutes
	total time  =         38 seconds =       0.63 minutes

*** tstart() called on atlantis
*** at Tue Apr 19 02:10:26 2022


         ------------------------------------------------------------
                                   SCF GRAD                          
                          Rob Parrish, Justin Turney,                
                       Andy Simmonett, and Alex Sokolov              
         ------------------------------------------------------------

  ==> Geometry <==

    Molecular point group: d2h
    Full point group: D_inf_h

    Geometry (in Angstrom), charge = 0, multiplicity = 1:

       Center              X                  Y                   Z               Mass       
    ------------   -----------------  -----------------  -----------------  -----------------
         C           -0.615000089229    -0.000000000000     0.000000000000    12.000000000000
         C            0.615000089229     0.000000000000     0.000000000000    12.000000000000
         H           -1.689230000000    -0.000000000000     0.000000000000     1.007825032230
         H            1.689230000000     0.000000000000     0.000000000000     1.007825032230

  Nuclear repulsion =   24.311929094340595

  ==> Basis Set <==

  Basis Set: AUG-CC-PVTZ
    Blend: AUG-CC-PVTZ
    Number of shells: 46
    Number of basis function: 138
    Number of Cartesian functions: 160
    Spherical Harmonics?: true
    Max angular momentum: 3

  ==> DFJKGrad: Density-Fitted SCF Gradients <==

    Gradient:                    1
    J tasked:                  Yes
    K tasked:                  Yes
    wK tasked:                  No
    OpenMP threads:              1
    Integrals threads:           1
    Memory [MiB]:              375
    Schwarz Cutoff:          0E+00
    Fitting Condition:       1E-10

   => Auxiliary Basis Set <=

  Basis Set: (AUG-CC-PVTZ AUX)
    Blend: AUG-CC-PVTZ-JKFIT
    Number of shells: 88
    Number of basis function: 300
    Number of Cartesian functions: 372
    Spherical Harmonics?: true
    Max angular momentum: 4

  ==> DFT Potential <==

   => Composite Functional: M06-2X <= 

    Hybrid M06-2X Meta-GGA XC Functional

    Y. Zhao and D. G. Truhlar,  Theor. Chem. Acc., 120, 215, 2008


    Deriv               =              1
    GGA                 =           TRUE
    Meta                =           TRUE

    Exchange Hybrid     =           TRUE
    MP2 Hybrid          =          FALSE

   => Exchange Functionals <=

    1.0000   XC_HYB_MGGA_X_M06_2X

   => Exact (HF) Exchange <=

    0.5400               HF 

   => Correlation Functionals <=

    1.0000   XC_MGGA_C_M06_2X

   => Molecular Quadrature <=

    Radial Scheme          =       TREUTLER
    Pruning Scheme         =           FLAT
    Nuclear Scheme         =       TREUTLER

    BS radius alpha        =              1
    Pruning alpha          =              1
    Radial Points          =             75
    Spherical Points       =            302
    Total Points           =          90600
    Total Blocks           =            752
    Max Points             =            256
    Max Functions          =            138


  -Total Gradient:
     Atom            X                  Y                   Z
    ------   -----------------  -----------------  -----------------
       1       -0.062856578387    -0.000000000000     0.000000000000
       2        0.062856578387     0.000000000000     0.000000000000
       3       -0.008068773778    -0.000000000000     0.000000000000
       4        0.008068773778     0.000000000000     0.000000000000


*** tstop() called on atlantis at Tue Apr 19 02:10:28 2022
Module time:
	user time   =       1.94 seconds =       0.03 minutes
	system time =       0.00 seconds =       0.00 minutes
	total time  =          2 seconds =       0.03 minutes
Total time:
	user time   =      38.90 seconds =       0.65 minutes
	system time =       0.22 seconds =       0.00 minutes
	total time  =         40 seconds =       0.67 minutes

  //>>>>>>>>>>>>>>>>>>>>>>>>>>>>>>>>>>>//
  //    Loading displacement 3 of 12   //
  //<<<<<<<<<<<<<<<<<<<<<<<<<<<<<<<<<<<//
gradient() will perform analytic gradient computation.

*** tstart() called on atlantis
*** at Tue Apr 19 02:10:28 2022

   => Loading Basis Set <=

    Name: AUG-CC-PVTZ
    Role: ORBITAL
    Keyword: BASIS
    atoms 1-2 entry C          line   235 file /home/akrom/software/anaconda3/envs/ffpenv/share/psi4/basis/aug-cc-pvtz.gbs 
    atoms 3-4 entry H          line    36 file /home/akrom/software/anaconda3/envs/ffpenv/share/psi4/basis/aug-cc-pvtz.gbs 


         ---------------------------------------------------------
                                   SCF
               by Justin Turney, Rob Parrish, Andy Simmonett
                          and Daniel G. A. Smith
                              RKS Reference
                        1 Threads,    500 MiB Core
         ---------------------------------------------------------

  ==> Geometry <==

    Molecular point group: d2h
    Full point group: D_inf_h

    Geometry (in Angstrom), charge = 0, multiplicity = 1:

       Center              X                  Y                   Z               Mass       
    ------------   -----------------  -----------------  -----------------  -----------------
         C           -0.613919910771    -0.000000000000     0.000000000000    12.000000000000
         C            0.613919910771     0.000000000000     0.000000000000    12.000000000000
         H           -1.689230000000    -0.000000000000     0.000000000000     1.007825032230
         H            1.689230000000     0.000000000000     0.000000000000     1.007825032230

  Running in d2h symmetry.

  Rotational constants: A = ************  B =      1.13924  C =      1.13924 [cm^-1]
  Rotational constants: A = ************  B =  34153.69835  C =  34153.69835 [MHz]
  Nuclear repulsion =   24.334534488106961

  Charge       = 0
  Multiplicity = 1
  Electrons    = 14
  Nalpha       = 7
  Nbeta        = 7

  ==> Algorithm <==

  SCF Algorithm Type is DF.
  DIIS enabled.
  MOM disabled.
  Fractional occupation disabled.
  Guess Type is SAD.
  Energy threshold   = 1.00e-08
  Density threshold  = 1.00e-08
  Integral threshold = 0.00e+00

  ==> Primary Basis <==

  Basis Set: AUG-CC-PVTZ
    Blend: AUG-CC-PVTZ
    Number of shells: 46
    Number of basis function: 138
    Number of Cartesian functions: 160
    Spherical Harmonics?: true
    Max angular momentum: 3

  ==> DFT Potential <==

   => Composite Functional: M06-2X <= 

    Hybrid M06-2X Meta-GGA XC Functional

    Y. Zhao and D. G. Truhlar,  Theor. Chem. Acc., 120, 215, 2008


    Deriv               =              1
    GGA                 =           TRUE
    Meta                =           TRUE

    Exchange Hybrid     =           TRUE
    MP2 Hybrid          =          FALSE

   => Exchange Functionals <=

    1.0000   XC_HYB_MGGA_X_M06_2X

   => Exact (HF) Exchange <=

    0.5400               HF 

   => Correlation Functionals <=

    1.0000   XC_MGGA_C_M06_2X

   => Molecular Quadrature <=

    Radial Scheme          =       TREUTLER
    Pruning Scheme         =           FLAT
    Nuclear Scheme         =       TREUTLER

    BS radius alpha        =              1
    Pruning alpha          =              1
    Radial Points          =             75
    Spherical Points       =            302
    Total Points           =          90600
    Total Blocks           =            752
    Max Points             =            256
    Max Functions          =            138

   => Loading Basis Set <=

    Name: (AUG-CC-PVTZ AUX)
    Role: JKFIT
    Keyword: DF_BASIS_SCF
    atoms 1-2 entry C          line   162 file /home/akrom/software/anaconda3/envs/ffpenv/share/psi4/basis/aug-cc-pvtz-jkfit.gbs 
    atoms 3-4 entry H          line    70 file /home/akrom/software/anaconda3/envs/ffpenv/share/psi4/basis/aug-cc-pvtz-jkfit.gbs 

  ==> Pre-Iterations <==

   -------------------------------------------------------
    Irrep   Nso     Nmo     Nalpha   Nbeta   Ndocc  Nsocc
   -------------------------------------------------------
     Ag        30      30       0       0       0       0
     B1g       16      16       0       0       0       0
     B2g       16      16       0       0       0       0
     B3g        7       7       0       0       0       0
     Au         7       7       0       0       0       0
     B1u       16      16       0       0       0       0
     B2u       16      16       0       0       0       0
     B3u       30      30       0       0       0       0
   -------------------------------------------------------
    Total     138     138       7       7       7       0
   -------------------------------------------------------

  ==> Integral Setup <==

  DFHelper Memory: AOs need 0.047 GiB; user supplied 0.047 GiB. Using in-core AOs.

  ==> MemDFJK: Density-Fitted J/K Matrices <==

    J tasked:                   Yes
    K tasked:                   Yes
    wK tasked:                   No
    OpenMP threads:               1
    Memory [MiB]:                48
    Algorithm:                 Core
    Schwarz Cutoff:           1E-12
    Mask sparsity (%):       0.0420
    Fitting Condition:        1E-10

   => Auxiliary Basis Set <=

  Basis Set: (AUG-CC-PVTZ AUX)
    Blend: AUG-CC-PVTZ-JKFIT
    Number of shells: 88
    Number of basis function: 300
    Number of Cartesian functions: 372
    Spherical Harmonics?: true
    Max angular momentum: 4

  Cached 50.0% of DFT collocation blocks in 0.426 [GiB].

  Minimum eigenvalue in the overlap matrix is 9.1287963205E-06.
  Using Symmetric Orthogonalization.

  SCF Guess: Superposition of Atomic Densities via on-the-fly atomic UHF.

  ==> Iterations <==

                           Total Energy        Delta E     RMS |[F,P]|

   @DF-RKS iter SAD:   -76.54131516863372   -7.65413e+01   0.00000e+00 
   @DF-RKS iter   1:   -77.19558849303263   -6.54273e-01   9.52272e-03 DIIS
   @DF-RKS iter   2:   -77.25013290704818   -5.45444e-02   6.91945e-03 DIIS
   @DF-RKS iter   3:   -77.32264694276718   -7.25140e-02   3.52335e-04 DIIS
   @DF-RKS iter   4:   -77.32285044466349   -2.03502e-04   1.73442e-05 DIIS
   @DF-RKS iter   5:   -77.32285125023699   -8.05574e-07   2.08280e-06 DIIS
   @DF-RKS iter   6:   -77.32285125741724   -7.18025e-09   3.20527e-07 DIIS
   @DF-RKS iter   7:   -77.32285125758133   -1.64093e-10   4.22936e-08 DIIS
   @DF-RKS iter   8:   -77.32285125758517   -3.83693e-12   4.59146e-09 DIIS
  Energy and wave function converged.


  ==> Post-Iterations <==

    Orbital Energies [Eh]
    ---------------------

    Doubly Occupied:                                                      

       1Ag   -10.558550     1B3u  -10.556219     2Ag    -0.846979  
       2B3u   -0.647681     3Ag    -0.563353     1B1u   -0.353789  
       1B2u   -0.353789  

    Virtual:                                                              

       4Ag     0.002885     3B3u    0.010070     1B1g    0.036740  
       1B2g    0.036740     2B2u    0.053171     2B1u    0.053171  
       5Ag     0.063386     4B3u    0.078605     2B2g    0.103781  
       2B1g    0.103781     6Ag     0.106583     5B3u    0.159366  
       6B3u    0.207810     7Ag     0.209314     3B1u    0.214843  
       3B2u    0.214843     1B3g    0.235406     8Ag     0.235407  
       9Ag     0.309030     3B1g    0.310917     3B2g    0.310917  
       7B3u    0.323265     1Au     0.337025     8B3u    0.337025  
      10Ag     0.341052     4B2g    0.348213     4B1g    0.348213  
       4B1u    0.401983     4B2u    0.401983     9B3u    0.443731  
      10B3u    0.501296     5B1u    0.503831     5B2u    0.503831  
      11Ag     0.547366     5B2g    0.712948     5B1g    0.712948  
      12Ag     0.772956    11B3u    0.775646    13Ag     0.784822  
       2B3g    0.784822     6B1u    0.828671     6B2u    0.828671  
      14Ag     0.866313    15Ag     0.875084     3B3g    0.875085  
      12B3u    0.911772     2Au     0.911773     6B2g    0.912465  
       6B1g    0.912465     7B2u    0.914675     7B1u    0.914675  
      13B3u    0.919203    16Ag     1.019017     8B1u    1.045503  
       8B2u    1.045503    14B3u    1.064894     3Au     1.064894  
      15B3u    1.079060     7B1g    1.156974     7B2g    1.156974  
      16B3u    1.161849     8B2g    1.249454     8B1g    1.249454  
       9B1u    1.423131     9B2u    1.423131    17Ag     1.471209  
       4B3g    1.471212     9B2g    1.596635     9B1g    1.596635  
      18Ag     1.600862    10B1u    1.710366    10B2u    1.710366  
      17B3u    1.756876    19Ag     1.828367    18B3u    1.829611  
       4Au     1.829619    19B3u    1.927283    20Ag     2.005856  
      10B2g    2.139297    10B1g    2.139297    11B2u    2.513908  
      11B1u    2.513908    20B3u    2.536478    21Ag     2.715433  
      21B3u    2.836249     5B3g    2.879625    22Ag     2.879657  
      11B2g    2.915545    11B1g    2.915545    12B2u    2.996602  
      12B1u    2.996602    13B1u    3.068810    13B2u    3.068810  
       5Au     3.143446    22B3u    3.143469     6B3g    3.256897  
      23Ag     3.256917    24Ag     3.275000    12B1g    3.374266  
      12B2g    3.374266    25Ag     3.401938    14B1u    3.464127  
      14B2u    3.464127    13B2g    3.534273    13B1g    3.534273  
      23B3u    3.542976     6Au     3.751029    24B3u    3.751061  
      26Ag     3.808510     7B3g    3.808584    25B3u    3.966667  
      26B3u    4.268398     7Au     4.268451    27Ag     4.268977  
      14B1g    4.380675    14B2g    4.380675    15B1u    4.389984  
      15B2u    4.389984    15B1g    4.618597    15B2g    4.618597  
      27B3u    4.887086    28Ag     4.960911    16B2u    5.366508  
      16B1u    5.366508    28B3u    5.720432    29B3u    6.185995  
      16B2g    6.269415    16B1g    6.269415    29Ag     6.382355  
      30Ag    12.778776    30B3u   18.064054  

    Final Occupation by Irrep:
             Ag   B1g   B2g   B3g    Au   B1u   B2u   B3u 
    DOCC [     3,    0,    0,    0,    0,    1,    1,    2 ]

  @DF-RKS Final Energy:   -77.32285125758517

   => Energetics <=

    Nuclear Repulsion Energy =             24.3345344881069607
    One-Electron Energy =                -151.0147663140580789
    Two-Electron Energy =                  54.8747055040573670
    DFT Exchange-Correlation Energy =      -5.5173249356914011
    Empirical Dispersion Energy =           0.0000000000000000
    VV10 Nonlocal Energy =                  0.0000000000000000
    Total Energy =                        -77.3228512575851568

Computation Completed


Properties will be evaluated at   0.000000,   0.000000,   0.000000 [a0]

Properties computed using the SCF density matrix

  Nuclear Dipole Moment: [e a0]
     X:     0.0000      Y:     0.0000      Z:     0.0000

  Electronic Dipole Moment: [e a0]
     X:     0.0000      Y:     0.0000      Z:     0.0000

  Dipole Moment: [e a0]
     X:     0.0000      Y:     0.0000      Z:     0.0000     Total:     0.0000

  Dipole Moment: [D]
     X:     0.0000      Y:     0.0000      Z:     0.0000     Total:     0.0000


*** tstop() called on atlantis at Tue Apr 19 02:10:36 2022
Module time:
	user time   =       8.64 seconds =       0.14 minutes
	system time =       0.02 seconds =       0.00 minutes
	total time  =          8 seconds =       0.13 minutes
Total time:
	user time   =      47.55 seconds =       0.79 minutes
	system time =       0.24 seconds =       0.00 minutes
	total time  =         48 seconds =       0.80 minutes

*** tstart() called on atlantis
*** at Tue Apr 19 02:10:36 2022


         ------------------------------------------------------------
                                   SCF GRAD                          
                          Rob Parrish, Justin Turney,                
                       Andy Simmonett, and Alex Sokolov              
         ------------------------------------------------------------

  ==> Geometry <==

    Molecular point group: d2h
    Full point group: D_inf_h

    Geometry (in Angstrom), charge = 0, multiplicity = 1:

       Center              X                  Y                   Z               Mass       
    ------------   -----------------  -----------------  -----------------  -----------------
         C           -0.613919910771    -0.000000000000     0.000000000000    12.000000000000
         C            0.613919910771     0.000000000000     0.000000000000    12.000000000000
         H           -1.689230000000    -0.000000000000     0.000000000000     1.007825032230
         H            1.689230000000     0.000000000000     0.000000000000     1.007825032230

  Nuclear repulsion =   24.334534488106961

  ==> Basis Set <==

  Basis Set: AUG-CC-PVTZ
    Blend: AUG-CC-PVTZ
    Number of shells: 46
    Number of basis function: 138
    Number of Cartesian functions: 160
    Spherical Harmonics?: true
    Max angular momentum: 3

  ==> DFJKGrad: Density-Fitted SCF Gradients <==

    Gradient:                    1
    J tasked:                  Yes
    K tasked:                  Yes
    wK tasked:                  No
    OpenMP threads:              1
    Integrals threads:           1
    Memory [MiB]:              375
    Schwarz Cutoff:          0E+00
    Fitting Condition:       1E-10

   => Auxiliary Basis Set <=

  Basis Set: (AUG-CC-PVTZ AUX)
    Blend: AUG-CC-PVTZ-JKFIT
    Number of shells: 88
    Number of basis function: 300
    Number of Cartesian functions: 372
    Spherical Harmonics?: true
    Max angular momentum: 4

  ==> DFT Potential <==

   => Composite Functional: M06-2X <= 

    Hybrid M06-2X Meta-GGA XC Functional

    Y. Zhao and D. G. Truhlar,  Theor. Chem. Acc., 120, 215, 2008


    Deriv               =              1
    GGA                 =           TRUE
    Meta                =           TRUE

    Exchange Hybrid     =           TRUE
    MP2 Hybrid          =          FALSE

   => Exchange Functionals <=

    1.0000   XC_HYB_MGGA_X_M06_2X

   => Exact (HF) Exchange <=

    0.5400               HF 

   => Correlation Functionals <=

    1.0000   XC_MGGA_C_M06_2X

   => Molecular Quadrature <=

    Radial Scheme          =       TREUTLER
    Pruning Scheme         =           FLAT
    Nuclear Scheme         =       TREUTLER

    BS radius alpha        =              1
    Pruning alpha          =              1
    Radial Points          =             75
    Spherical Points       =            302
    Total Points           =          90600
    Total Blocks           =            752
    Max Points             =            256
    Max Functions          =            138


  -Total Gradient:
     Atom            X                  Y                   Z
    ------   -----------------  -----------------  -----------------
       1       -0.058134666702    -0.000000000000     0.000000000000
       2        0.058134666702     0.000000000000     0.000000000000
       3       -0.008889663317    -0.000000000000     0.000000000000
       4        0.008889663317     0.000000000000     0.000000000000


*** tstop() called on atlantis at Tue Apr 19 02:10:38 2022
Module time:
	user time   =       1.95 seconds =       0.03 minutes
	system time =       0.00 seconds =       0.00 minutes
	total time  =          2 seconds =       0.03 minutes
Total time:
	user time   =      49.50 seconds =       0.82 minutes
	system time =       0.24 seconds =       0.00 minutes
	total time  =         50 seconds =       0.83 minutes

  //>>>>>>>>>>>>>>>>>>>>>>>>>>>>>>>>>>>//
  //    Loading displacement 4 of 12   //
  //<<<<<<<<<<<<<<<<<<<<<<<<<<<<<<<<<<<//
gradient() will perform analytic gradient computation.

*** tstart() called on atlantis
*** at Tue Apr 19 02:10:38 2022

   => Loading Basis Set <=

    Name: AUG-CC-PVTZ
    Role: ORBITAL
    Keyword: BASIS
    atoms 1-2 entry C          line   235 file /home/akrom/software/anaconda3/envs/ffpenv/share/psi4/basis/aug-cc-pvtz.gbs 
    atoms 3-4 entry H          line    36 file /home/akrom/software/anaconda3/envs/ffpenv/share/psi4/basis/aug-cc-pvtz.gbs 


         ---------------------------------------------------------
                                   SCF
               by Justin Turney, Rob Parrish, Andy Simmonett
                          and Daniel G. A. Smith
                              RKS Reference
                        1 Threads,    500 MiB Core
         ---------------------------------------------------------

  ==> Geometry <==

    Molecular point group: d2h
    Full point group: D_inf_h

    Geometry (in Angstrom), charge = 0, multiplicity = 1:

       Center              X                  Y                   Z               Mass       
    ------------   -----------------  -----------------  -----------------  -----------------
         C           -0.614460000000    -0.000000000000     0.000000000000    12.000000000000
         C            0.614460000000     0.000000000000     0.000000000000    12.000000000000
         H           -1.691093646632    -0.000000000000     0.000000000000     1.007825032230
         H            1.691093646632     0.000000000000     0.000000000000     1.007825032230

  Running in d2h symmetry.

  Rotational constants: A = ************  B =      1.13705  C =      1.13705 [cm^-1]
  Rotational constants: A = ************  B =  34087.76638  C =  34087.76638 [MHz]
  Nuclear repulsion =   24.310590060340044

  Charge       = 0
  Multiplicity = 1
  Electrons    = 14
  Nalpha       = 7
  Nbeta        = 7

  ==> Algorithm <==

  SCF Algorithm Type is DF.
  DIIS enabled.
  MOM disabled.
  Fractional occupation disabled.
  Guess Type is SAD.
  Energy threshold   = 1.00e-08
  Density threshold  = 1.00e-08
  Integral threshold = 0.00e+00

  ==> Primary Basis <==

  Basis Set: AUG-CC-PVTZ
    Blend: AUG-CC-PVTZ
    Number of shells: 46
    Number of basis function: 138
    Number of Cartesian functions: 160
    Spherical Harmonics?: true
    Max angular momentum: 3

  ==> DFT Potential <==

   => Composite Functional: M06-2X <= 

    Hybrid M06-2X Meta-GGA XC Functional

    Y. Zhao and D. G. Truhlar,  Theor. Chem. Acc., 120, 215, 2008


    Deriv               =              1
    GGA                 =           TRUE
    Meta                =           TRUE

    Exchange Hybrid     =           TRUE
    MP2 Hybrid          =          FALSE

   => Exchange Functionals <=

    1.0000   XC_HYB_MGGA_X_M06_2X

   => Exact (HF) Exchange <=

    0.5400               HF 

   => Correlation Functionals <=

    1.0000   XC_MGGA_C_M06_2X

   => Molecular Quadrature <=

    Radial Scheme          =       TREUTLER
    Pruning Scheme         =           FLAT
    Nuclear Scheme         =       TREUTLER

    BS radius alpha        =              1
    Pruning alpha          =              1
    Radial Points          =             75
    Spherical Points       =            302
    Total Points           =          90600
    Total Blocks           =            752
    Max Points             =            256
    Max Functions          =            138

   => Loading Basis Set <=

    Name: (AUG-CC-PVTZ AUX)
    Role: JKFIT
    Keyword: DF_BASIS_SCF
    atoms 1-2 entry C          line   162 file /home/akrom/software/anaconda3/envs/ffpenv/share/psi4/basis/aug-cc-pvtz-jkfit.gbs 
    atoms 3-4 entry H          line    70 file /home/akrom/software/anaconda3/envs/ffpenv/share/psi4/basis/aug-cc-pvtz-jkfit.gbs 

  ==> Pre-Iterations <==

   -------------------------------------------------------
[...]

   @DF-RKS iter SAD:   -76.54049007933153   -7.65405e+01   0.00000e+00 
   @DF-RKS iter   1:   -77.19593171421904   -6.55442e-01   6.71922e-03 DIIS
   @DF-RKS iter   2:   -77.25039454266931   -5.44628e-02   4.87939e-03 DIIS
   @DF-RKS iter   3:   -77.32252072328261   -7.21262e-02   2.48952e-04 DIIS
   @DF-RKS iter   4:   -77.32271994021595   -1.99217e-04   3.90225e-05 DIIS
   @DF-RKS iter   5:   -77.32271761581762    2.32440e-06   4.95668e-05 DIIS
   @DF-RKS iter   6:   -77.32272469519525   -7.07938e-06   1.22506e-06 DIIS
   @DF-RKS iter   7:   -77.32272469998667   -4.79142e-09   1.41185e-07 DIIS
   @DF-RKS iter   8:   -77.32272470005128   -6.46168e-11   1.95218e-08 DIIS
   @DF-RKS iter   9:   -77.32272470005275   -1.46372e-12   2.20712e-09 DIIS
  Energy and wave function converged.


  ==> Post-Iterations <==

    Orbital Energies [Eh]
    ---------------------

    Doubly Occupied:                                                      

       1A1   -10.558836     2A1   -10.556495     3A1    -0.846789  
       4A1    -0.648008     5A1    -0.563476     1B2    -0.353628  
       1B1    -0.353628  

    Virtual:                                                              

       6A1     0.002877     7A1     0.010076     2B1     0.036582  
       2B2     0.036582     3B2     0.053182     3B1     0.053182  
       8A1     0.063397     9A1     0.078624     4B1     0.103615  
       4B2     0.103615    10A1     0.106558    11A1     0.159340  
      12A1     0.207746    13A1     0.209419     5B2     0.214845  
       5B1     0.214845     1A2     0.235374    14A1     0.235374  
      15A1     0.308971     6B1     0.310847     6B2     0.310847  
      16A1     0.323201     2A2     0.337013    17A1     0.337013  
      18A1     0.341061     7B1     0.348162     7B2     0.348162  
       8B2     0.402016     8B1     0.402016    19A1     0.443538  
      20A1     0.501211     9B2     0.503879     9B1     0.503879  
      21A1     0.547469    10B1     0.712871    10B2     0.712871  
      22A1     0.772716    23A1     0.775222    24A1     0.784777  
       3A2     0.784777    11B2     0.828692    11B1     0.828692  
      25A1     0.866081    26A1     0.875067     4A2     0.875067  
      27A1     0.911701     5A2     0.911701    12B1     0.912325  
      12B2     0.912325    13B2     0.914610    13B1     0.914610  
      28A1     0.919203    29A1     1.019084    14B2     1.045343  
      14B1     1.045343    30A1     1.064999     6A2     1.064999  
      31A1     1.078885    15B1     1.156795    15B2     1.156795  
      32A1     1.161288    16B2     1.249374    16B1     1.249374  
      17B2     1.423679    17B1     1.423679    33A1     1.471036  
       7A2     1.471039    18B1     1.596542    18B2     1.596542  
      34A1     1.600078    19B2     1.710110    19B1     1.710110  
      35A1     1.756703    36A1     1.828937    37A1     1.829351  
       8A2     1.829358    38A1     1.926591    39A1     2.004577  
      20B1     2.139348    20B2     2.139348    21B2     2.514081  
      21B1     2.514081    40A1     2.536097    41A1     2.715607  
      42A1     2.835422     9A2     2.879828    43A1     2.879861  
      22B1     2.914916    22B2     2.914916    23B2     2.995916  
      23B1     2.995916    24B2     3.069017    24B1     3.069017  
      10A2     3.143234    44A1     3.143257    11A2     3.256416  
      45A1     3.256436    46A1     3.274190    25B1     3.373716  
      25B2     3.373716    47A1     3.401513    26B2     3.463503  
      26B1     3.463503    27B1     3.534212    27B2     3.534212  
      48A1     3.543500    12A2     3.750422    49A1     3.750456  
      50A1     3.808712    13A2     3.808785    51A1     3.966520  
      52A1     4.267930    53A1     4.267936    14A2     4.267983  
      28B2     4.379894    28B1     4.379894    29B2     4.390527  
      29B1     4.390527    30B1     4.618761    30B2     4.618761  
      54A1     4.888332    55A1     4.961997    31B1     5.366564  
      31B2     5.366564    56A1     5.721914    57A1     6.185594  
      32B1     6.269764    32B2     6.269764    58A1     6.380189  
      59A1    12.790571    60A1    18.034285  

    Final Occupation by Irrep:
             A1    A2    B1    B2 
    DOCC [     5,    0,    1,    1 ]

  @DF-RKS Final Energy:   -77.32272470005275

   => Energetics <=

    Nuclear Repulsion Energy =             24.3232393838559098
    One-Electron Energy =                -150.9911773762573830
    Two-Electron Energy =                  54.8622600863568763
    DFT Exchange-Correlation Energy =      -5.5170467940081345
    Empirical Dispersion Energy =           0.0000000000000000
    VV10 Nonlocal Energy =                  0.0000000000000000
    Total Energy =                        -77.3227247000527314

Computation Completed


Properties will be evaluated at   0.000000,   0.000000,   0.000000 [a0]

Properties computed using the SCF density matrix

  Nuclear Dipole Moment: [e a0]
     X:     0.0034      Y:     0.0000      Z:     0.0000

  Electronic Dipole Moment: [e a0]
     X:    -0.0017      Y:     0.0000      Z:     0.0000

  Dipole Moment: [e a0]
     X:     0.0017      Y:     0.0000      Z:     0.0000     Total:     0.0017

  Dipole Moment: [D]
     X:     0.0042      Y:     0.0000      Z:     0.0000     Total:     0.0042


*** tstop() called on atlantis at Tue Apr 19 02:12:13 2022
Module time:
	user time   =       9.51 seconds =       0.16 minutes
	system time =       0.01 seconds =       0.00 minutes
	total time  =         10 seconds =       0.17 minutes
Total time:
	user time   =     143.50 seconds =       2.39 minutes
	system time =       0.42 seconds =       0.01 minutes
	total time  =        145 seconds =       2.42 minutes

*** tstart() called on atlantis
*** at Tue Apr 19 02:12:13 2022


         ------------------------------------------------------------
                                   SCF GRAD                          
                          Rob Parrish, Justin Turney,                
                       Andy Simmonett, and Alex Sokolov              
         ------------------------------------------------------------

  ==> Geometry <==

    Molecular point group: c2v
    Full point group: C_inf_v

    Geometry (in Angstrom), charge = 0, multiplicity = 1:

       Center              X                  Y                   Z               Mass       
    ------------   -----------------  -----------------  -----------------  -----------------
         C           -0.614610333491     0.000000000000     0.000000000000    12.000000000000
         C            0.614309666509     0.000000000000     0.000000000000    12.000000000000
         H           -1.687440004874     0.000000000000     0.000000000000     1.007825032230
         H            1.691019995126     0.000000000000     0.000000000000     1.007825032230

  Nuclear repulsion =   24.323239383855910

  ==> Basis Set <==

  Basis Set: AUG-CC-PVTZ
    Blend: AUG-CC-PVTZ
    Number of shells: 46
    Number of basis function: 138
    Number of Cartesian functions: 160
    Spherical Harmonics?: true
    Max angular momentum: 3

  ==> DFJKGrad: Density-Fitted SCF Gradients <==

    Gradient:                    1
    J tasked:                  Yes
    K tasked:                  Yes
    wK tasked:                  No
    OpenMP threads:              1
    Integrals threads:           1
    Memory [MiB]:              375
    Schwarz Cutoff:          0E+00
    Fitting Condition:       1E-10

   => Auxiliary Basis Set <=

  Basis Set: (AUG-CC-PVTZ AUX)
    Blend: AUG-CC-PVTZ-JKFIT
    Number of shells: 88
    Number of basis function: 300
    Number of Cartesian functions: 372
    Spherical Harmonics?: true
    Max angular momentum: 4

  ==> DFT Potential <==

   => Composite Functional: M06-2X <= 

    Hybrid M06-2X Meta-GGA XC Functional

    Y. Zhao and D. G. Truhlar,  Theor. Chem. Acc., 120, 215, 2008


    Deriv               =              1
    GGA                 =           TRUE
    Meta                =           TRUE

    Exchange Hybrid     =           TRUE
    MP2 Hybrid          =          FALSE

   => Exchange Functionals <=

    1.0000   XC_HYB_MGGA_X_M06_2X

   => Exact (HF) Exchange <=

    0.5400               HF 

   => Correlation Functionals <=

    1.0000   XC_MGGA_C_M06_2X

   => Molecular Quadrature <=

    Radial Scheme          =       TREUTLER
    Pruning Scheme         =           FLAT
    Nuclear Scheme         =       TREUTLER

    BS radius alpha        =              1
    Pruning alpha          =              1
    Radial Points          =             75
    Spherical Points       =            302
    Total Points           =          90600
    Total Blocks           =            752
    Max Points             =            256
    Max Functions          =            138


  -Total Gradient:
     Atom            X                  Y                   Z
    ------   -----------------  -----------------  -----------------
       1       -0.061923623474     0.000000000000     0.000000000000
       2        0.059095069458     0.000000000000     0.000000000000
       3       -0.007058107629     0.000000000000     0.000000000000
       4        0.009886163777     0.000000000000     0.000000000000


*** tstop() called on atlantis at Tue Apr 19 02:12:15 2022
Module time:
	user time   =       1.96 seconds =       0.03 minutes
	system time =       0.00 seconds =       0.00 minutes
	total time  =          2 seconds =       0.03 minutes
Total time:
	user time   =     145.46 seconds =       2.42 minutes
	system time =       0.42 seconds =       0.01 minutes
	total time  =        147 seconds =       2.45 minutes

         ----------------------------------------------------------
                                   FINDIF
                     R. A. King and Jonathon Misiewicz
         ---------------------------------------------------------

  Computing second-derivative from gradients using projected, 
  symmetry-adapted, cartesian coordinates.

  12 gradients passed in, including the reference geometry.
  Generating complete list of displacements from unique ones.

    Operation 3 takes plus displacements of irrep B1g to minus ones.
    Operation 2 takes plus displacements of irrep B2g to minus ones.
    Operation 3 takes plus displacements of irrep B1u to minus ones.
    Operation 2 takes plus displacements of irrep B2u to minus ones.
    Operation 2 takes plus displacements of irrep B3u to minus ones.

-------------------------------------------------------------


  ==> Harmonic Vibrational Analysis <==

  non-mass-weighted Hessian:       Symmetric? True   Hermitian? True   Lin Dep Dim?  3 (0)
  projection of translations (True) and rotations (False) removed 3 degrees of freedom (5)
  total projector:                 Symmetric? True   Hermitian? True   Lin Dep Dim?  3 (3)
  mass-weighted Hessian:           Symmetric? True   Hermitian? True   Lin Dep Dim?  3 (0)
  pre-proj  low-frequency mode:    0.0000i [cm^-1]
  pre-proj  low-frequency mode:    0.0000i [cm^-1]
  pre-proj  low-frequency mode:    0.0000  [cm^-1]
  pre-proj  low-frequency mode:  310.0136  [cm^-1]
  pre-proj  low-frequency mode:  310.0138  [cm^-1]
  pre-proj  all modes:['0.0000i' '0.0000i' '0.0000' '310.0136' '310.0138' '742.4200' '742.4203'
 '836.9161' '836.9164' '1911.6318' '3310.6885' '3402.9139']
  projected mass-weighted Hessian: Symmetric? True   Hermitian? True   Lin Dep Dim?  3 (3)
  post-proj low-frequency mode:    0.0001i [cm^-1] (TR)
  post-proj low-frequency mode:    0.0000i [cm^-1] (TR)
  post-proj low-frequency mode:    0.0000  [cm^-1] (TR)
  post-proj low-frequency mode:  310.0136  [cm^-1] (V)
  post-proj low-frequency mode:  310.0138  [cm^-1] (V)
  post-proj  all modes:['0.0001i' '0.0000i' '0.0000' '310.0136' '310.0138' '742.4200' '742.4203'
 '836.9161' '836.9164' '1911.6318' '3310.6885' '3402.9139']

  Note that "Vibration"s include 2 un-projected rotation-like modes.
  Vibration                       4                   5                   6           
  Freq [cm^-1]                 310.0136            310.0138            742.4200       
  Irrep                          B1g                 B2g                 B2g          
  Reduced mass [u]              2.0799              2.0799              1.6813        
  Force const [mDyne/A]         0.1178              0.1178              0.5460        
  Turning point v=0 [a0]        0.4321              0.4321              0.3106        
  RMS dev v=0 [a0 u^1/2]        0.4407              0.4407              0.2848        
  Char temp [K]                446.0405            446.0408           1068.1771       
  ----------------------------------------------------------------------------------
      1   C                0.00  0.22  0.00   -0.00 -0.00  0.22    0.00 -0.00 -0.18   
      2   C                0.00 -0.22 -0.00   -0.00  0.00 -0.22    0.00  0.00  0.18   
      3   H                0.00  0.67  0.00   -0.00 -0.00  0.67    0.00  0.00  0.69   
      4   H                0.00 -0.67 -0.00   -0.00  0.00 -0.67   -0.00 -0.00 -0.69   

  Vibration                       7                   8                   9           
  Freq [cm^-1]                 742.4203            836.9161            836.9164       
  Irrep                          B1g                 B2u                 B1u          
  Reduced mass [u]              1.6813              1.0848              1.0848        
  Force const [mDyne/A]         0.5460              0.4477              0.4477        
  Turning point v=0 [a0]        0.3106              0.3642              0.3642        
  RMS dev v=0 [a0 u^1/2]        0.2848              0.2682              0.2682        
  Char temp [K]               1068.1775           1204.1359           1204.1363       
  ----------------------------------------------------------------------------------
      1   C               -0.00 -0.18  0.00   -0.00 -0.06 -0.00    0.00  0.00 -0.06   
      2   C               -0.00  0.18 -0.00   -0.00 -0.06 -0.00    0.00  0.00 -0.06   
      3   H               -0.00  0.69 -0.00   -0.00  0.70  0.00    0.00 -0.00  0.70   
      4   H               -0.00 -0.69  0.00   -0.00  0.70  0.00    0.00 -0.00  0.70   

  Vibration                       10                  11                  12          
  Freq [cm^-1]                1911.6318           3310.6885           3402.9139       
  Irrep                           Ag                 B3u                  Ag          
  Reduced mass [u]              4.0254              1.0848              1.2090        
  Force const [mDyne/A]         8.6669              7.0056              8.2484        
  Turning point v=0 [a0]        0.1251              0.1831              0.1711        
  RMS dev v=0 [a0 u^1/2]        0.1775              0.1348              0.1330        
  Char temp [K]               2750.4126           4763.3437           4896.0354       
  ----------------------------------------------------------------------------------
      1   C                0.37  0.00  0.00   -0.06  0.00 -0.00   -0.10  0.00  0.00   
      2   C               -0.37 -0.00 -0.00   -0.06 -0.00  0.00    0.10 -0.00 -0.00   
      3   H                0.60 -0.00 -0.00    0.70 -0.00  0.00    0.70 -0.00 -0.00   
      4   H               -0.60  0.00  0.00    0.70  0.00 -0.00   -0.70  0.00  0.00   

  ==> Thermochemistry Components <==

  Entropy, S
    Electronic S            0.000 [cal/(mol K)]        0.000 [J/(mol K)]       0.00000000 [mEh/K] (multiplicity = 1)
    Translational S        35.704 [cal/(mol K)]      149.387 [J/(mol K)]       0.05689862 [mEh/K] (mol. weight = 26.0157 [u], P = 101325.00 [Pa])
    Rotational S           10.952 [cal/(mol K)]       45.824 [J/(mol K)]       0.01745345 [mEh/K] (symmetry no. = 2)
    Vibrational S           3.604 [cal/(mol K)]       15.080 [J/(mol K)]       0.00574385 [mEh/K]
  Total S                  50.261 [cal/(mol K)]      210.292 [J/(mol K)]       0.08009592 [mEh/K]
  Correction S              0.000 [cal/(mol K)]        0.000 [J/(mol K)]       0.00000000 [mEh/K]

  Constant volume heat capacity, Cv
    Electronic Cv           0.000 [cal/(mol K)]        0.000 [J/(mol K)]       0.00000000 [mEh/K]
    Translational Cv        2.981 [cal/(mol K)]       12.472 [J/(mol K)]       0.00475022 [mEh/K]
    Rotational Cv           1.987 [cal/(mol K)]        8.314 [J/(mol K)]       0.00316681 [mEh/K]
    Vibrational Cv          6.010 [cal/(mol K)]       25.147 [J/(mol K)]       0.00957782 [mEh/K]
  Total Cv                 10.978 [cal/(mol K)]       45.933 [J/(mol K)]       0.01749484 [mEh/K]
  Correction Cv             0.000 [cal/(mol K)]        0.000 [J/(mol K)]       0.00000000 [mEh/K]

  Constant pressure heat capacity, Cp
    Electronic Cp           0.000 [cal/(mol K)]        0.000 [J/(mol K)]       0.00000000 [mEh/K]
    Translational Cp        4.968 [cal/(mol K)]       20.786 [J/(mol K)]       0.00791703 [mEh/K]
    Rotational Cp           1.987 [cal/(mol K)]        8.314 [J/(mol K)]       0.00316681 [mEh/K]
    Vibrational Cp          6.010 [cal/(mol K)]       25.147 [J/(mol K)]       0.00957782 [mEh/K]
  Total Cp                 12.965 [cal/(mol K)]       54.247 [J/(mol K)]       0.02066165 [mEh/K]
  Correction Cp             0.000 [cal/(mol K)]        0.000 [J/(mol K)]       0.00000000 [mEh/K]

  ==> Thermochemistry Energy Analysis <==

  Raw electronic energy, E0
  Total E0, Electronic energy at well bottom at 0 [K]                  -77.32272989 [Eh]

  Zero-point energy, ZPE_vib = Sum_i nu_i / 2
    Electronic ZPE          0.000 [kcal/mol]        0.000 [kJ/mol]       0.00000000 [Eh]
    Translational ZPE       0.000 [kcal/mol]        0.000 [kJ/mol]       0.00000000 [Eh]
    Rotational ZPE          0.000 [kcal/mol]        0.000 [kJ/mol]       0.00000000 [Eh]
    Vibrational ZPE        17.732 [kcal/mol]       74.192 [kJ/mol]       0.02825824 [Eh]        6201.967 [cm^-1]
  Correction ZPE           17.732 [kcal/mol]       74.192 [kJ/mol]       0.02825824 [Eh]        6201.967 [cm^-1]
  Total ZPE, Electronic energy at 0 [K]                                -77.29447165 [Eh]

  Thermal Energy, E (includes ZPE)
    Electronic E            0.000 [kcal/mol]        0.000 [kJ/mol]       0.00000000 [Eh]
    Translational E         0.889 [kcal/mol]        3.718 [kJ/mol]       0.00141628 [Eh]
    Rotational E            0.592 [kcal/mol]        2.479 [kJ/mol]       0.00094418 [Eh]
    Vibrational E          18.452 [kcal/mol]       77.203 [kJ/mol]       0.02940493 [Eh]
  Correction E             19.933 [kcal/mol]       83.400 [kJ/mol]       0.03176539 [Eh]
  Total E, Electronic energy at  298.15 [K]                            -77.29096450 [Eh]

  Enthalpy, H_trans = E_trans + k_B * T
    Electronic H            0.000 [kcal/mol]        0.000 [kJ/mol]       0.00000000 [Eh]
    Translational H         1.481 [kcal/mol]        6.197 [kJ/mol]       0.00236046 [Eh]
    Rotational H            0.592 [kcal/mol]        2.479 [kJ/mol]       0.00094418 [Eh]
    Vibrational H          18.452 [kcal/mol]       77.203 [kJ/mol]       0.02940493 [Eh]
  Correction H             20.526 [kcal/mol]       85.879 [kJ/mol]       0.03270957 [Eh]
  Total H, Enthalpy at  298.15 [K]                                     -77.29002032 [Eh]

  Gibbs free energy, G = H - T * S
    Electronic G            0.000 [kcal/mol]        0.000 [kJ/mol]       0.00000000 [Eh]
    Translational G        -9.164 [kcal/mol]      -38.342 [kJ/mol]      -0.01460386 [Eh]
    Rotational G           -2.673 [kcal/mol]      -11.183 [kJ/mol]      -0.00425956 [Eh]
    Vibrational G          17.377 [kcal/mol]       72.706 [kJ/mol]       0.02769240 [Eh]
  Correction G              5.540 [kcal/mol]       23.180 [kJ/mol]       0.00882897 [Eh]
  Total G, Free enthalpy at  298.15 [K]                                -77.31390091 [Eh]

    Psi4 stopped on: Tuesday, 19 April 2022 02:12AM
    Psi4 wall time for execution: 0:02:26.19

*** Psi4 exiting successfully. Buy a developer a beer!
