
    -----------------------------------------------------------------------
          Psi4: An Open-Source Ab Initio Electronic Structure Package
                               Psi4 1.3.2 release

                         Git: Rev {HEAD} ecbda83 


    R. M. Parrish, L. A. Burns, D. G. A. Smith, A. C. Simmonett,
    A. E. DePrince III, E. G. Hohenstein, U. Bozkaya, A. Yu. Sokolov,
    R. Di Remigio, R. M. Richard, J. F. Gonthier, A. M. James,
    H. R. McAlexander, A. Kumar, M. Saitow, X. Wang, B. P. Pritchard,
    P. Verma, H. F. Schaefer III, K. Patkowski, R. A. King, E. F. Valeev,
    F. A. Evangelista, J. M. Turney, T. D. Crawford, and C. D. Sherrill,
    J. Chem. Theory Comput. 13(7) pp 3185--3197 (2017).
    (doi: 10.1021/acs.jctc.7b00174)


                         Additional Contributions by
    P. Kraus, H. Kruse, M. H. Lechner, M. C. Schieber, R. A. Shaw,
    A. Alenaizan, R. Galvelis, Z. L. Glick, S. Lehtola, and J. P. Misiewicz

    -----------------------------------------------------------------------


    Psi4 started on: Thursday, 21 April 2022 01:36AM

    Process ID: 22857
    Host:       atlantis
    PSIDATADIR: /home/akrom/software/anaconda3/envs/ffpenv/share/psi4
    Memory:     500.0 MiB
    Threads:    1
    
  ==> Input File <==

--------------------------------------------------------------------------
set basis  cc-pVTZ
molecule {
0 1
   C        0.32153        0.81326        0.00000
   C       -0.86505       -0.12817        0.00000
   C        0.54353       -0.68508        0.00000
   H        0.53795        1.36069       -0.92039
   H        0.53795        1.36069        0.92039
   H       -1.44742       -0.21449        0.92034
   H       -1.44742       -0.21449       -0.92034
   H        0.90937       -1.14629       -0.92037
   H        0.90937       -1.14629        0.92037
}
energy('scf')
frequencies('scf')
--------------------------------------------------------------------------

*** tstart() called on atlantis
*** at Thu Apr 21 01:36:59 2022

   => Loading Basis Set <=

    Name: CC-PVTZ
    Role: ORBITAL
    Keyword: BASIS
    atoms 1-3 entry C          line   186 file /home/akrom/software/anaconda3/envs/ffpenv/share/psi4/basis/cc-pvtz.gbs 
    atoms 4-9 entry H          line    23 file /home/akrom/software/anaconda3/envs/ffpenv/share/psi4/basis/cc-pvtz.gbs 


         ---------------------------------------------------------
                                   SCF
               by Justin Turney, Rob Parrish, Andy Simmonett
                          and Daniel G. A. Smith
                              RHF Reference
                        1 Threads,    500 MiB Core
         ---------------------------------------------------------

  ==> Geometry <==

    Molecular point group: cs
    Full point group: Cs

    Geometry (in Angstrom), charge = 0, multiplicity = 1:

       Center              X                  Y                   Z               Mass       
    ------------   -----------------  -----------------  -----------------  -----------------
         C            0.321531939855     0.813261460475     0.000000000000    12.000000000000
         C           -0.865048060145    -0.128168539525     0.000000000000    12.000000000000
         C            0.543531939855    -0.685078539525     0.000000000000    12.000000000000
         H            0.537951939855     1.360691460475    -0.920390000000     1.007825032230
         H            0.537951939855     1.360691460475     0.920390000000     1.007825032230
         H           -1.447418060145    -0.214488539525     0.920340000000     1.007825032230
         H           -1.447418060145    -0.214488539525    -0.920340000000     1.007825032230
         H            0.909371939855    -1.146288539525    -0.920370000000     1.007825032230
         H            0.909371939855    -1.146288539525     0.920370000000     1.007825032230

  Running in cs symmetry.

  Rotational constants: A =      0.66472  B =      0.66470  C =      0.41647 [cm^-1]
  Rotational constants: A =  19927.70596  B =  19927.20236  C =  12485.44714 [MHz]
  Nuclear repulsion =   75.281464809014025

  Charge       = 0
  Multiplicity = 1
  Electrons    = 24
  Nalpha       = 12
  Nbeta        = 12

  ==> Algorithm <==

  SCF Algorithm Type is DF.
  DIIS enabled.
  MOM disabled.
  Fractional occupation disabled.
  Guess Type is SAD.
  Energy threshold   = 1.00e-06
  Density threshold  = 1.00e-06
  Integral threshold = 0.00e+00

  ==> Primary Basis <==

  Basis Set: CC-PVTZ
    Blend: CC-PVTZ
    Number of shells: 66
    Number of basis function: 174
    Number of Cartesian functions: 195
    Spherical Harmonics?: true
    Max angular momentum: 3

   => Loading Basis Set <=

    Name: (CC-PVTZ AUX)
    Role: JKFIT
    Keyword: DF_BASIS_SCF
    atoms 1-3 entry C          line   125 file /home/akrom/software/anaconda3/envs/ffpenv/share/psi4/basis/cc-pvtz-jkfit.gbs 
    atoms 4-9 entry H          line    51 file /home/akrom/software/anaconda3/envs/ffpenv/share/psi4/basis/cc-pvtz-jkfit.gbs 

  ==> Pre-Iterations <==

   -------------------------------------------------------
    Irrep   Nso     Nmo     Nalpha   Nbeta   Ndocc  Nsocc
   -------------------------------------------------------
     A'       102     102       0       0       0       0
     A"        72      72       0       0       0       0
   -------------------------------------------------------
    Total     174     174      12      12      12       0
   -------------------------------------------------------

  ==> Integral Setup <==

  DFHelper Memory: AOs need 0.102 GiB; user supplied 0.366 GiB. Using in-core AOs.

  ==> MemDFJK: Density-Fitted J/K Matrices <==

    J tasked:                   Yes
    K tasked:                   Yes
    wK tasked:                   No
    OpenMP threads:               1
    Memory [MiB]:               375
    Algorithm:                 Core
    Schwarz Cutoff:           1E-12
    Mask sparsity (%):       0.0000
    Fitting Condition:        1E-10

   => Auxiliary Basis Set <=

  Basis Set: (CC-PVTZ AUX)
    Blend: CC-PVTZ-JKFIT
    Number of shells: 135
    Number of basis function: 417
    Number of Cartesian functions: 498
    Spherical Harmonics?: true
    Max angular momentum: 4

  Minimum eigenvalue in the overlap matrix is 6.9054665632E-04.
  Using Symmetric Orthogonalization.

  SCF Guess: Superposition of Atomic Densities via on-the-fly atomic UHF.

  ==> Iterations <==

                           Total Energy        Delta E     RMS |[F,P]|

   @DF-RHF iter SAD:  -116.69024927547780   -1.16690e+02   0.00000e+00 
   @DF-RHF iter   1:  -117.00120007236579   -3.10951e-01   3.22961e-03 DIIS
   @DF-RHF iter   2:  -117.07884709548058   -7.76470e-02   1.58258e-03 DIIS
   @DF-RHF iter   3:  -117.09833816279797   -1.94911e-02   2.69141e-04 DIIS
   @DF-RHF iter   4:  -117.09940323160068   -1.06507e-03   3.43785e-05 DIIS
   @DF-RHF iter   5:  -117.09942882188002   -2.55903e-05   7.81911e-06 DIIS
   @DF-RHF iter   6:  -117.09943019134104   -1.36946e-06   1.35011e-06 DIIS
   @DF-RHF iter   7:  -117.09943023759912   -4.62581e-08   2.13920e-07 DIIS
  Energy and wave function converged.


  ==> Post-Iterations <==

    Orbital Energies [Eh]
    ---------------------

    Doubly Occupied:                                                      

       1Ap   -11.227235     2Ap   -11.226260     3Ap   -11.226255  
       4Ap    -1.124545     5Ap    -0.813840     6Ap    -0.813835  
       1App   -0.662642     7Ap    -0.621734     2App   -0.510052  
       3App   -0.510036     8Ap    -0.417109     9Ap    -0.417101  

    Virtual:                                                              

      10Ap     0.151003     4App    0.168899    11Ap     0.181753  
      12Ap     0.181755     5App    0.247219     6App    0.247228  
      13Ap     0.283100    14Ap     0.330215    15Ap     0.330217  
      16Ap     0.335821    17Ap     0.433920    18Ap     0.433932  
       7App    0.440451     8App    0.514363     9App    0.514407  
      19Ap     0.563069    10App    0.581567    20Ap     0.593144  
      21Ap     0.622318    22Ap     0.622330    23Ap     0.630263  
      11App    0.689761    12App    0.689765    24Ap     0.693046  
      25Ap     0.693054    26Ap     0.833814    27Ap     0.833823  
      13App    0.917069    28Ap     0.979958    14App    1.006698  
      15App    1.006714    29Ap     1.109459    30Ap     1.109484  
      16App    1.161228    17App    1.176210    18App    1.176241  
      31Ap     1.220197    32Ap     1.220200    33Ap     1.248539  
      34Ap     1.294238    19App    1.302710    35Ap     1.355349  
      36Ap     1.355366    20App    1.364379    21App    1.364399  
      37Ap     1.452177    38Ap     1.480109    39Ap     1.480116  
      22App    1.484961    23App    1.545522    24App    1.545525  
      40Ap     1.570096    41Ap     1.662692    42Ap     1.662702  
      25App    1.744213    26App    1.744265    43Ap     1.789571  
      44Ap     1.798595    45Ap     1.798600    27App    1.858888  
      28App    2.458449    46Ap     2.526459    47Ap     2.526474  
      48Ap     2.530254    29App    2.593717    49Ap     2.649477  
      50Ap     2.683030    51Ap     2.683038    30App    2.766088  
      31App    2.766154    52Ap     2.966692    53Ap     2.966717  
      32App    2.985157    33App    2.985173    54Ap     3.030809  
      55Ap     3.039316    56Ap     3.068754    57Ap     3.068764  
      34App    3.184403    35App    3.184423    36App    3.194306  
      58Ap     3.227813    59Ap     3.282275    37App    3.322449  
      38App    3.322458    39App    3.369174    60Ap     3.395566  
      61Ap     3.395599    40App    3.437089    62Ap     3.453691  
      63Ap     3.453703    41App    3.467694    42App    3.467697  
      64Ap     3.597483    43App    3.619870    44App    3.619906  
      65Ap     3.643335    66Ap     3.691586    67Ap     3.691632  
      45App    3.701070    46App    3.789971    47App    3.841100  
      68Ap     3.893626    48App    3.954526    49App    3.954575  
      69Ap     3.998041    70Ap     3.998092    50App    4.004777  
      51App    4.039576    52App    4.039599    71Ap     4.066626  
      72Ap     4.066635    73Ap     4.165624    74Ap     4.226721  
      53App    4.244754    54App    4.244777    75Ap     4.267041  
      76Ap     4.267075    77Ap     4.394296    78Ap     4.394316  
      55App    4.461472    56App    4.461485    79Ap     4.495388  
      80Ap     4.500298    81Ap     4.500307    57App    4.517012  
      82Ap     4.563322    83Ap     4.580984    84Ap     4.581017  
      58App    4.732983    59App    4.732990    85Ap     4.775906  
      86Ap     4.775934    87Ap     4.898424    60App    4.929073  
      88Ap     4.979857    89Ap     4.979873    61App    5.222486  
      90Ap     5.300298    62App    5.301377    63App    5.301391  
      64App    5.418071    91Ap     5.435046    65App    5.495947  
      66App    5.496017    92Ap     5.509576    93Ap     5.509650  
      94Ap     5.513707    67App    5.646518    95Ap     5.709712  
      96Ap     5.804017    97Ap     5.804023    98Ap     5.926501  
      99Ap     5.926518    68App    6.178550    69App    6.202357  
      70App    6.202451    71App    6.359083    72App    6.359105  
     100Ap    11.449232   101Ap    13.624492   102Ap    13.624664  

    Final Occupation by Irrep:
             Ap   App 
    DOCC [     9,    3 ]

  @DF-RHF Final Energy:  -117.09943023759912

   => Energetics <=

    Nuclear Repulsion Energy =             75.2814648090140253
    One-Electron Energy =                -305.6205435042527938
    Two-Electron Energy =                 113.2396484576396318
    Total Energy =                       -117.0994302375991225

Computation Completed


Properties will be evaluated at   0.000000,   0.000000,   0.000000 [a0]

Properties computed using the SCF density matrix

  Nuclear Dipole Moment: [e a0]
     X:    -0.0002      Y:    -0.0002      Z:     0.0000

  Electronic Dipole Moment: [e a0]
     X:     0.0002      Y:     0.0001      Z:     0.0000

  Dipole Moment: [e a0]
     X:    -0.0000      Y:    -0.0000      Z:     0.0000     Total:     0.0000

  Dipole Moment: [D]
     X:    -0.0001      Y:    -0.0001      Z:     0.0000     Total:     0.0001


*** tstop() called on atlantis at Thu Apr 21 01:37:01 2022
Module time:
	user time   =       1.31 seconds =       0.02 minutes
	system time =       0.02 seconds =       0.00 minutes
	total time  =          2 seconds =       0.03 minutes
Total time:
	user time   =       1.31 seconds =       0.02 minutes
	system time =       0.02 seconds =       0.00 minutes
	total time  =          2 seconds =       0.03 minutes
gradient() will perform analytic gradient computation.

*** tstart() called on atlantis
*** at Thu Apr 21 01:37:01 2022

   => Loading Basis Set <=

    Name: CC-PVTZ
    Role: ORBITAL
    Keyword: BASIS
    atoms 1-3 entry C          line   186 file /home/akrom/software/anaconda3/envs/ffpenv/share/psi4/basis/cc-pvtz.gbs 
    atoms 4-9 entry H          line    23 file /home/akrom/software/anaconda3/envs/ffpenv/share/psi4/basis/cc-pvtz.gbs 


         ---------------------------------------------------------
                                   SCF
               by Justin Turney, Rob Parrish, Andy Simmonett
                          and Daniel G. A. Smith
                              RHF Reference
                        1 Threads,    500 MiB Core
         ---------------------------------------------------------

  ==> Geometry <==

    Molecular point group: cs
    Full point group: Cs

    Geometry (in Angstrom), charge = 0, multiplicity = 1:

       Center              X                  Y                   Z               Mass       
    ------------   -----------------  -----------------  -----------------  -----------------
         C            0.321531939855     0.813261460475     0.000000000000    12.000000000000
         C           -0.865048060145    -0.128168539525     0.000000000000    12.000000000000
         C            0.543531939855    -0.685078539525     0.000000000000    12.000000000000
         H            0.537951939855     1.360691460475    -0.920390000000     1.007825032230
         H            0.537951939855     1.360691460475     0.920390000000     1.007825032230
         H           -1.447418060145    -0.214488539525     0.920340000000     1.007825032230
         H           -1.447418060145    -0.214488539525    -0.920340000000     1.007825032230
         H            0.909371939855    -1.146288539525    -0.920370000000     1.007825032230
         H            0.909371939855    -1.146288539525     0.920370000000     1.007825032230

  Running in cs symmetry.

  Rotational constants: A =      0.66472  B =      0.66470  C =      0.41647 [cm^-1]
  Rotational constants: A =  19927.70596  B =  19927.20236  C =  12485.44714 [MHz]
  Nuclear repulsion =   75.281464809014025

  Charge       = 0
  Multiplicity = 1
  Electrons    = 24
  Nalpha       = 12
  Nbeta        = 12

  ==> Algorithm <==

  SCF Algorithm Type is DF.
  DIIS enabled.
  MOM disabled.
  Fractional occupation disabled.
  Guess Type is SAD.
  Energy threshold   = 1.00e-08
  Density threshold  = 1.00e-08
  Integral threshold = 0.00e+00

  ==> Primary Basis <==

  Basis Set: CC-PVTZ
    Blend: CC-PVTZ
    Number of shells: 66
    Number of basis function: 174
    Number of Cartesian functions: 195
    Spherical Harmonics?: true
    Max angular momentum: 3

   => Loading Basis Set <=

    Name: (CC-PVTZ AUX)
    Role: JKFIT
    Keyword: DF_BASIS_SCF
    atoms 1-3 entry C          line   125 file /home/akrom/software/anaconda3/envs/ffpenv/share/psi4/basis/cc-pvtz-jkfit.gbs 
    atoms 4-9 entry H          line    51 file /home/akrom/software/anaconda3/envs/ffpenv/share/psi4/basis/cc-pvtz-jkfit.gbs 

  ==> Pre-Iterations <==

   -------------------------------------------------------
    Irrep   Nso     Nmo     Nalpha   Nbeta   Ndocc  Nsocc
   -------------------------------------------------------
     A'       102     102       0       0       0       0
     A"        72      72       0       0       0       0
   -------------------------------------------------------
    Total     174     174      12      12      12       0
   -------------------------------------------------------

  ==> Integral Setup <==

  DFHelper Memory: AOs need 0.102 GiB; user supplied 0.366 GiB. Using in-core AOs.

  ==> MemDFJK: Density-Fitted J/K Matrices <==

    J tasked:                   Yes
    K tasked:                   Yes
    wK tasked:                   No
    OpenMP threads:               1
    Memory [MiB]:               375
    Algorithm:                 Core
    Schwarz Cutoff:           1E-12
    Mask sparsity (%):       0.0000
    Fitting Condition:        1E-10

   => Auxiliary Basis Set <=

  Basis Set: (CC-PVTZ AUX)
    Blend: CC-PVTZ-JKFIT
    Number of shells: 135
    Number of basis function: 417
    Number of Cartesian functions: 498
    Spherical Harmonics?: true
    Max angular momentum: 4

  Minimum eigenvalue in the overlap matrix is 6.9054665632E-04.
  Using Symmetric Orthogonalization.

  SCF Guess: Superposition of Atomic Densities via on-the-fly atomic UHF.

  ==> Iterations <==

                           Total Energy        Delta E     RMS |[F,P]|

   @DF-RHF iter SAD:  -116.69024927540805   -1.16690e+02   0.00000e+00 
   @DF-RHF iter   1:  -117.00120007229218   -3.10951e-01   3.22961e-03 DIIS
   @DF-RHF iter   2:  -117.07884709540626   -7.76470e-02   1.58258e-03 DIIS
   @DF-RHF iter   3:  -117.09833816272310   -1.94911e-02   2.69141e-04 DIIS
   @DF-RHF iter   4:  -117.09940323152621   -1.06507e-03   3.43785e-05 DIIS
   @DF-RHF iter   5:  -117.09942882180579   -2.55903e-05   7.81911e-06 DIIS
   @DF-RHF iter   6:  -117.09943019126638   -1.36946e-06   1.35011e-06 DIIS
   @DF-RHF iter   7:  -117.09943023752454   -4.62582e-08   2.13920e-07 DIIS
   @DF-RHF iter   8:  -117.09943023851952   -9.94973e-10   2.35268e-08 DIIS
   @DF-RHF iter   9:  -117.09943023853070   -1.11839e-11   4.42413e-09 DIIS
  Energy and wave function converged.


  ==> Post-Iterations <==

    Orbital Energies [Eh]
    ---------------------

    Doubly Occupied:                                                      

       1Ap   -11.227235     2Ap   -11.226259     3Ap   -11.226254  
       4Ap    -1.124544     5Ap    -0.813840     6Ap    -0.813835  
       1App   -0.662642     7Ap    -0.621734     2App   -0.510052  
       3App   -0.510036     8Ap    -0.417109     9Ap    -0.417101  

    Virtual:                                                              

      10Ap     0.151004     4App    0.168899    11Ap     0.181753  
      12Ap     0.181755     5App    0.247219     6App    0.247229  
      13Ap     0.283101    14Ap     0.330215    15Ap     0.330218  
      16Ap     0.335821    17Ap     0.433920    18Ap     0.433933  
       7App    0.440451     8App    0.514364     9App    0.514407  
      19Ap     0.563070    10App    0.581567    20Ap     0.593145  
      21Ap     0.622319    22Ap     0.622330    23Ap     0.630263  
      11App    0.689762    12App    0.689766    24Ap     0.693046  
      25Ap     0.693055    26Ap     0.833815    27Ap     0.833823  
      13App    0.917070    28Ap     0.979958    14App    1.006699  
      15App    1.006714    29Ap     1.109460    30Ap     1.109484  
      16App    1.161229    17App    1.176210    18App    1.176241  
      31Ap     1.220197    32Ap     1.220201    33Ap     1.248540  
      34Ap     1.294238    19App    1.302711    35Ap     1.355350  
      36Ap     1.355366    20App    1.364379    21App    1.364399  
      37Ap     1.452178    38Ap     1.480109    39Ap     1.480116  
      22App    1.484962    23App    1.545523    24App    1.545526  
      40Ap     1.570097    41Ap     1.662693    42Ap     1.662702  
      25App    1.744214    26App    1.744265    43Ap     1.789571  
      44Ap     1.798595    45Ap     1.798600    27App    1.858888  
      28App    2.458449    46Ap     2.526460    47Ap     2.526475  
      48Ap     2.530254    29App    2.593717    49Ap     2.649478  
      50Ap     2.683031    51Ap     2.683039    30App    2.766089  
      31App    2.766154    52Ap     2.966693    53Ap     2.966718  
      32App    2.985157    33App    2.985174    54Ap     3.030810  
      55Ap     3.039317    56Ap     3.068755    57Ap     3.068765  
      34App    3.184404    35App    3.184424    36App    3.194307  
      58Ap     3.227813    59Ap     3.282275    37App    3.322450  
      38App    3.322459    39App    3.369174    60Ap     3.395567  
      61Ap     3.395600    40App    3.437089    62Ap     3.453691  
      63Ap     3.453704    41App    3.467694    42App    3.467698  
      64Ap     3.597483    43App    3.619870    44App    3.619907  
      65Ap     3.643335    66Ap     3.691586    67Ap     3.691632  
      45App    3.701071    46App    3.789971    47App    3.841101  
      68Ap     3.893627    48App    3.954526    49App    3.954575  
      69Ap     3.998041    70Ap     3.998092    50App    4.004777  
      51App    4.039576    52App    4.039599    71Ap     4.066627  
      72Ap     4.066635    73Ap     4.165625    74Ap     4.226721  
      53App    4.244755    54App    4.244777    75Ap     4.267041  
      76Ap     4.267075    77Ap     4.394296    78Ap     4.394317  
      55App    4.461472    56App    4.461486    79Ap     4.495388  
      80Ap     4.500298    81Ap     4.500307    57App    4.517013  
      82Ap     4.563322    83Ap     4.580985    84Ap     4.581017  
      58App    4.732984    59App    4.732991    85Ap     4.775906  
      86Ap     4.775935    87Ap     4.898425    60App    4.929074  
      88Ap     4.979858    89Ap     4.979874    61App    5.222487  
      90Ap     5.300299    62App    5.301378    63App    5.301392  
      64App    5.418071    91Ap     5.435047    65App    5.495948  
      66App    5.496017    92Ap     5.509576    93Ap     5.509651  
      94Ap     5.513707    67App    5.646519    95Ap     5.709713  
      96Ap     5.804017    97Ap     5.804023    98Ap     5.926501  
      99Ap     5.926518    68App    6.178551    69App    6.202358  
      70App    6.202452    71App    6.359084    72App    6.359106  
     100Ap    11.449233   101Ap    13.624493   102Ap    13.624665  

    Final Occupation by Irrep:
             Ap   App 
    DOCC [     9,    3 ]

  @DF-RHF Final Energy:  -117.09943023853070

   => Energetics <=

    Nuclear Repulsion Energy =             75.2814648090140253
    One-Electron Energy =                -305.6205086902299399
    Two-Electron Energy =                 113.2396136426851996
    Total Energy =                       -117.0994302385307009

Computation Completed


Properties will be evaluated at   0.000000,   0.000000,   0.000000 [a0]

Properties computed using the SCF density matrix

  Nuclear Dipole Moment: [e a0]
     X:    -0.0002      Y:    -0.0002      Z:     0.0000

  Electronic Dipole Moment: [e a0]
     X:     0.0002      Y:     0.0001      Z:     0.0000

  Dipole Moment: [e a0]
     X:    -0.0000      Y:    -0.0000      Z:     0.0000     Total:     0.0000

  Dipole Moment: [D]
     X:    -0.0001      Y:    -0.0001      Z:     0.0000     Total:     0.0001


*** tstop() called on atlantis at Thu Apr 21 01:37:02 2022
Module time:
	user time   =       1.33 seconds =       0.02 minutes
	system time =       0.02 seconds =       0.00 minutes
	total time  =          1 seconds =       0.02 minutes
Total time:
	user time   =       2.65 seconds =       0.04 minutes
	system time =       0.04 seconds =       0.00 minutes
	total time  =          3 seconds =       0.05 minutes

*** tstart() called on atlantis
*** at Thu Apr 21 01:37:02 2022


         ------------------------------------------------------------
                                   SCF GRAD                          
                          Rob Parrish, Justin Turney,                
                       Andy Simmonett, and Alex Sokolov              
         ------------------------------------------------------------

  ==> Geometry <==

    Molecular point group: cs
    Full point group: Cs

    Geometry (in Angstrom), charge = 0, multiplicity = 1:

       Center              X                  Y                   Z               Mass       
    ------------   -----------------  -----------------  -----------------  -----------------
         C            0.321531939855     0.813261460475     0.000000000000    12.000000000000
         C           -0.865048060145    -0.128168539525     0.000000000000    12.000000000000
         C            0.543531939855    -0.685078539525     0.000000000000    12.000000000000
         H            0.537951939855     1.360691460475    -0.920390000000     1.007825032230
         H            0.537951939855     1.360691460475     0.920390000000     1.007825032230
         H           -1.447418060145    -0.214488539525     0.920340000000     1.007825032230
         H           -1.447418060145    -0.214488539525    -0.920340000000     1.007825032230
         H            0.909371939855    -1.146288539525    -0.920370000000     1.007825032230
         H            0.909371939855    -1.146288539525     0.920370000000     1.007825032230

  Nuclear repulsion =   75.281464809014025

  ==> Basis Set <==

  Basis Set: CC-PVTZ
    Blend: CC-PVTZ
    Number of shells: 66
    Number of basis function: 174
    Number of Cartesian functions: 195
    Spherical Harmonics?: true
    Max angular momentum: 3

  ==> DFJKGrad: Density-Fitted SCF Gradients <==

    Gradient:                    1
    J tasked:                  Yes
    K tasked:                  Yes
    wK tasked:                  No
    OpenMP threads:              1
    Integrals threads:           1
    Memory [MiB]:              375
    Schwarz Cutoff:          0E+00
    Fitting Condition:       1E-10

   => Auxiliary Basis Set <=

  Basis Set: (CC-PVTZ AUX)
    Blend: CC-PVTZ-JKFIT
    Number of shells: 135
    Number of basis function: 417
    Number of Cartesian functions: 498
    Spherical Harmonics?: true
    Max angular momentum: 4


  -Total Gradient:
     Atom            X                  Y                   Z
    ------   -----------------  -----------------  -----------------
       1        0.001497398207     0.003788087433     0.000000000000
       2       -0.004001661777    -0.000588690522     0.000000000000
       3        0.002530474008    -0.003176890995     0.000000000000
       4        0.002489252928     0.006300007688    -0.011966066489
       5        0.002489252928     0.006300007688     0.011966066489
       6       -0.006710853535    -0.000997473604     0.011955363794
       7       -0.006710853535    -0.000997473604    -0.011955363794
       8        0.004208495389    -0.005313787043    -0.011961902094
       9        0.004208495389    -0.005313787043     0.011961902094


*** tstop() called on atlantis at Thu Apr 21 01:37:04 2022
Module time:
	user time   =       1.91 seconds =       0.03 minutes
	system time =       0.06 seconds =       0.00 minutes
	total time  =          2 seconds =       0.03 minutes
Total time:
	user time   =       4.56 seconds =       0.08 minutes
	system time =       0.10 seconds =       0.00 minutes
	total time  =          5 seconds =       0.08 minutes

  Based on options and gradient (rms=6.62E-03), recommend projecting translations and projecting rotations.
hessian() will perform analytic frequency computation.

*** tstart() called on atlantis
*** at Thu Apr 21 01:37:04 2022

   => Loading Basis Set <=

    Name: CC-PVTZ
    Role: ORBITAL
    Keyword: BASIS
    atoms 1-3 entry C          line   186 file /home/akrom/software/anaconda3/envs/ffpenv/share/psi4/basis/cc-pvtz.gbs 
    atoms 4-9 entry H          line    23 file /home/akrom/software/anaconda3/envs/ffpenv/share/psi4/basis/cc-pvtz.gbs 


         ---------------------------------------------------------
                                   SCF
               by Justin Turney, Rob Parrish, Andy Simmonett
                          and Daniel G. A. Smith
                              RHF Reference
                        1 Threads,    500 MiB Core
         ---------------------------------------------------------

  ==> Geometry <==

    Molecular point group: cs
    Full point group: Cs

    Geometry (in Angstrom), charge = 0, multiplicity = 1:

       Center              X                  Y                   Z               Mass       
    ------------   -----------------  -----------------  -----------------  -----------------
         C            0.321531939855     0.813261460475     0.000000000000    12.000000000000
         C           -0.865048060145    -0.128168539525     0.000000000000    12.000000000000
         C            0.543531939855    -0.685078539525     0.000000000000    12.000000000000
         H            0.537951939855     1.360691460475    -0.920390000000     1.007825032230
         H            0.537951939855     1.360691460475     0.920390000000     1.007825032230
         H           -1.447418060145    -0.214488539525     0.920340000000     1.007825032230
         H           -1.447418060145    -0.214488539525    -0.920340000000     1.007825032230
         H            0.909371939855    -1.146288539525    -0.920370000000     1.007825032230
         H            0.909371939855    -1.146288539525     0.920370000000     1.007825032230

  Running in cs symmetry.

  Rotational constants: A =      0.66472  B =      0.66470  C =      0.41647 [cm^-1]
  Rotational constants: A =  19927.70596  B =  19927.20236  C =  12485.44714 [MHz]
  Nuclear repulsion =   75.281464809014025

  Charge       = 0
  Multiplicity = 1
  Electrons    = 24
  Nalpha       = 12
  Nbeta        = 12

  ==> Algorithm <==

  SCF Algorithm Type is DF.
  DIIS enabled.
  MOM disabled.
  Fractional occupation disabled.
  Guess Type is SAD.
  Energy threshold   = 1.00e-08
  Density threshold  = 1.00e-08
  Integral threshold = 0.00e+00

  ==> Primary Basis <==

  Basis Set: CC-PVTZ
    Blend: CC-PVTZ
    Number of shells: 66
    Number of basis function: 174
    Number of Cartesian functions: 195
    Spherical Harmonics?: true
    Max angular momentum: 3

   => Loading Basis Set <=

    Name: (CC-PVTZ AUX)
    Role: JKFIT
    Keyword: DF_BASIS_SCF
    atoms 1-3 entry C          line   125 file /home/akrom/software/anaconda3/envs/ffpenv/share/psi4/basis/cc-pvtz-jkfit.gbs 
    atoms 4-9 entry H          line    51 file /home/akrom/software/anaconda3/envs/ffpenv/share/psi4/basis/cc-pvtz-jkfit.gbs 

  ==> Pre-Iterations <==

   -------------------------------------------------------
    Irrep   Nso     Nmo     Nalpha   Nbeta   Ndocc  Nsocc
   -------------------------------------------------------
     A'       102     102       0       0       0       0
     A"        72      72       0       0       0       0
   -------------------------------------------------------
    Total     174     174      12      12      12       0
   -------------------------------------------------------

  ==> Integral Setup <==

  DFHelper Memory: AOs need 0.102 GiB; user supplied 0.366 GiB. Using in-core AOs.

  ==> MemDFJK: Density-Fitted J/K Matrices <==

    J tasked:                   Yes
    K tasked:                   Yes
    wK tasked:                   No
    OpenMP threads:               1
    Memory [MiB]:               375
    Algorithm:                 Core
    Schwarz Cutoff:           1E-12
    Mask sparsity (%):       0.0000
    Fitting Condition:        1E-10

   => Auxiliary Basis Set <=

  Basis Set: (CC-PVTZ AUX)
    Blend: CC-PVTZ-JKFIT
    Number of shells: 135
    Number of basis function: 417
    Number of Cartesian functions: 498
    Spherical Harmonics?: true
    Max angular momentum: 4

  Minimum eigenvalue in the overlap matrix is 6.9054665632E-04.
  Using Symmetric Orthogonalization.

  SCF Guess: Superposition of Atomic Densities via on-the-fly atomic UHF.

  ==> Iterations <==

                           Total Energy        Delta E     RMS |[F,P]|

   @DF-RHF iter SAD:  -116.69024927540805   -1.16690e+02   0.00000e+00 
   @DF-RHF iter   1:  -117.00120007229239   -3.10951e-01   3.22961e-03 DIIS
   @DF-RHF iter   2:  -117.07884709540626   -7.76470e-02   1.58258e-03 DIIS
   @DF-RHF iter   3:  -117.09833816272328   -1.94911e-02   2.69141e-04 DIIS
   @DF-RHF iter   4:  -117.09940323152631   -1.06507e-03   3.43785e-05 DIIS
   @DF-RHF iter   5:  -117.09942882180579   -2.55903e-05   7.81911e-06 DIIS
   @DF-RHF iter   6:  -117.09943019126598   -1.36946e-06   1.35011e-06 DIIS
   @DF-RHF iter   7:  -117.09943023752470   -4.62587e-08   2.13920e-07 DIIS
   @DF-RHF iter   8:  -117.09943023851955   -9.94845e-10   2.35268e-08 DIIS
   @DF-RHF iter   9:  -117.09943023853072   -1.11697e-11   4.42413e-09 DIIS
  Energy and wave function converged.


  ==> Post-Iterations <==

    Orbital Energies [Eh]
    ---------------------

    Doubly Occupied:                                                      

       1Ap   -11.227235     2Ap   -11.226259     3Ap   -11.226254  
       4Ap    -1.124544     5Ap    -0.813840     6Ap    -0.813835  
       1App   -0.662642     7Ap    -0.621734     2App   -0.510052  
       3App   -0.510036     8Ap    -0.417109     9Ap    -0.417101  

    Virtual:                                                              

      10Ap     0.151004     4App    0.168899    11Ap     0.181753  
      12Ap     0.181755     5App    0.247219     6App    0.247229  
      13Ap     0.283101    14Ap     0.330215    15Ap     0.330218  
      16Ap     0.335821    17Ap     0.433920    18Ap     0.433933  
       7App    0.440451     8App    0.514364     9App    0.514407  
      19Ap     0.563070    10App    0.581567    20Ap     0.593145  
      21Ap     0.622319    22Ap     0.622330    23Ap     0.630263  
      11App    0.689762    12App    0.689766    24Ap     0.693046  
      25Ap     0.693055    26Ap     0.833815    27Ap     0.833823  
      13App    0.917070    28Ap     0.979958    14App    1.006699  
      15App    1.006714    29Ap     1.109460    30Ap     1.109484  
      16App    1.161229    17App    1.176210    18App    1.176241  
      31Ap     1.220197    32Ap     1.220201    33Ap     1.248540  
      34Ap     1.294238    19App    1.302711    35Ap     1.355350  
      36Ap     1.355366    20App    1.364379    21App    1.364399  
      37Ap     1.452178    38Ap     1.480109    39Ap     1.480116  
      22App    1.484962    23App    1.545523    24App    1.545526  
      40Ap     1.570097    41Ap     1.662693    42Ap     1.662702  
      25App    1.744214    26App    1.744265    43Ap     1.789571  
      44Ap     1.798595    45Ap     1.798600    27App    1.858888  
      28App    2.458449    46Ap     2.526460    47Ap     2.526475  
      48Ap     2.530254    29App    2.593717    49Ap     2.649478  
      50Ap     2.683031    51Ap     2.683039    30App    2.766089  
      31App    2.766154    52Ap     2.966693    53Ap     2.966718  
      32App    2.985157    33App    2.985174    54Ap     3.030810  
      55Ap     3.039317    56Ap     3.068755    57Ap     3.068765  
      34App    3.184404    35App    3.184424    36App    3.194307  
      58Ap     3.227813    59Ap     3.282275    37App    3.322450  
      38App    3.322459    39App    3.369174    60Ap     3.395567  
      61Ap     3.395600    40App    3.437089    62Ap     3.453691  
      63Ap     3.453704    41App    3.467694    42App    3.467698  
      64Ap     3.597483    43App    3.619870    44App    3.619907  
      65Ap     3.643335    66Ap     3.691586    67Ap     3.691632  
      45App    3.701071    46App    3.789971    47App    3.841101  
      68Ap     3.893627    48App    3.954526    49App    3.954575  
      69Ap     3.998041    70Ap     3.998092    50App    4.004777  
      51App    4.039576    52App    4.039599    71Ap     4.066627  
      72Ap     4.066635    73Ap     4.165625    74Ap     4.226721  
      53App    4.244755    54App    4.244777    75Ap     4.267041  
      76Ap     4.267075    77Ap     4.394296    78Ap     4.394317  
      55App    4.461472    56App    4.461486    79Ap     4.495388  
      80Ap     4.500298    81Ap     4.500307    57App    4.517013  
      82Ap     4.563322    83Ap     4.580985    84Ap     4.581017  
      58App    4.732984    59App    4.732991    85Ap     4.775906  
      86Ap     4.775935    87Ap     4.898425    60App    4.929074  
      88Ap     4.979858    89Ap     4.979874    61App    5.222487  
      90Ap     5.300299    62App    5.301378    63App    5.301392  
      64App    5.418071    91Ap     5.435047    65App    5.495948  
      66App    5.496017    92Ap     5.509576    93Ap     5.509651  
      94Ap     5.513707    67App    5.646519    95Ap     5.709713  
      96Ap     5.804017    97Ap     5.804023    98Ap     5.926501  
      99Ap     5.926518    68App    6.178551    69App    6.202358  
      70App    6.202452    71App    6.359084    72App    6.359106  
     100Ap    11.449233   101Ap    13.624493   102Ap    13.624665  

    Final Occupation by Irrep:
             Ap   App 
    DOCC [     9,    3 ]

  @DF-RHF Final Energy:  -117.09943023853072

   => Energetics <=

    Nuclear Repulsion Energy =             75.2814648090140253
    One-Electron Energy =                -305.6205086902301673
    Two-Electron Energy =                 113.2396136426854127
    Total Energy =                       -117.0994302385307151

Computation Completed


Properties will be evaluated at   0.000000,   0.000000,   0.000000 [a0]

Properties computed using the SCF density matrix

  Nuclear Dipole Moment: [e a0]
     X:    -0.0002      Y:    -0.0002      Z:     0.0000

  Electronic Dipole Moment: [e a0]
     X:     0.0002      Y:     0.0001      Z:     0.0000

  Dipole Moment: [e a0]
     X:    -0.0000      Y:    -0.0000      Z:     0.0000     Total:     0.0000

  Dipole Moment: [D]
     X:    -0.0001      Y:    -0.0001      Z:     0.0000     Total:     0.0001


*** tstop() called on atlantis at Thu Apr 21 01:37:05 2022
Module time:
	user time   =       1.34 seconds =       0.02 minutes
	system time =       0.01 seconds =       0.00 minutes
	total time  =          1 seconds =       0.02 minutes
Total time:
	user time   =       5.90 seconds =       0.10 minutes
	system time =       0.11 seconds =       0.00 minutes
	total time  =          6 seconds =       0.10 minutes

*** tstart() called on atlantis
*** at Thu Apr 21 01:37:05 2022


         ------------------------------------------------------------
                                   SCF HESS                          
                          Rob Parrish, Justin Turney,                
                       Andy Simmonett, and Alex Sokolov              
         ------------------------------------------------------------

  ==> Geometry <==

    Molecular point group: cs
    Full point group: Cs

    Geometry (in Angstrom), charge = 0, multiplicity = 1:

       Center              X                  Y                   Z               Mass       
    ------------   -----------------  -----------------  -----------------  -----------------
         C            0.321531939855     0.813261460475     0.000000000000    12.000000000000
         C           -0.865048060145    -0.128168539525     0.000000000000    12.000000000000
         C            0.543531939855    -0.685078539525     0.000000000000    12.000000000000
         H            0.537951939855     1.360691460475    -0.920390000000     1.007825032230
         H            0.537951939855     1.360691460475     0.920390000000     1.007825032230
         H           -1.447418060145    -0.214488539525     0.920340000000     1.007825032230
         H           -1.447418060145    -0.214488539525    -0.920340000000     1.007825032230
         H            0.909371939855    -1.146288539525    -0.920370000000     1.007825032230
         H            0.909371939855    -1.146288539525     0.920370000000     1.007825032230

  Nuclear repulsion =   75.281464809014025

  ==> Basis Set <==

  Basis Set: CC-PVTZ
    Blend: CC-PVTZ
    Number of shells: 66
    Number of basis function: 174
    Number of Cartesian functions: 195
    Spherical Harmonics?: true
    Max angular momentum: 3

  ==> DFJKGrad: Density-Fitted SCF Gradients <==

    Gradient:                    2
    J tasked:                  Yes
    K tasked:                  Yes
    wK tasked:                  No
    OpenMP threads:              1
    Integrals threads:           1
    Memory [MiB]:              375
    Schwarz Cutoff:          0E+00
    Fitting Condition:       1E-10

   => Auxiliary Basis Set <=

  Basis Set: (CC-PVTZ AUX)
    Blend: CC-PVTZ-JKFIT
    Number of shells: 135
    Number of basis function: 417
    Number of Cartesian functions: 498
    Spherical Harmonics?: true
    Max angular momentum: 4

