
    -----------------------------------------------------------------------
          Psi4: An Open-Source Ab Initio Electronic Structure Package
                               Psi4 1.3.2 release

                         Git: Rev {HEAD} ecbda83 


    R. M. Parrish, L. A. Burns, D. G. A. Smith, A. C. Simmonett,
    A. E. DePrince III, E. G. Hohenstein, U. Bozkaya, A. Yu. Sokolov,
    R. Di Remigio, R. M. Richard, J. F. Gonthier, A. M. James,
    H. R. McAlexander, A. Kumar, M. Saitow, X. Wang, B. P. Pritchard,
    P. Verma, H. F. Schaefer III, K. Patkowski, R. A. King, E. F. Valeev,
    F. A. Evangelista, J. M. Turney, T. D. Crawford, and C. D. Sherrill,
    J. Chem. Theory Comput. 13(7) pp 3185--3197 (2017).
    (doi: 10.1021/acs.jctc.7b00174)


                         Additional Contributions by
    P. Kraus, H. Kruse, M. H. Lechner, M. C. Schieber, R. A. Shaw,
    A. Alenaizan, R. Galvelis, Z. L. Glick, S. Lehtola, and J. P. Misiewicz

    -----------------------------------------------------------------------


    Psi4 started on: Tuesday, 19 April 2022 12:37AM

    Process ID: 25627
    Host:       atlantis
    PSIDATADIR: /home/akrom/software/anaconda3/envs/ffpenv/share/psi4
    Memory:     500.0 MiB
    Threads:    1
    
  ==> Input File <==

--------------------------------------------------------------------------
set basis  6-31G
molecule {
0 1
   O        0.00000        0.00000        0.49152
   C        0.00000        0.00000       -0.65516
}
energy('m06-2x')
frequencies('m06-2x')
--------------------------------------------------------------------------

*** tstart() called on atlantis
*** at Tue Apr 19 00:37:16 2022

   => Loading Basis Set <=

    Name: 6-31G
    Role: ORBITAL
    Keyword: BASIS
    atoms 1 entry O          line   117 file /home/akrom/software/anaconda3/envs/ffpenv/share/psi4/basis/6-31g.gbs 
    atoms 2 entry C          line    87 file /home/akrom/software/anaconda3/envs/ffpenv/share/psi4/basis/6-31g.gbs 


         ---------------------------------------------------------
                                   SCF
               by Justin Turney, Rob Parrish, Andy Simmonett
                          and Daniel G. A. Smith
                              RKS Reference
                        1 Threads,    500 MiB Core
         ---------------------------------------------------------

  ==> Geometry <==

    Molecular point group: c2v
    Full point group: C_inf_v

    Geometry (in Angstrom), charge = 0, multiplicity = 1:

       Center              X                  Y                   Z               Mass       
    ------------   -----------------  -----------------  -----------------  -----------------
         O            0.000000000000     0.000000000000     0.491523556581    15.994914619570
         C            0.000000000000     0.000000000000    -0.655156443419    12.000000000000

  Running in c2v symmetry.

  Rotational constants: A = ************  B =      1.86994  C =      1.86994 [cm^-1]
  Rotational constants: A = ************  B =  56059.43274  C =  56059.43274 [MHz]
  Nuclear repulsion =   22.151346593783796

  Charge       = 0
  Multiplicity = 1
  Electrons    = 14
  Nalpha       = 7
  Nbeta        = 7

  ==> Algorithm <==

  SCF Algorithm Type is DF.
  DIIS enabled.
  MOM disabled.
  Fractional occupation disabled.
  Guess Type is SAD.
  Energy threshold   = 1.00e-06
  Density threshold  = 1.00e-06
  Integral threshold = 0.00e+00

  ==> Primary Basis <==

  Basis Set: 6-31G
    Blend: 6-31G
    Number of shells: 10
    Number of basis function: 18
    Number of Cartesian functions: 18
    Spherical Harmonics?: false
    Max angular momentum: 1

  ==> DFT Potential <==

   => Composite Functional: M06-2X <= 

    Hybrid M06-2X Meta-GGA XC Functional

    Y. Zhao and D. G. Truhlar,  Theor. Chem. Acc., 120, 215, 2008


    Deriv               =              1
    GGA                 =           TRUE
    Meta                =           TRUE

    Exchange Hybrid     =           TRUE
    MP2 Hybrid          =          FALSE

   => Exchange Functionals <=

    1.0000   XC_HYB_MGGA_X_M06_2X

   => Exact (HF) Exchange <=

    0.5400               HF 

   => Correlation Functionals <=

    1.0000   XC_MGGA_C_M06_2X

   => Molecular Quadrature <=

    Radial Scheme          =       TREUTLER
    Pruning Scheme         =           FLAT
    Nuclear Scheme         =       TREUTLER

    BS radius alpha        =              1
    Pruning alpha          =              1
    Radial Points          =             75
    Spherical Points       =            302
    Total Points           =          42306
    Total Blocks           =            377
    Max Points             =            256
    Max Functions          =             18

   => Loading Basis Set <=

    Name: (6-31G AUX)
    Role: JKFIT
    Keyword: DF_BASIS_SCF
    atoms 1 entry O          line   221 file /home/akrom/software/anaconda3/envs/ffpenv/share/psi4/basis/cc-pvdz-jkfit.gbs 
    atoms 2 entry C          line   121 file /home/akrom/software/anaconda3/envs/ffpenv/share/psi4/basis/cc-pvdz-jkfit.gbs 

  ==> Pre-Iterations <==

   -------------------------------------------------------
    Irrep   Nso     Nmo     Nalpha   Nbeta   Ndocc  Nsocc
   -------------------------------------------------------
     A1        10      10       0       0       0       0
     A2         0       0       0       0       0       0
     B1         4       4       0       0       0       0
     B2         4       4       0       0       0       0
   -------------------------------------------------------
    Total      18      18       7       7       7       0
   -------------------------------------------------------

  ==> Integral Setup <==

  DFHelper Memory: AOs need 0.001 GiB; user supplied 0.313 GiB. Using in-core AOs.

  ==> MemDFJK: Density-Fitted J/K Matrices <==

    J tasked:                   Yes
    K tasked:                   Yes
    wK tasked:                   No
    OpenMP threads:               1
    Memory [MiB]:               320
    Algorithm:                 Core
    Schwarz Cutoff:           1E-12
    Mask sparsity (%):       0.0000
    Fitting Condition:        1E-10

   => Auxiliary Basis Set <=

  Basis Set: (6-31G AUX)
    Blend: CC-PVDZ-JKFIT
    Number of shells: 48
    Number of basis function: 162
    Number of Cartesian functions: 162
    Spherical Harmonics?: false
    Max angular momentum: 3

  Cached 100.0% of DFT collocation blocks in 0.053 [GiB].

  Minimum eigenvalue in the overlap matrix is 2.2846177072E-02.
  Using Symmetric Orthogonalization.

  SCF Guess: Superposition of Atomic Densities via on-the-fly atomic UHF.

  ==> Iterations <==

                           Total Energy        Delta E     RMS |[F,P]|

   @DF-RKS iter SAD:  -112.64275615561448   -1.12643e+02   0.00000e+00 
   @DF-RKS iter   1:  -113.17984675125048   -5.37091e-01   2.62624e-02 DIIS
   @DF-RKS iter   2:  -113.11572150386337    6.41252e-02   4.58729e-02 DIIS
   @DF-RKS iter   3:  -113.21467794029186   -9.89564e-02   2.48684e-03 DIIS
   @DF-RKS iter   4:  -113.21508827655276   -4.10336e-04   4.97046e-04 DIIS
   @DF-RKS iter   5:  -113.21510311901136   -1.48425e-05   9.30352e-05 DIIS
   @DF-RKS iter   6:  -113.21510352774324   -4.08732e-07   1.05343e-05 DIIS
   @DF-RKS iter   7:  -113.21510353389326   -6.15002e-09   4.06245e-07 DIIS
  Energy and wave function converged.


  ==> Post-Iterations <==

    Orbital Energies [Eh]
    ---------------------

    Doubly Occupied:                                                      

       1A1   -19.758612     2A1   -10.692047     3A1    -1.317361  
       4A1    -0.659824     1B2    -0.549250     1B1    -0.549250  
       5A1    -0.439381  

    Virtual:                                                              

       2B2     0.019485     2B1     0.019485     6A1     0.303078  
       3B2     0.564508     3B1     0.564508     7A1     0.635257  
       8A1     0.813395     9A1     0.962484     4B1     0.993910  
       4B2     0.993910    10A1     1.613355  

    Final Occupation by Irrep:
             A1    A2    B1    B2 
    DOCC [     5,    0,    1,    1 ]

  @DF-RKS Final Energy:  -113.21510353389326

   => Energetics <=

    Nuclear Repulsion Energy =             22.1513465937837957
    One-Electron Energy =                -197.2793657159037650
    Two-Electron Energy =                  68.5725637548321885
    DFT Exchange-Correlation Energy =      -6.6596481666054608
    Empirical Dispersion Energy =           0.0000000000000000
    VV10 Nonlocal Energy =                  0.0000000000000000
    Total Energy =                       -113.2151035338932559

Computation Completed


Properties will be evaluated at   0.000000,   0.000000,   0.000000 [a0]

Properties computed using the SCF density matrix

  Nuclear Dipole Moment: [e a0]
     X:     0.0000      Y:     0.0000      Z:     0.0024

  Electronic Dipole Moment: [e a0]
     X:     0.0000      Y:     0.0000      Z:    -0.0880

  Dipole Moment: [e a0]
     X:     0.0000      Y:     0.0000      Z:    -0.0857     Total:     0.0857

  Dipole Moment: [D]
     X:     0.0000      Y:     0.0000      Z:    -0.2177     Total:     0.2177


*** tstop() called on atlantis at Tue Apr 19 00:37:17 2022
Module time:
	user time   =       0.90 seconds =       0.01 minutes
	system time =       0.01 seconds =       0.00 minutes
	total time  =          1 seconds =       0.02 minutes
Total time:
	user time   =       0.90 seconds =       0.01 minutes
	system time =       0.01 seconds =       0.00 minutes
	total time  =          1 seconds =       0.02 minutes
gradient() will perform analytic gradient computation.

*** tstart() called on atlantis
*** at Tue Apr 19 00:37:17 2022

   => Loading Basis Set <=

    Name: 6-31G
    Role: ORBITAL
    Keyword: BASIS
    atoms 1 entry O          line   117 file /home/akrom/software/anaconda3/envs/ffpenv/share/psi4/basis/6-31g.gbs 
    atoms 2 entry C          line    87 file /home/akrom/software/anaconda3/envs/ffpenv/share/psi4/basis/6-31g.gbs 


         ---------------------------------------------------------
                                   SCF
               by Justin Turney, Rob Parrish, Andy Simmonett
                          and Daniel G. A. Smith
                              RKS Reference
                        1 Threads,    500 MiB Core
         ---------------------------------------------------------

  ==> Geometry <==

    Molecular point group: c2v
    Full point group: C_inf_v

    Geometry (in Angstrom), charge = 0, multiplicity = 1:

       Center              X                  Y                   Z               Mass       
    ------------   -----------------  -----------------  -----------------  -----------------
         O            0.000000000000     0.000000000000     0.491523556581    15.994914619570
         C            0.000000000000     0.000000000000    -0.655156443419    12.000000000000

  Running in c2v symmetry.

  Rotational constants: A = ************  B =      1.86994  C =      1.86994 [cm^-1]
  Rotational constants: A = ************  B =  56059.43274  C =  56059.43274 [MHz]
  Nuclear repulsion =   22.151346593783796

  Charge       = 0
  Multiplicity = 1
  Electrons    = 14
  Nalpha       = 7
  Nbeta        = 7

  ==> Algorithm <==

  SCF Algorithm Type is DF.
  DIIS enabled.
  MOM disabled.
  Fractional occupation disabled.
  Guess Type is SAD.
  Energy threshold   = 1.00e-08
  Density threshold  = 1.00e-08
  Integral threshold = 0.00e+00

  ==> Primary Basis <==

  Basis Set: 6-31G
    Blend: 6-31G
    Number of shells: 10
    Number of basis function: 18
    Number of Cartesian functions: 18
    Spherical Harmonics?: false
    Max angular momentum: 1

  ==> DFT Potential <==

   => Composite Functional: M06-2X <= 

    Hybrid M06-2X Meta-GGA XC Functional

    Y. Zhao and D. G. Truhlar,  Theor. Chem. Acc., 120, 215, 2008


    Deriv               =              1
    GGA                 =           TRUE
    Meta                =           TRUE

    Exchange Hybrid     =           TRUE
    MP2 Hybrid          =          FALSE

   => Exchange Functionals <=

    1.0000   XC_HYB_MGGA_X_M06_2X

   => Exact (HF) Exchange <=

    0.5400               HF 

   => Correlation Functionals <=

    1.0000   XC_MGGA_C_M06_2X

   => Molecular Quadrature <=

    Radial Scheme          =       TREUTLER
    Pruning Scheme         =           FLAT
    Nuclear Scheme         =       TREUTLER

    BS radius alpha        =              1
    Pruning alpha          =              1
    Radial Points          =             75
    Spherical Points       =            302
    Total Points           =          42306
    Total Blocks           =            377
    Max Points             =            256
    Max Functions          =             18

   => Loading Basis Set <=

    Name: (6-31G AUX)
    Role: JKFIT
    Keyword: DF_BASIS_SCF
    atoms 1 entry O          line   221 file /home/akrom/software/anaconda3/envs/ffpenv/share/psi4/basis/cc-pvdz-jkfit.gbs 
    atoms 2 entry C          line   121 file /home/akrom/software/anaconda3/envs/ffpenv/share/psi4/basis/cc-pvdz-jkfit.gbs 

  ==> Pre-Iterations <==

   -------------------------------------------------------
    Irrep   Nso     Nmo     Nalpha   Nbeta   Ndocc  Nsocc
   -------------------------------------------------------
     A1        10      10       0       0       0       0
     A2         0       0       0       0       0       0
     B1         4       4       0       0       0       0
     B2         4       4       0       0       0       0
   -------------------------------------------------------
    Total      18      18       7       7       7       0
   -------------------------------------------------------

  ==> Integral Setup <==

  DFHelper Memory: AOs need 0.001 GiB; user supplied 0.313 GiB. Using in-core AOs.

  ==> MemDFJK: Density-Fitted J/K Matrices <==

    J tasked:                   Yes
    K tasked:                   Yes
    wK tasked:                   No
    OpenMP threads:               1
    Memory [MiB]:               320
    Algorithm:                 Core
    Schwarz Cutoff:           1E-12
    Mask sparsity (%):       0.0000
    Fitting Condition:        1E-10

   => Auxiliary Basis Set <=

  Basis Set: (6-31G AUX)
    Blend: CC-PVDZ-JKFIT
    Number of shells: 48
    Number of basis function: 162
    Number of Cartesian functions: 162
    Spherical Harmonics?: false
    Max angular momentum: 3

  Cached 100.0% of DFT collocation blocks in 0.053 [GiB].

  Minimum eigenvalue in the overlap matrix is 2.2846177072E-02.
  Using Symmetric Orthogonalization.

  SCF Guess: Superposition of Atomic Densities via on-the-fly atomic UHF.

  ==> Iterations <==

                           Total Energy        Delta E     RMS |[F,P]|

   @DF-RKS iter SAD:  -112.64275615561448   -1.12643e+02   0.00000e+00 
   @DF-RKS iter   1:  -113.17984675125048   -5.37091e-01   2.62624e-02 DIIS
   @DF-RKS iter   2:  -113.11572150386337    6.41252e-02   4.58729e-02 DIIS
   @DF-RKS iter   3:  -113.21467794029186   -9.89564e-02   2.48684e-03 DIIS
   @DF-RKS iter   4:  -113.21508827655276   -4.10336e-04   4.97046e-04 DIIS
   @DF-RKS iter   5:  -113.21510311901136   -1.48425e-05   9.30352e-05 DIIS
   @DF-RKS iter   6:  -113.21510352774324   -4.08732e-07   1.05343e-05 DIIS
   @DF-RKS iter   7:  -113.21510353389326   -6.15002e-09   4.06245e-07 DIIS
   @DF-RKS iter   8:  -113.21510353390551   -1.22498e-11   1.48172e-08 DIIS
   @DF-RKS iter   9:  -113.21510353390549    1.42109e-14   2.91423e-09 DIIS
  Energy and wave function converged.


  ==> Post-Iterations <==

    Orbital Energies [Eh]
    ---------------------

    Doubly Occupied:                                                      

       1A1   -19.758612     2A1   -10.692048     3A1    -1.317361  
       4A1    -0.659825     1B2    -0.549251     1B1    -0.549251  
       5A1    -0.439381  

    Virtual:                                                              

       2B2     0.019485     2B1     0.019485     6A1     0.303078  
       3B2     0.564508     3B1     0.564508     7A1     0.635257  
       8A1     0.813395     9A1     0.962484     4B1     0.993910  
       4B2     0.993910    10A1     1.613355  

    Final Occupation by Irrep:
             A1    A2    B1    B2 
    DOCC [     5,    0,    1,    1 ]

  @DF-RKS Final Energy:  -113.21510353390549

   => Energetics <=

    Nuclear Repulsion Energy =             22.1513465937837957
    One-Electron Energy =                -197.2793649416708490
    Two-Electron Energy =                  68.5725628773868721
    DFT Exchange-Correlation Energy =      -6.6596480634053012
    Empirical Dispersion Energy =           0.0000000000000000
    VV10 Nonlocal Energy =                  0.0000000000000000
    Total Energy =                       -113.2151035339054914

Computation Completed


Properties will be evaluated at   0.000000,   0.000000,   0.000000 [a0]

Properties computed using the SCF density matrix

  Nuclear Dipole Moment: [e a0]
     X:     0.0000      Y:     0.0000      Z:     0.0024

  Electronic Dipole Moment: [e a0]
     X:     0.0000      Y:     0.0000      Z:    -0.0880

  Dipole Moment: [e a0]
     X:     0.0000      Y:     0.0000      Z:    -0.0857     Total:     0.0857

  Dipole Moment: [D]
     X:     0.0000      Y:     0.0000      Z:    -0.2177     Total:     0.2177


*** tstop() called on atlantis at Tue Apr 19 00:37:18 2022
Module time:
	user time   =       1.05 seconds =       0.02 minutes
	system time =       0.00 seconds =       0.00 minutes
	total time  =          1 seconds =       0.02 minutes
Total time:
	user time   =       1.96 seconds =       0.03 minutes
	system time =       0.01 seconds =       0.00 minutes
	total time  =          2 seconds =       0.03 minutes

*** tstart() called on atlantis
*** at Tue Apr 19 00:37:18 2022


         ------------------------------------------------------------
                                   SCF GRAD                          
                          Rob Parrish, Justin Turney,                
                       Andy Simmonett, and Alex Sokolov              
         ------------------------------------------------------------

  ==> Geometry <==

    Molecular point group: c2v
    Full point group: C_inf_v

    Geometry (in Angstrom), charge = 0, multiplicity = 1:

       Center              X                  Y                   Z               Mass       
    ------------   -----------------  -----------------  -----------------  -----------------
         O            0.000000000000     0.000000000000     0.491523556581    15.994914619570
         C            0.000000000000     0.000000000000    -0.655156443419    12.000000000000

  Nuclear repulsion =   22.151346593783796

  ==> Basis Set <==

  Basis Set: 6-31G
    Blend: 6-31G
    Number of shells: 10
    Number of basis function: 18
    Number of Cartesian functions: 18
    Spherical Harmonics?: false
    Max angular momentum: 1

  ==> DFJKGrad: Density-Fitted SCF Gradients <==

    Gradient:                    1
    J tasked:                  Yes
    K tasked:                  Yes
    wK tasked:                  No
    OpenMP threads:              1
    Integrals threads:           1
    Memory [MiB]:              375
    Schwarz Cutoff:          0E+00
    Fitting Condition:       1E-10

   => Auxiliary Basis Set <=

  Basis Set: (6-31G AUX)
    Blend: CC-PVDZ-JKFIT
    Number of shells: 48
    Number of basis function: 162
    Number of Cartesian functions: 162
    Spherical Harmonics?: false
    Max angular momentum: 3

  ==> DFT Potential <==

   => Composite Functional: M06-2X <= 

    Hybrid M06-2X Meta-GGA XC Functional

    Y. Zhao and D. G. Truhlar,  Theor. Chem. Acc., 120, 215, 2008


    Deriv               =              1
    GGA                 =           TRUE
    Meta                =           TRUE

    Exchange Hybrid     =           TRUE
    MP2 Hybrid          =          FALSE

   => Exchange Functionals <=

    1.0000   XC_HYB_MGGA_X_M06_2X

   => Exact (HF) Exchange <=

    0.5400               HF 

   => Correlation Functionals <=

    1.0000   XC_MGGA_C_M06_2X

   => Molecular Quadrature <=

    Radial Scheme          =       TREUTLER
    Pruning Scheme         =           FLAT
    Nuclear Scheme         =       TREUTLER

    BS radius alpha        =              1
    Pruning alpha          =              1
    Radial Points          =             75
    Spherical Points       =            302
    Total Points           =          42306
    Total Blocks           =            377
    Max Points             =            256
    Max Functions          =             18


  -Total Gradient:
     Atom            X                  Y                   Z
    ------   -----------------  -----------------  -----------------
       1       -0.000000000000    -0.000000000000    -0.003646875728
       2        0.000000000000    -0.000000000000     0.003660209510


*** tstop() called on atlantis at Tue Apr 19 00:37:18 2022
Module time:
	user time   =       0.17 seconds =       0.00 minutes
	system time =       0.00 seconds =       0.00 minutes
	total time  =          0 seconds =       0.00 minutes
Total time:
	user time   =       2.13 seconds =       0.04 minutes
	system time =       0.01 seconds =       0.00 minutes
	total time  =          2 seconds =       0.03 minutes

  Based on options and gradient (rms=2.11E-03), recommend projecting translations and projecting rotations.
hessian() will perform frequency computation by finite difference of analytic gradients.

         ----------------------------------------------------------
                                   FINDIF
                     R. A. King and Jonathon Misiewicz
         ---------------------------------------------------------

  Using finite-differences of gradients to determine vibrational frequencies and 
  normal modes.  Resulting frequencies are only valid at stationary points.
    Generating geometries for use with 3-point formula.
    Displacement size will be 5.00e-03.
    Number of atoms is 2.
    Number of irreps is 4.
    Number of SALCs is 1.
    Translations projected? 1. Rotations projected? 1.
    Index of SALCs per irrep:
     1 :  0 
     2 : 
     3 : 
     4 : 
    Number of SALCs per irrep:
     Irrep 1: 1
     Irrep 2: 0
     Irrep 3: 0
     Irrep 4: 0
    Number of geometries (including reference) is 3.
    Number of displacements per irrep:
      Irrep 1: 2
      Irrep 2: 0
      Irrep 3: 0
      Irrep 4: 0

  //>>>>>>>>>>>>>>>>>>>>>>>>>>>>>>>>>>>//
  //    Loading displacement 1 of 3    //
  //<<<<<<<<<<<<<<<<<<<<<<<<<<<<<<<<<<<//
gradient() will perform analytic gradient computation.

*** tstart() called on atlantis
*** at Tue Apr 19 00:37:19 2022

   => Loading Basis Set <=

    Name: 6-31G
    Role: ORBITAL
    Keyword: BASIS
    atoms 1 entry O          line   117 file /home/akrom/software/anaconda3/envs/ffpenv/share/psi4/basis/6-31g.gbs 
    atoms 2 entry C          line    87 file /home/akrom/software/anaconda3/envs/ffpenv/share/psi4/basis/6-31g.gbs 


         ---------------------------------------------------------
                                   SCF
               by Justin Turney, Rob Parrish, Andy Simmonett
                          and Daniel G. A. Smith
                              RKS Reference
                        1 Threads,    500 MiB Core
         ---------------------------------------------------------

  ==> Geometry <==

    Molecular point group: c2v
    Full point group: C_inf_v

    Geometry (in Angstrom), charge = 0, multiplicity = 1:

       Center              X                  Y                   Z               Mass       
    ------------   -----------------  -----------------  -----------------  -----------------
         O            0.000000000000     0.000000000000     0.491523556581    15.994914619570
         C            0.000000000000     0.000000000000    -0.655156443419    12.000000000000

  Running in c2v symmetry.

  Rotational constants: A = ************  B =      1.86994  C =      1.86994 [cm^-1]
  Rotational constants: A = ************  B =  56059.43274  C =  56059.43274 [MHz]
  Nuclear repulsion =   22.151346593783796

  Charge       = 0
  Multiplicity = 1
  Electrons    = 14
  Nalpha       = 7
  Nbeta        = 7

  ==> Algorithm <==

  SCF Algorithm Type is DF.
  DIIS enabled.
  MOM disabled.
  Fractional occupation disabled.
  Guess Type is SAD.
  Energy threshold   = 1.00e-08
  Density threshold  = 1.00e-08
  Integral threshold = 0.00e+00

  ==> Primary Basis <==

  Basis Set: 6-31G
    Blend: 6-31G
    Number of shells: 10
    Number of basis function: 18
    Number of Cartesian functions: 18
    Spherical Harmonics?: false
    Max angular momentum: 1

  ==> DFT Potential <==

   => Composite Functional: M06-2X <= 

    Hybrid M06-2X Meta-GGA XC Functional

    Y. Zhao and D. G. Truhlar,  Theor. Chem. Acc., 120, 215, 2008


    Deriv               =              1
    GGA                 =           TRUE
    Meta                =           TRUE

    Exchange Hybrid     =           TRUE
    MP2 Hybrid          =          FALSE

   => Exchange Functionals <=

    1.0000   XC_HYB_MGGA_X_M06_2X

   => Exact (HF) Exchange <=

    0.5400               HF 

   => Correlation Functionals <=

    1.0000   XC_MGGA_C_M06_2X

   => Molecular Quadrature <=

    Radial Scheme          =       TREUTLER
    Pruning Scheme         =           FLAT
    Nuclear Scheme         =       TREUTLER

    BS radius alpha        =              1
    Pruning alpha          =              1
    Radial Points          =             75
    Spherical Points       =            302
    Total Points           =          42306
    Total Blocks           =            377
    Max Points             =            256
    Max Functions          =             18

   => Loading Basis Set <=

    Name: (6-31G AUX)
    Role: JKFIT
    Keyword: DF_BASIS_SCF
    atoms 1 entry O          line   221 file /home/akrom/software/anaconda3/envs/ffpenv/share/psi4/basis/cc-pvdz-jkfit.gbs 
    atoms 2 entry C          line   121 file /home/akrom/software/anaconda3/envs/ffpenv/share/psi4/basis/cc-pvdz-jkfit.gbs 

  ==> Pre-Iterations <==

   -------------------------------------------------------
    Irrep   Nso     Nmo     Nalpha   Nbeta   Ndocc  Nsocc
   -------------------------------------------------------
     A1        10      10       0       0       0       0
     A2         0       0       0       0       0       0
     B1         4       4       0       0       0       0
     B2         4       4       0       0       0       0
   -------------------------------------------------------
    Total      18      18       7       7       7       0
   -------------------------------------------------------

  ==> Integral Setup <==

  DFHelper Memory: AOs need 0.001 GiB; user supplied 0.313 GiB. Using in-core AOs.

  ==> MemDFJK: Density-Fitted J/K Matrices <==

    J tasked:                   Yes
    K tasked:                   Yes
    wK tasked:                   No
    OpenMP threads:               1
    Memory [MiB]:               320
    Algorithm:                 Core
    Schwarz Cutoff:           1E-12
    Mask sparsity (%):       0.0000
    Fitting Condition:        1E-10

   => Auxiliary Basis Set <=

  Basis Set: (6-31G AUX)
    Blend: CC-PVDZ-JKFIT
    Number of shells: 48
    Number of basis function: 162
    Number of Cartesian functions: 162
    Spherical Harmonics?: false
    Max angular momentum: 3

  Cached 100.0% of DFT collocation blocks in 0.053 [GiB].

  Minimum eigenvalue in the overlap matrix is 2.2846177072E-02.
  Using Symmetric Orthogonalization.

  SCF Guess: Superposition of Atomic Densities via on-the-fly atomic UHF.

  ==> Iterations <==

                           Total Energy        Delta E     RMS |[F,P]|

   @DF-RKS iter SAD:  -112.64275615561448   -1.12643e+02   0.00000e+00 
   @DF-RKS iter   1:  -113.17984675125048   -5.37091e-01   2.62624e-02 DIIS
   @DF-RKS iter   2:  -113.11572150386337    6.41252e-02   4.58729e-02 DIIS
   @DF-RKS iter   3:  -113.21467794029186   -9.89564e-02   2.48684e-03 DIIS
   @DF-RKS iter   4:  -113.21508827655276   -4.10336e-04   4.97046e-04 DIIS
   @DF-RKS iter   5:  -113.21510311901136   -1.48425e-05   9.30352e-05 DIIS
   @DF-RKS iter   6:  -113.21510352774324   -4.08732e-07   1.05343e-05 DIIS
   @DF-RKS iter   7:  -113.21510353389326   -6.15002e-09   4.06245e-07 DIIS
   @DF-RKS iter   8:  -113.21510353390551   -1.22498e-11   1.48172e-08 DIIS
   @DF-RKS iter   9:  -113.21510353390549    1.42109e-14   2.91423e-09 DIIS
  Energy and wave function converged.


  ==> Post-Iterations <==

    Orbital Energies [Eh]
    ---------------------

    Doubly Occupied:                                                      

       1A1   -19.758612     2A1   -10.692048     3A1    -1.317361  
       4A1    -0.659825     1B2    -0.549251     1B1    -0.549251  
       5A1    -0.439381  

    Virtual:                                                              

       2B2     0.019485     2B1     0.019485     6A1     0.303078  
       3B2     0.564508     3B1     0.564508     7A1     0.635257  
       8A1     0.813395     9A1     0.962484     4B1     0.993910  
       4B2     0.993910    10A1     1.613355  

    Final Occupation by Irrep:
             A1    A2    B1    B2 
    DOCC [     5,    0,    1,    1 ]

  @DF-RKS Final Energy:  -113.21510353390549

   => Energetics <=

    Nuclear Repulsion Energy =             22.1513465937837957
    One-Electron Energy =                -197.2793649416708490
    Two-Electron Energy =                  68.5725628773868721
    DFT Exchange-Correlation Energy =      -6.6596480634053012
    Empirical Dispersion Energy =           0.0000000000000000
    VV10 Nonlocal Energy =                  0.0000000000000000
    Total Energy =                       -113.2151035339054914

Computation Completed


Properties will be evaluated at   0.000000,   0.000000,   0.000000 [a0]

Properties computed using the SCF density matrix

  Nuclear Dipole Moment: [e a0]
     X:     0.0000      Y:     0.0000      Z:     0.0024

  Electronic Dipole Moment: [e a0]
     X:     0.0000      Y:     0.0000      Z:    -0.0880

  Dipole Moment: [e a0]
     X:     0.0000      Y:     0.0000      Z:    -0.0857     Total:     0.0857

  Dipole Moment: [D]
     X:     0.0000      Y:     0.0000      Z:    -0.2177     Total:     0.2177


*** tstop() called on atlantis at Tue Apr 19 00:37:20 2022
Module time:
	user time   =       1.03 seconds =       0.02 minutes
	system time =       0.01 seconds =       0.00 minutes
	total time  =          1 seconds =       0.02 minutes
Total time:
	user time   =       3.44 seconds =       0.06 minutes
	system time =       0.02 seconds =       0.00 minutes
	total time  =          4 seconds =       0.07 minutes

*** tstart() called on atlantis
*** at Tue Apr 19 00:37:20 2022


         ------------------------------------------------------------
                                   SCF GRAD                          
                          Rob Parrish, Justin Turney,                
                       Andy Simmonett, and Alex Sokolov              
         ------------------------------------------------------------

  ==> Geometry <==

    Molecular point group: c2v
    Full point group: C_inf_v

    Geometry (in Angstrom), charge = 0, multiplicity = 1:

       Center              X                  Y                   Z               Mass       
    ------------   -----------------  -----------------  -----------------  -----------------
         O            0.000000000000     0.000000000000     0.491523556581    15.994914619570
         C            0.000000000000     0.000000000000    -0.655156443419    12.000000000000

  Nuclear repulsion =   22.151346593783796

  ==> Basis Set <==

  Basis Set: 6-31G
    Blend: 6-31G
    Number of shells: 10
    Number of basis function: 18
    Number of Cartesian functions: 18
    Spherical Harmonics?: false
    Max angular momentum: 1

  ==> DFJKGrad: Density-Fitted SCF Gradients <==

    Gradient:                    1
    J tasked:                  Yes
    K tasked:                  Yes
    wK tasked:                  No
    OpenMP threads:              1
    Integrals threads:           1
    Memory [MiB]:              375
    Schwarz Cutoff:          0E+00
    Fitting Condition:       1E-10

   => Auxiliary Basis Set <=

  Basis Set: (6-31G AUX)
    Blend: CC-PVDZ-JKFIT
    Number of shells: 48
    Number of basis function: 162
    Number of Cartesian functions: 162
    Spherical Harmonics?: false
    Max angular momentum: 3

  ==> DFT Potential <==

   => Composite Functional: M06-2X <= 

    Hybrid M06-2X Meta-GGA XC Functional

    Y. Zhao and D. G. Truhlar,  Theor. Chem. Acc., 120, 215, 2008


    Deriv               =              1
    GGA                 =           TRUE
    Meta                =           TRUE

    Exchange Hybrid     =           TRUE
    MP2 Hybrid          =          FALSE

   => Exchange Functionals <=

    1.0000   XC_HYB_MGGA_X_M06_2X

   => Exact (HF) Exchange <=

    0.5400               HF 

   => Correlation Functionals <=

    1.0000   XC_MGGA_C_M06_2X

   => Molecular Quadrature <=

    Radial Scheme          =       TREUTLER
    Pruning Scheme         =           FLAT
    Nuclear Scheme         =       TREUTLER

    BS radius alpha        =              1
    Pruning alpha          =              1
    Radial Points          =             75
    Spherical Points       =            302
    Total Points           =          42306
    Total Blocks           =            377
    Max Points             =            256
    Max Functions          =             18


  -Total Gradient:
     Atom            X                  Y                   Z
    ------   -----------------  -----------------  -----------------
       1       -0.000000000000    -0.000000000000    -0.003646875728
       2        0.000000000000    -0.000000000000     0.003660209510


*** tstop() called on atlantis at Tue Apr 19 00:37:20 2022
Module time:
	user time   =       0.18 seconds =       0.00 minutes
	system time =       0.00 seconds =       0.00 minutes
	total time  =          0 seconds =       0.00 minutes
Total time:
	user time   =       3.62 seconds =       0.06 minutes
	system time =       0.02 seconds =       0.00 minutes
	total time  =          4 seconds =       0.07 minutes

  //>>>>>>>>>>>>>>>>>>>>>>>>>>>>>>>>>>>//
  //    Loading displacement 2 of 3    //
  //<<<<<<<<<<<<<<<<<<<<<<<<<<<<<<<<<<<//
gradient() will perform analytic gradient computation.

*** tstart() called on atlantis
*** at Tue Apr 19 00:37:20 2022

   => Loading Basis Set <=

    Name: 6-31G
    Role: ORBITAL
    Keyword: BASIS
    atoms 1 entry O          line   117 file /home/akrom/software/anaconda3/envs/ffpenv/share/psi4/basis/6-31g.gbs 
    atoms 2 entry C          line    87 file /home/akrom/software/anaconda3/envs/ffpenv/share/psi4/basis/6-31g.gbs 


         ---------------------------------------------------------
                                   SCF
               by Justin Turney, Rob Parrish, Andy Simmonett
                          and Daniel G. A. Smith
                              RKS Reference
                        1 Threads,    500 MiB Core
         ---------------------------------------------------------

  ==> Geometry <==

    Molecular point group: c2v
    Full point group: C_inf_v

    Geometry (in Angstrom), charge = 0, multiplicity = 1:

       Center              X                  Y                   Z               Mass       
    ------------   -----------------  -----------------  -----------------  -----------------
         O            0.000000000000     0.000000000000     0.491090413658    15.994914619570
         C            0.000000000000     0.000000000000    -0.654579103079    12.000000000000

  Running in c2v symmetry.

  Rotational constants: A = ************  B =      1.87324  C =      1.87324 [cm^-1]
  Rotational constants: A = ************  B =  56158.36546  C =  56158.36546 [MHz]
  Nuclear repulsion =   22.170884134640527

  Charge       = 0
  Multiplicity = 1
  Electrons    = 14
  Nalpha       = 7
  Nbeta        = 7

  ==> Algorithm <==

  SCF Algorithm Type is DF.
  DIIS enabled.
  MOM disabled.
  Fractional occupation disabled.
  Guess Type is SAD.
  Energy threshold   = 1.00e-08
  Density threshold  = 1.00e-08
  Integral threshold = 0.00e+00

  ==> Primary Basis <==

  Basis Set: 6-31G
    Blend: 6-31G
    Number of shells: 10
    Number of basis function: 18
    Number of Cartesian functions: 18
    Spherical Harmonics?: false
    Max angular momentum: 1

  ==> DFT Potential <==

   => Composite Functional: M06-2X <= 

    Hybrid M06-2X Meta-GGA XC Functional

    Y. Zhao and D. G. Truhlar,  Theor. Chem. Acc., 120, 215, 2008


    Deriv               =              1
    GGA                 =           TRUE
    Meta                =           TRUE

    Exchange Hybrid     =           TRUE
    MP2 Hybrid          =          FALSE

   => Exchange Functionals <=

    1.0000   XC_HYB_MGGA_X_M06_2X

   => Exact (HF) Exchange <=

    0.5400               HF 

   => Correlation Functionals <=

    1.0000   XC_MGGA_C_M06_2X

   => Molecular Quadrature <=

    Radial Scheme          =       TREUTLER
    Pruning Scheme         =           FLAT
    Nuclear Scheme         =       TREUTLER

    BS radius alpha        =              1
    Pruning alpha          =              1
    Radial Points          =             75
    Spherical Points       =            302
    Total Points           =          42306
    Total Blocks           =            376
    Max Points             =            256
    Max Functions          =             18

   => Loading Basis Set <=

    Name: (6-31G AUX)
    Role: JKFIT
    Keyword: DF_BASIS_SCF
    atoms 1 entry O          line   221 file /home/akrom/software/anaconda3/envs/ffpenv/share/psi4/basis/cc-pvdz-jkfit.gbs 
    atoms 2 entry C          line   121 file /home/akrom/software/anaconda3/envs/ffpenv/share/psi4/basis/cc-pvdz-jkfit.gbs 

  ==> Pre-Iterations <==

   -------------------------------------------------------
    Irrep   Nso     Nmo     Nalpha   Nbeta   Ndocc  Nsocc
   -------------------------------------------------------
     A1        10      10       0       0       0       0
     A2         0       0       0       0       0       0
     B1         4       4       0       0       0       0
     B2         4       4       0       0       0       0
   -------------------------------------------------------
    Total      18      18       7       7       7       0
   -------------------------------------------------------

  ==> Integral Setup <==

  DFHelper Memory: AOs need 0.001 GiB; user supplied 0.313 GiB. Using in-core AOs.

  ==> MemDFJK: Density-Fitted J/K Matrices <==

    J tasked:                   Yes
    K tasked:                   Yes
    wK tasked:                   No
    OpenMP threads:               1
    Memory [MiB]:               320
    Algorithm:                 Core
    Schwarz Cutoff:           1E-12
    Mask sparsity (%):       0.0000
    Fitting Condition:        1E-10

   => Auxiliary Basis Set <=

  Basis Set: (6-31G AUX)
    Blend: CC-PVDZ-JKFIT
    Number of shells: 48
    Number of basis function: 162
    Number of Cartesian functions: 162
    Spherical Harmonics?: false
    Max angular momentum: 3

  Cached 100.0% of DFT collocation blocks in 0.053 [GiB].

  Minimum eigenvalue in the overlap matrix is 2.2792534738E-02.
  Using Symmetric Orthogonalization.

  SCF Guess: Superposition of Atomic Densities via on-the-fly atomic UHF.

  ==> Iterations <==

                           Total Energy        Delta E     RMS |[F,P]|

   @DF-RKS iter SAD:  -112.64462121931028   -1.12645e+02   0.00000e+00 
   @DF-RKS iter   1:  -113.17993011838006   -5.35309e-01   2.62337e-02 DIIS
   @DF-RKS iter   2:  -113.11648782263826    6.34423e-02   4.57040e-02 DIIS
   @DF-RKS iter   3:  -113.21466657141889   -9.81787e-02   2.49522e-03 DIIS
   @DF-RKS iter   4:  -113.21507929501236   -4.12724e-04   4.95793e-04 DIIS
   @DF-RKS iter   5:  -113.21509406919783   -1.47742e-05   9.28408e-05 DIIS
   @DF-RKS iter   6:  -113.21509447603846   -4.06841e-07   1.05029e-05 DIIS
   @DF-RKS iter   7:  -113.21509448214006   -6.10160e-09   4.02862e-07 DIIS
   @DF-RKS iter   8:  -113.21509448215193   -1.18661e-11   1.47310e-08 DIIS
   @DF-RKS iter   9:  -113.21509448215201   -8.52651e-14   2.87733e-09 DIIS
  Energy and wave function converged.


  ==> Post-Iterations <==

    Orbital Energies [Eh]
    ---------------------

    Doubly Occupied:                                                      

       1A1   -19.758592     2A1   -10.691754     3A1    -1.318012  
       4A1    -0.659827     1B2    -0.549632     1B1    -0.549632  
       5A1    -0.439286  

    Virtual:                                                              

       2B2     0.019890     2B1     0.019890     6A1     0.303230  
       3B2     0.564511     3B1     0.564511     7A1     0.635344  
       8A1     0.814733     9A1     0.962934     4B1     0.993961  
       4B2     0.993961    10A1     1.613705  

    Final Occupation by Irrep:
             A1    A2    B1    B2 
    DOCC [     5,    0,    1,    1 ]

  @DF-RKS Final Energy:  -113.21509448215201

   => Energetics <=

    Nuclear Repulsion Energy =             22.1708841346405272
    One-Electron Energy =                -197.3160357433888521
    Two-Electron Energy =                  68.5901427010409606
    DFT Exchange-Correlation Energy =      -6.6600855744446301
    Empirical Dispersion Energy =           0.0000000000000000
    VV10 Nonlocal Energy =                  0.0000000000000000
    Total Energy =                       -113.2150944821520113

Computation Completed


Properties will be evaluated at   0.000000,   0.000000,   0.000000 [a0]

Properties computed using the SCF density matrix

  Nuclear Dipole Moment: [e a0]
     X:     0.0000      Y:     0.0000      Z:     0.0024

  Electronic Dipole Moment: [e a0]
     X:     0.0000      Y:     0.0000      Z:    -0.0865

  Dipole Moment: [e a0]
     X:     0.0000      Y:     0.0000      Z:    -0.0841     Total:     0.0841

  Dipole Moment: [D]
     X:     0.0000      Y:     0.0000      Z:    -0.2139     Total:     0.2139


*** tstop() called on atlantis at Tue Apr 19 00:37:21 2022
Module time:
	user time   =       1.02 seconds =       0.02 minutes
	system time =       0.02 seconds =       0.00 minutes
	total time  =          1 seconds =       0.02 minutes
Total time:
	user time   =       4.64 seconds =       0.08 minutes
	system time =       0.04 seconds =       0.00 minutes
	total time  =          5 seconds =       0.08 minutes

*** tstart() called on atlantis
*** at Tue Apr 19 00:37:21 2022


         ------------------------------------------------------------
                                   SCF GRAD                          
                          Rob Parrish, Justin Turney,                
                       Andy Simmonett, and Alex Sokolov              
         ------------------------------------------------------------

  ==> Geometry <==

    Molecular point group: c2v
    Full point group: C_inf_v

    Geometry (in Angstrom), charge = 0, multiplicity = 1:

       Center              X                  Y                   Z               Mass       
    ------------   -----------------  -----------------  -----------------  -----------------
         O            0.000000000000     0.000000000000     0.491090413658    15.994914619570
         C            0.000000000000     0.000000000000    -0.654579103079    12.000000000000

  Nuclear repulsion =   22.170884134640527

  ==> Basis Set <==

  Basis Set: 6-31G
    Blend: 6-31G
    Number of shells: 10
    Number of basis function: 18
    Number of Cartesian functions: 18
    Spherical Harmonics?: false
    Max angular momentum: 1

  ==> DFJKGrad: Density-Fitted SCF Gradients <==

    Gradient:                    1
    J tasked:                  Yes
    K tasked:                  Yes
    wK tasked:                  No
    OpenMP threads:              1
    Integrals threads:           1
    Memory [MiB]:              375
    Schwarz Cutoff:          0E+00
    Fitting Condition:       1E-10

   => Auxiliary Basis Set <=

  Basis Set: (6-31G AUX)
    Blend: CC-PVDZ-JKFIT
    Number of shells: 48
    Number of basis function: 162
    Number of Cartesian functions: 162
    Spherical Harmonics?: false
    Max angular momentum: 3

  ==> DFT Potential <==

   => Composite Functional: M06-2X <= 

    Hybrid M06-2X Meta-GGA XC Functional

    Y. Zhao and D. G. Truhlar,  Theor. Chem. Acc., 120, 215, 2008


    Deriv               =              1
    GGA                 =           TRUE
    Meta                =           TRUE

    Exchange Hybrid     =           TRUE
    MP2 Hybrid          =          FALSE

   => Exchange Functionals <=

    1.0000   XC_HYB_MGGA_X_M06_2X

   => Exact (HF) Exchange <=

    0.5400               HF 

   => Correlation Functionals <=

    1.0000   XC_MGGA_C_M06_2X

   => Molecular Quadrature <=

    Radial Scheme          =       TREUTLER
    Pruning Scheme         =           FLAT
    Nuclear Scheme         =       TREUTLER

    BS radius alpha        =              1
    Pruning alpha          =              1
    Radial Points          =             75
    Spherical Points       =            302
    Total Points           =          42306
    Total Blocks           =            376
    Max Points             =            256
    Max Functions          =             18


  -Total Gradient:
     Atom            X                  Y                   Z
    ------   -----------------  -----------------  -----------------
       1        0.000000000000    -0.000000000000    -0.005954960341
       2        0.000000000000     0.000000000000     0.005976717759


*** tstop() called on atlantis at Tue Apr 19 00:37:21 2022
Module time:
	user time   =       0.17 seconds =       0.00 minutes
	system time =       0.00 seconds =       0.00 minutes
	total time  =          0 seconds =       0.00 minutes
Total time:
	user time   =       4.81 seconds =       0.08 minutes
	system time =       0.04 seconds =       0.00 minutes
	total time  =          5 seconds =       0.08 minutes

  //>>>>>>>>>>>>>>>>>>>>>>>>>>>>>>>>>>>//
  //    Loading displacement 3 of 3    //
  //<<<<<<<<<<<<<<<<<<<<<<<<<<<<<<<<<<<//
gradient() will perform analytic gradient computation.

*** tstart() called on atlantis
*** at Tue Apr 19 00:37:21 2022

   => Loading Basis Set <=

    Name: 6-31G
    Role: ORBITAL
    Keyword: BASIS
    atoms 1 entry O          line   117 file /home/akrom/software/anaconda3/envs/ffpenv/share/psi4/basis/6-31g.gbs 
    atoms 2 entry C          line    87 file /home/akrom/software/anaconda3/envs/ffpenv/share/psi4/basis/6-31g.gbs 


         ---------------------------------------------------------
                                   SCF
               by Justin Turney, Rob Parrish, Andy Simmonett
                          and Daniel G. A. Smith
                              RKS Reference
                        1 Threads,    500 MiB Core
         ---------------------------------------------------------

  ==> Geometry <==

    Molecular point group: c2v
    Full point group: C_inf_v

    Geometry (in Angstrom), charge = 0, multiplicity = 1:

       Center              X                  Y                   Z               Mass       
    ------------   -----------------  -----------------  -----------------  -----------------
         O            0.000000000000     0.000000000000     0.491956699505    15.994914619570
         C            0.000000000000     0.000000000000    -0.655733783759    12.000000000000

  Running in c2v symmetry.

  Rotational constants: A = ************  B =      1.86665  C =      1.86665 [cm^-1]
  Rotational constants: A = ************  B =  55960.76123  C =  55960.76123 [MHz]
  Nuclear repulsion =   22.131843456554755

  Charge       = 0
  Multiplicity = 1
  Electrons    = 14
  Nalpha       = 7
  Nbeta        = 7

  ==> Algorithm <==

  SCF Algorithm Type is DF.
  DIIS enabled.
  MOM disabled.
  Fractional occupation disabled.
  Guess Type is SAD.
  Energy threshold   = 1.00e-08
  Density threshold  = 1.00e-08
  Integral threshold = 0.00e+00

  ==> Primary Basis <==

  Basis Set: 6-31G
    Blend: 6-31G
    Number of shells: 10
    Number of basis function: 18
    Number of Cartesian functions: 18
    Spherical Harmonics?: false
    Max angular momentum: 1

  ==> DFT Potential <==

   => Composite Functional: M06-2X <= 

    Hybrid M06-2X Meta-GGA XC Functional

    Y. Zhao and D. G. Truhlar,  Theor. Chem. Acc., 120, 215, 2008


    Deriv               =              1
    GGA                 =           TRUE
    Meta                =           TRUE

    Exchange Hybrid     =           TRUE
    MP2 Hybrid          =          FALSE

   => Exchange Functionals <=

    1.0000   XC_HYB_MGGA_X_M06_2X

   => Exact (HF) Exchange <=

    0.5400               HF 

   => Correlation Functionals <=

    1.0000   XC_MGGA_C_M06_2X

   => Molecular Quadrature <=

    Radial Scheme          =       TREUTLER
    Pruning Scheme         =           FLAT
    Nuclear Scheme         =       TREUTLER

    BS radius alpha        =              1
    Pruning alpha          =              1
    Radial Points          =             75
    Spherical Points       =            302
    Total Points           =          42306
    Total Blocks           =            379
    Max Points             =            255
    Max Functions          =             18

   => Loading Basis Set <=

    Name: (6-31G AUX)
    Role: JKFIT
    Keyword: DF_BASIS_SCF
    atoms 1 entry O          line   221 file /home/akrom/software/anaconda3/envs/ffpenv/share/psi4/basis/cc-pvdz-jkfit.gbs 
    atoms 2 entry C          line   121 file /home/akrom/software/anaconda3/envs/ffpenv/share/psi4/basis/cc-pvdz-jkfit.gbs 

  ==> Pre-Iterations <==

   -------------------------------------------------------
    Irrep   Nso     Nmo     Nalpha   Nbeta   Ndocc  Nsocc
   -------------------------------------------------------
     A1        10      10       0       0       0       0
     A2         0       0       0       0       0       0
     B1         4       4       0       0       0       0
     B2         4       4       0       0       0       0
   -------------------------------------------------------
    Total      18      18       7       7       7       0
   -------------------------------------------------------

  ==> Integral Setup <==

  DFHelper Memory: AOs need 0.001 GiB; user supplied 0.313 GiB. Using in-core AOs.

  ==> MemDFJK: Density-Fitted J/K Matrices <==

    J tasked:                   Yes
    K tasked:                   Yes
    wK tasked:                   No
    OpenMP threads:               1
    Memory [MiB]:               320
    Algorithm:                 Core
    Schwarz Cutoff:           1E-12
    Mask sparsity (%):       0.0000
    Fitting Condition:        1E-10

   => Auxiliary Basis Set <=

  Basis Set: (6-31G AUX)
    Blend: CC-PVDZ-JKFIT
    Number of shells: 48
    Number of basis function: 162
    Number of Cartesian functions: 162
    Spherical Harmonics?: false
    Max angular momentum: 3

  Cached 100.0% of DFT collocation blocks in 0.053 [GiB].

  Minimum eigenvalue in the overlap matrix is 2.2899956826E-02.
  Using Symmetric Orthogonalization.

  SCF Guess: Superposition of Atomic Densities via on-the-fly atomic UHF.

  ==> Iterations <==

                           Total Energy        Delta E     RMS |[F,P]|

   @DF-RKS iter SAD:  -112.64089236790154   -1.12641e+02   0.00000e+00 
   @DF-RKS iter   1:  -113.17975792663293   -5.38866e-01   2.62914e-02 DIIS
   @DF-RKS iter   2:  -113.11494281236597    6.48151e-02   4.60429e-02 DIIS
   @DF-RKS iter   3:  -113.21468489936895   -9.97421e-02   2.47846e-03 DIIS
   @DF-RKS iter   4:  -113.21509285417186   -4.07955e-04   4.98299e-04 DIIS
   @DF-RKS iter   5:  -113.21510776510507   -1.49109e-05   9.32284e-05 DIIS
   @DF-RKS iter   6:  -113.21510817572519   -4.10620e-07   1.05655e-05 DIIS
   @DF-RKS iter   7:  -113.21510818192402   -6.19883e-09   4.09685e-07 DIIS
   @DF-RKS iter   8:  -113.21510818193643   -1.24061e-11   1.49044e-08 DIIS
   @DF-RKS iter   9:  -113.21510818193654   -1.13687e-13   2.95158e-09 DIIS
  Energy and wave function converged.


  ==> Post-Iterations <==

    Orbital Energies [Eh]
    ---------------------

    Doubly Occupied:                                                      

       1A1   -19.758632     2A1   -10.692341     3A1    -1.316709  
       4A1    -0.659822     1B1    -0.548870     1B2    -0.548870  
       5A1    -0.439476  

    Virtual:                                                              

       2B2     0.019080     2B1     0.019080     6A1     0.302924  
       3B2     0.564504     3B1     0.564504     7A1     0.635170  
       8A1     0.812045     9A1     0.962054     4B1     0.993859  
       4B2     0.993859    10A1     1.613005  

    Final Occupation by Irrep:
             A1    A2    B1    B2 
    DOCC [     5,    0,    1,    1 ]

  @DF-RKS Final Energy:  -113.21510818193654

   => Energetics <=

    Nuclear Repulsion Energy =             22.1318434565547548
    One-Electron Energy =                -197.2427521990600496
    Two-Electron Energy =                  68.5550122059024005
    DFT Exchange-Correlation Energy =      -6.6592116453336381
    Empirical Dispersion Energy =           0.0000000000000000
    VV10 Nonlocal Energy =                  0.0000000000000000
    Total Energy =                       -113.2151081819365430

Computation Completed


Properties will be evaluated at   0.000000,   0.000000,   0.000000 [a0]

Properties computed using the SCF density matrix

  Nuclear Dipole Moment: [e a0]
     X:     0.0000      Y:     0.0000      Z:     0.0024

  Electronic Dipole Moment: [e a0]
     X:     0.0000      Y:     0.0000      Z:    -0.0895

  Dipole Moment: [e a0]
     X:     0.0000      Y:     0.0000      Z:    -0.0872     Total:     0.0872

  Dipole Moment: [D]
     X:     0.0000      Y:     0.0000      Z:    -0.2216     Total:     0.2216


*** tstop() called on atlantis at Tue Apr 19 00:37:22 2022
Module time:
	user time   =       1.04 seconds =       0.02 minutes
	system time =       0.01 seconds =       0.00 minutes
	total time  =          1 seconds =       0.02 minutes
Total time:
	user time   =       5.85 seconds =       0.10 minutes
	system time =       0.05 seconds =       0.00 minutes
	total time  =          6 seconds =       0.10 minutes

*** tstart() called on atlantis
*** at Tue Apr 19 00:37:22 2022


         ------------------------------------------------------------
                                   SCF GRAD                          
                          Rob Parrish, Justin Turney,                
                       Andy Simmonett, and Alex Sokolov              
         ------------------------------------------------------------

  ==> Geometry <==

    Molecular point group: c2v
    Full point group: C_inf_v

    Geometry (in Angstrom), charge = 0, multiplicity = 1:

       Center              X                  Y                   Z               Mass       
    ------------   -----------------  -----------------  -----------------  -----------------
         O            0.000000000000     0.000000000000     0.491956699505    15.994914619570
         C            0.000000000000     0.000000000000    -0.655733783759    12.000000000000

  Nuclear repulsion =   22.131843456554755

  ==> Basis Set <==

  Basis Set: 6-31G
    Blend: 6-31G
    Number of shells: 10
    Number of basis function: 18
    Number of Cartesian functions: 18
    Spherical Harmonics?: false
    Max angular momentum: 1

  ==> DFJKGrad: Density-Fitted SCF Gradients <==

    Gradient:                    1
    J tasked:                  Yes
    K tasked:                  Yes
    wK tasked:                  No
    OpenMP threads:              1
    Integrals threads:           1
    Memory [MiB]:              375
    Schwarz Cutoff:          0E+00
    Fitting Condition:       1E-10

   => Auxiliary Basis Set <=

  Basis Set: (6-31G AUX)
    Blend: CC-PVDZ-JKFIT
    Number of shells: 48
    Number of basis function: 162
    Number of Cartesian functions: 162
    Spherical Harmonics?: false
    Max angular momentum: 3

  ==> DFT Potential <==

   => Composite Functional: M06-2X <= 

    Hybrid M06-2X Meta-GGA XC Functional

    Y. Zhao and D. G. Truhlar,  Theor. Chem. Acc., 120, 215, 2008


    Deriv               =              1
    GGA                 =           TRUE
    Meta                =           TRUE

    Exchange Hybrid     =           TRUE
    MP2 Hybrid          =          FALSE

   => Exchange Functionals <=

    1.0000   XC_HYB_MGGA_X_M06_2X

   => Exact (HF) Exchange <=

    0.5400               HF 

   => Correlation Functionals <=

    1.0000   XC_MGGA_C_M06_2X

   => Molecular Quadrature <=

    Radial Scheme          =       TREUTLER
    Pruning Scheme         =           FLAT
    Nuclear Scheme         =       TREUTLER

    BS radius alpha        =              1
    Pruning alpha          =              1
    Radial Points          =             75
    Spherical Points       =            302
    Total Points           =          42306
    Total Blocks           =            379
    Max Points             =            255
    Max Functions          =             18


  -Total Gradient:
     Atom            X                  Y                   Z
    ------   -----------------  -----------------  -----------------
       1        0.000000000000     0.000000000000    -0.001354266396
       2       -0.000000000000     0.000000000000     0.001360036506


*** tstop() called on atlantis at Tue Apr 19 00:37:22 2022
Module time:
	user time   =       0.17 seconds =       0.00 minutes
	system time =       0.00 seconds =       0.00 minutes
	total time  =          0 seconds =       0.00 minutes
Total time:
	user time   =       6.02 seconds =       0.10 minutes
	system time =       0.05 seconds =       0.00 minutes
	total time  =          6 seconds =       0.10 minutes

         ----------------------------------------------------------
                                   FINDIF
                     R. A. King and Jonathon Misiewicz
         ---------------------------------------------------------

  Computing second-derivative from gradients using projected, 
  symmetry-adapted, cartesian coordinates.

  3 gradients passed in, including the reference geometry.
  Generating complete list of displacements from unique ones.


-------------------------------------------------------------


  ==> Harmonic Vibrational Analysis <==

  non-mass-weighted Hessian:       Symmetric? True   Hermitian? True   Lin Dep Dim?  5 (0)
  projection of translations (True) and rotations (True) removed 5 degrees of freedom (5)
  total projector:                 Symmetric? True   Hermitian? True   Lin Dep Dim?  5 (5)
  mass-weighted Hessian:           Symmetric? True   Hermitian? True   Lin Dep Dim?  5 (0)
  pre-proj  low-frequency mode:    0.0000i [cm^-1]
  pre-proj  low-frequency mode:    0.0000  [cm^-1]
  pre-proj  low-frequency mode:    0.0000  [cm^-1]
  pre-proj  low-frequency mode:    0.0000  [cm^-1]
  pre-proj  low-frequency mode:    0.0000  [cm^-1]
  pre-proj  all modes:['0.0000i' '0.0000' '0.0000' '0.0000' '0.0000' '2156.8783']
  projected mass-weighted Hessian: Symmetric? True   Hermitian? True   Lin Dep Dim?  5 (5)
  post-proj low-frequency mode:    0.0000  [cm^-1] (TR)
  post-proj low-frequency mode:    0.0000  [cm^-1] (TR)
  post-proj low-frequency mode:    0.0000  [cm^-1] (TR)
  post-proj low-frequency mode:    0.0000  [cm^-1] (TR)
  post-proj low-frequency mode:    0.0000  [cm^-1] (TR)
  post-proj  all modes:['0.0000' '0.0000' '0.0000' '0.0000' '0.0000' '2156.8783']

  Vibration                       6           
  Freq [cm^-1]                2156.8783       
  Irrep                           A1          
  Reduced mass [u]             13.4388        
  Force const [mDyne/A]        36.8350        
  Turning point v=0 [a0]        0.0644        
  RMS dev v=0 [a0 u^1/2]        0.1671        
  Char temp [K]               3103.2677       
  ----------------------------------------------------------------------------------
      1   O                0.00  0.00 -0.60   
      2   C                0.00  0.00  0.80   

  ==> Thermochemistry Components <==

  Entropy, S
    Electronic S            0.000 [cal/(mol K)]        0.000 [J/(mol K)]       0.00000000 [mEh/K] (multiplicity = 1)
    Translational S        35.923 [cal/(mol K)]      150.302 [J/(mol K)]       0.05724692 [mEh/K] (mol. weight = 27.9949 [u], P = 101325.00 [Pa])
    Rotational S           11.343 [cal/(mol K)]       47.458 [J/(mol K)]       0.01807582 [mEh/K] (symmetry no. = 1)
    Vibrational S           0.001 [cal/(mol K)]        0.003 [J/(mol K)]       0.00000109 [mEh/K]
  Total S                  47.266 [cal/(mol K)]      197.763 [J/(mol K)]       0.07532384 [mEh/K]
  Correction S              0.000 [cal/(mol K)]        0.000 [J/(mol K)]       0.00000000 [mEh/K]

  Constant volume heat capacity, Cv
    Electronic Cv           0.000 [cal/(mol K)]        0.000 [J/(mol K)]       0.00000000 [mEh/K]
    Translational Cv        2.981 [cal/(mol K)]       12.472 [J/(mol K)]       0.00475022 [mEh/K]
    Rotational Cv           1.987 [cal/(mol K)]        8.314 [J/(mol K)]       0.00316681 [mEh/K]
    Vibrational Cv          0.006 [cal/(mol K)]        0.027 [J/(mol K)]       0.00001035 [mEh/K]
  Total Cv                  4.975 [cal/(mol K)]       20.813 [J/(mol K)]       0.00792738 [mEh/K]
  Correction Cv             0.000 [cal/(mol K)]        0.000 [J/(mol K)]       0.00000000 [mEh/K]

  Constant pressure heat capacity, Cp
    Electronic Cp           0.000 [cal/(mol K)]        0.000 [J/(mol K)]       0.00000000 [mEh/K]
    Translational Cp        4.968 [cal/(mol K)]       20.786 [J/(mol K)]       0.00791703 [mEh/K]
    Rotational Cp           1.987 [cal/(mol K)]        8.314 [J/(mol K)]       0.00316681 [mEh/K]
    Vibrational Cp          0.006 [cal/(mol K)]        0.027 [J/(mol K)]       0.00001035 [mEh/K]
  Total Cp                  6.962 [cal/(mol K)]       29.128 [J/(mol K)]       0.01109419 [mEh/K]
  Correction Cp             0.000 [cal/(mol K)]        0.000 [J/(mol K)]       0.00000000 [mEh/K]

  ==> Thermochemistry Energy Analysis <==

  Raw electronic energy, E0
  Total E0, Electronic energy at well bottom at 0 [K]                 -113.21510353 [Eh]

  Zero-point energy, ZPE_vib = Sum_i nu_i / 2
    Electronic ZPE          0.000 [kcal/mol]        0.000 [kJ/mol]       0.00000000 [Eh]
    Translational ZPE       0.000 [kcal/mol]        0.000 [kJ/mol]       0.00000000 [Eh]
    Rotational ZPE          0.000 [kcal/mol]        0.000 [kJ/mol]       0.00000000 [Eh]
    Vibrational ZPE         3.083 [kcal/mol]       12.901 [kJ/mol]       0.00491373 [Eh]        1078.439 [cm^-1]
  Correction ZPE            3.083 [kcal/mol]       12.901 [kJ/mol]       0.00491373 [Eh]        1078.439 [cm^-1]
  Total ZPE, Electronic energy at 0 [K]                               -113.21018980 [Eh]

  Thermal Energy, E (includes ZPE)
    Electronic E            0.000 [kcal/mol]        0.000 [kJ/mol]       0.00000000 [Eh]
    Translational E         0.889 [kcal/mol]        3.718 [kJ/mol]       0.00141628 [Eh]
    Rotational E            0.592 [kcal/mol]        2.479 [kJ/mol]       0.00094418 [Eh]
    Vibrational E           3.084 [kcal/mol]       12.902 [kJ/mol]       0.00491403 [Eh]
  Correction E              4.565 [kcal/mol]       19.099 [kJ/mol]       0.00727449 [Eh]
  Total E, Electronic energy at  298.15 [K]                           -113.20782905 [Eh]

  Enthalpy, H_trans = E_trans + k_B * T
    Electronic H            0.000 [kcal/mol]        0.000 [kJ/mol]       0.00000000 [Eh]
    Translational H         1.481 [kcal/mol]        6.197 [kJ/mol]       0.00236046 [Eh]
    Rotational H            0.592 [kcal/mol]        2.479 [kJ/mol]       0.00094418 [Eh]
    Vibrational H           3.084 [kcal/mol]       12.902 [kJ/mol]       0.00491403 [Eh]
  Correction H              5.157 [kcal/mol]       21.578 [kJ/mol]       0.00821867 [Eh]
  Total H, Enthalpy at  298.15 [K]                                    -113.20688486 [Eh]

  Gibbs free energy, G = H - T * S
    Electronic G            0.000 [kcal/mol]        0.000 [kJ/mol]       0.00000000 [Eh]
    Translational G        -9.229 [kcal/mol]      -38.615 [kJ/mol]      -0.01470771 [Eh]
    Rotational G           -2.789 [kcal/mol]      -11.671 [kJ/mol]      -0.00444512 [Eh]
    Vibrational G           3.083 [kcal/mol]       12.901 [kJ/mol]       0.00491370 [Eh]
  Correction G             -8.935 [kcal/mol]      -37.385 [kJ/mol]      -0.01423913 [Eh]
  Total G, Free enthalpy at  298.15 [K]                               -113.22934266 [Eh]

    Psi4 stopped on: Tuesday, 19 April 2022 12:37AM
    Psi4 wall time for execution: 0:00:06.17

*** Psi4 exiting successfully. Buy a developer a beer!
