
    -----------------------------------------------------------------------
          Psi4: An Open-Source Ab Initio Electronic Structure Package
                               Psi4 1.3.2 release

                         Git: Rev {HEAD} ecbda83 


    R. M. Parrish, L. A. Burns, D. G. A. Smith, A. C. Simmonett,
    A. E. DePrince III, E. G. Hohenstein, U. Bozkaya, A. Yu. Sokolov,
    R. Di Remigio, R. M. Richard, J. F. Gonthier, A. M. James,
    H. R. McAlexander, A. Kumar, M. Saitow, X. Wang, B. P. Pritchard,
    P. Verma, H. F. Schaefer III, K. Patkowski, R. A. King, E. F. Valeev,
    F. A. Evangelista, J. M. Turney, T. D. Crawford, and C. D. Sherrill,
    J. Chem. Theory Comput. 13(7) pp 3185--3197 (2017).
    (doi: 10.1021/acs.jctc.7b00174)


                         Additional Contributions by
    P. Kraus, H. Kruse, M. H. Lechner, M. C. Schieber, R. A. Shaw,
    A. Alenaizan, R. Galvelis, Z. L. Glick, S. Lehtola, and J. P. Misiewicz

    -----------------------------------------------------------------------


    Psi4 started on: Wednesday, 20 April 2022 01:14AM

    Process ID: 12334
    Host:       atlantis
    PSIDATADIR: /home/akrom/software/anaconda3/envs/ffpenv/share/psi4
    Memory:     500.0 MiB
    Threads:    1
    
  ==> Input File <==

--------------------------------------------------------------------------
set basis  aug-cc-pVTZ
molecule {
0 1
   C        0.32153        0.81326        0.00000
   C       -0.86505       -0.12817        0.00000
   C        0.54353       -0.68508        0.00000
   H        0.53795        1.36069       -0.92039
   H        0.53795        1.36069        0.92039
   H       -1.44742       -0.21449        0.92034
   H       -1.44742       -0.21449       -0.92034
   H        0.90937       -1.14629       -0.92037
   H        0.90937       -1.14629        0.92037
}
energy('scf')
frequencies('scf')
--------------------------------------------------------------------------

*** tstart() called on atlantis
*** at Wed Apr 20 01:14:07 2022

   => Loading Basis Set <=

    Name: AUG-CC-PVTZ
    Role: ORBITAL
    Keyword: BASIS
    atoms 1-3 entry C          line   235 file /home/akrom/software/anaconda3/envs/ffpenv/share/psi4/basis/aug-cc-pvtz.gbs 
    atoms 4-9 entry H          line    36 file /home/akrom/software/anaconda3/envs/ffpenv/share/psi4/basis/aug-cc-pvtz.gbs 


         ---------------------------------------------------------
                                   SCF
               by Justin Turney, Rob Parrish, Andy Simmonett
                          and Daniel G. A. Smith
                              RHF Reference
                        1 Threads,    500 MiB Core
         ---------------------------------------------------------

  ==> Geometry <==

    Molecular point group: cs
    Full point group: Cs

    Geometry (in Angstrom), charge = 0, multiplicity = 1:

       Center              X                  Y                   Z               Mass       
    ------------   -----------------  -----------------  -----------------  -----------------
         C            0.321531939855     0.813261460475     0.000000000000    12.000000000000
         C           -0.865048060145    -0.128168539525     0.000000000000    12.000000000000
         C            0.543531939855    -0.685078539525     0.000000000000    12.000000000000
         H            0.537951939855     1.360691460475    -0.920390000000     1.007825032230
         H            0.537951939855     1.360691460475     0.920390000000     1.007825032230
         H           -1.447418060145    -0.214488539525     0.920340000000     1.007825032230
         H           -1.447418060145    -0.214488539525    -0.920340000000     1.007825032230
         H            0.909371939855    -1.146288539525    -0.920370000000     1.007825032230
         H            0.909371939855    -1.146288539525     0.920370000000     1.007825032230

  Running in cs symmetry.

  Rotational constants: A =      0.66472  B =      0.66470  C =      0.41647 [cm^-1]
  Rotational constants: A =  19927.70596  B =  19927.20236  C =  12485.44714 [MHz]
  Nuclear repulsion =   75.281464809014025

  Charge       = 0
  Multiplicity = 1
  Electrons    = 24
  Nalpha       = 12
  Nbeta        = 12

  ==> Algorithm <==

  SCF Algorithm Type is DF.
  DIIS enabled.
  MOM disabled.
  Fractional occupation disabled.
  Guess Type is SAD.
  Energy threshold   = 1.00e-06
  Density threshold  = 1.00e-06
  Integral threshold = 0.00e+00

  ==> Primary Basis <==

  Basis Set: AUG-CC-PVTZ
    Blend: AUG-CC-PVTZ
    Number of shells: 96
    Number of basis function: 276
    Number of Cartesian functions: 315
    Spherical Harmonics?: true
    Max angular momentum: 3

   => Loading Basis Set <=

    Name: (AUG-CC-PVTZ AUX)
    Role: JKFIT
    Keyword: DF_BASIS_SCF
    atoms 1-3 entry C          line   162 file /home/akrom/software/anaconda3/envs/ffpenv/share/psi4/basis/aug-cc-pvtz-jkfit.gbs 
    atoms 4-9 entry H          line    70 file /home/akrom/software/anaconda3/envs/ffpenv/share/psi4/basis/aug-cc-pvtz-jkfit.gbs 

  ==> Pre-Iterations <==

   -------------------------------------------------------
    Irrep   Nso     Nmo     Nalpha   Nbeta   Ndocc  Nsocc
   -------------------------------------------------------
     A'       159     159       0       0       0       0
     A"       117     117       0       0       0       0
   -------------------------------------------------------
    Total     276     276      12      12      12       0
   -------------------------------------------------------

  ==> Integral Setup <==

  DFHelper Memory: AOs need 0.352 GiB; user supplied 0.366 GiB. Using in-core AOs.

  ==> MemDFJK: Density-Fitted J/K Matrices <==

    J tasked:                   Yes
    K tasked:                   Yes
    wK tasked:                   No
    OpenMP threads:               1
    Memory [MiB]:               375
    Algorithm:                 Core
    Schwarz Cutoff:           1E-12
    Mask sparsity (%):       0.0000
    Fitting Condition:        1E-10

   => Auxiliary Basis Set <=

  Basis Set: (AUG-CC-PVTZ AUX)
    Blend: AUG-CC-PVTZ-JKFIT
    Number of shells: 174
    Number of basis function: 588
    Number of Cartesian functions: 723
    Spherical Harmonics?: true
    Max angular momentum: 4

  Minimum eigenvalue in the overlap matrix is 1.6775936804E-05.
  Using Symmetric Orthogonalization.

  SCF Guess: Superposition of Atomic Densities via on-the-fly atomic UHF.

  ==> Iterations <==

                           Total Energy        Delta E     RMS |[F,P]|

   @DF-RHF iter SAD:  -116.63825761173405   -1.16638e+02   0.00000e+00 
   @DF-RHF iter   1:  -116.97228224781502   -3.34025e-01   2.36326e-03 DIIS
   @DF-RHF iter   2:  -117.07068785226095   -9.84056e-02   1.20228e-03 DIIS
   @DF-RHF iter   3:  -117.09885193790538   -2.81641e-02   1.77075e-04 DIIS
   @DF-RHF iter   4:  -117.10006241879684   -1.21048e-03   2.41270e-05 DIIS
   @DF-RHF iter   5:  -117.10009568865709   -3.32699e-05   5.70773e-06 DIIS
   @DF-RHF iter   6:  -117.10009766218013   -1.97352e-06   9.93098e-07 DIIS
   @DF-RHF iter   7:  -117.10009772942450   -6.72444e-08   1.57084e-07 DIIS
  Energy and wave function converged.


  ==> Post-Iterations <==

    Orbital Energies [Eh]
    ---------------------

    Doubly Occupied:                                                      

       1Ap   -11.227514     2Ap   -11.226537     3Ap   -11.226532  
       4Ap    -1.124706     5Ap    -0.813985     6Ap    -0.813979  
       1App   -0.662781     7Ap    -0.621913     2App   -0.510215  
       3App   -0.510200     8Ap    -0.417244     9Ap    -0.417236  

    Virtual:                                                              

      10Ap     0.033134     4App    0.040405    11Ap     0.042026  
      12Ap     0.042026     5App    0.061726     6App    0.061728  
      13Ap     0.097999    14Ap     0.098262    15Ap     0.098263  
      16Ap     0.124942    17Ap     0.124945    18Ap     0.133147  
       7App    0.141768    19Ap     0.148368     8App    0.165648  
       9App    0.165651    20Ap     0.183916    21Ap     0.183920  
      22Ap     0.247722    10App    0.249935    11App    0.249937  
      12App    0.260029    23Ap     0.278889    24Ap     0.290250  
      25Ap     0.293337    26Ap     0.293338    27Ap     0.325653  
      28Ap     0.325660    13App    0.343064    14App    0.344642  
      29Ap     0.355372    30Ap     0.355373    15App    0.374611  
      16App    0.374617    17App    0.387785    18App    0.387789  
      31Ap     0.404556    19App    0.414012    32Ap     0.416095  
      33Ap     0.416099    34Ap     0.438012    35Ap     0.438018  
      36Ap     0.438108    37Ap     0.451730    20App    0.480969  
      21App    0.507736    22App    0.507739    38Ap     0.509662  
      39Ap     0.512741    23App    0.514291    24App    0.514297  
      40Ap     0.522487    41Ap     0.522495    42Ap     0.541985  
      43Ap     0.541990    44Ap     0.604897    45Ap     0.604908  
      25App    0.608707    26App    0.608732    46Ap     0.649263  
      27App    0.668408    28App    0.693857    47Ap     0.748855  
      48Ap     0.748859    29App    0.791089    30App    0.791096  
      31App    0.826803    49Ap     0.851287    50Ap     0.882257  
      51Ap     0.882257    52Ap     0.884105    32App    0.893643  
      33App    0.893646    53Ap     0.929779    54Ap     0.932435  
      55Ap     0.932447    56Ap     0.948323    57Ap     0.955280  
      58Ap     0.955286    34App    0.982327    35App    0.982335  
      36App    0.995277    37App    1.009046    59Ap     1.012074  
      60Ap     1.012093    38App    1.041869    61Ap     1.065412  
      62Ap     1.065418    39App    1.095283    40App    1.095286  
      41App    1.104194    42App    1.104195    63Ap     1.111847  
      64Ap     1.124699    65Ap     1.164833    66Ap     1.164848  
      67Ap     1.173878    68Ap     1.227248    69Ap     1.227251  
      43App    1.234931    44App    1.234943    70Ap     1.246921  
      45App    1.306517    46App    1.306526    47App    1.362369  
      48App    1.375101    49App    1.377191    71Ap     1.390631  
      72Ap     1.390661    50App    1.393560    51App    1.393568  
      73Ap     1.435671    74Ap     1.525601    75Ap     1.525615  
      76Ap     1.550183    77Ap     1.550190    52App    1.551452  
      53App    1.571427    54App    1.571460    78Ap     1.579989  
      79Ap     1.648184    80Ap     1.648185    81Ap     1.676815  
      55App    1.678412    56App    1.716616    82Ap     1.746460  
      83Ap     1.753432    84Ap     1.753440    57App    1.836066  
      58App    1.836079    59App    1.863409    60App    1.863425  
      85Ap     1.875413    86Ap     1.887475    87Ap     1.908134  
      88Ap     1.908143    61App    1.948258    89Ap     1.953646  
      90Ap     1.953672    62App    2.016651    63App    2.016658  
      91Ap     2.032363    92Ap     2.053637    93Ap     2.053645  
      94Ap     2.087274    64App    2.104335    65App    2.141780  
      95Ap     2.208592    96Ap     2.208640    66App    2.235738  
      67App    2.235812    68App    2.331521    69App    2.331553  
      70App    2.384814    97Ap     2.387077    98Ap     2.387112  
      71App    2.477848    72App    2.477870    99Ap     2.550255  
     100Ap     2.553276   101Ap     2.612766   102Ap     2.612833  
      73App    2.955653   103Ap     3.096108   104Ap     3.189947  
     105Ap     3.189995    74App    3.306646    75App    3.306690  
     106Ap     3.349980   107Ap     3.405900   108Ap     3.405952  
     109Ap     3.431894    76App    3.471660   110Ap     3.549096  
      77App    3.611015    78App    3.626217    79App    3.626241  
     111Ap     3.630887   112Ap     3.630901   113Ap     3.669048  
     114Ap     3.669073   115Ap     3.687288    80App    3.724624  
      81App    3.724660    82App    3.730760   116Ap     3.810607  
     117Ap     3.825748   118Ap     3.825768    83App    3.881909  
      84App    3.881927    85App    3.909623   119Ap     3.959552  
      86App    4.010708   120Ap     4.022518   121Ap     4.022533  
      87App    4.064886    88App    4.064914   122Ap     4.123317  
     123Ap     4.123344    89App    4.139406    90App    4.139427  
      91App    4.194683   124Ap     4.199526   125Ap     4.299633  
     126Ap     4.313823   127Ap     4.313840   128Ap     4.355756  
     129Ap     4.355781    92App    4.360739    93App    4.360799  
      94App    4.420028    95App    4.483188    96App    4.483201  
     130Ap     4.529038   131Ap     4.676883   132Ap     4.753221  
     133Ap     4.753241    97App    4.799290    98App    4.799302  
     134Ap     4.839060   135Ap     4.852637   136Ap     4.852694  
      99App    4.881156   100App    4.881191   137Ap     4.922679  
     138Ap     4.922687   101App    4.972372   139Ap     4.982707  
     140Ap     4.982746   102App    5.167748   103App    5.171309  
     141Ap     5.179707   142Ap     5.179723   143Ap     5.223196  
     144Ap     5.295143   104App    5.357553   105App    5.357593  
     145Ap     5.439896   146Ap     5.439946   106App    5.523371  
     107App    5.523397   108App    5.577857   147Ap     5.646507  
     148Ap     5.665544   149Ap     5.665593   150Ap     5.668993  
     109App    5.688717   110App    5.726065   111App    5.913290  
     112App    5.913327   151Ap     6.008481   152Ap     6.119790  
     153Ap     6.314475   154Ap     6.314507   155Ap     6.413121  
     156Ap     6.413170   113App    6.496628   114App    6.500652  
     115App    6.500771   116App    6.768225   117App    6.768271  
     157Ap    16.543140   158Ap    17.105395   159Ap    17.105679  

    Final Occupation by Irrep:
             Ap   App 
    DOCC [     9,    3 ]

  @DF-RHF Final Energy:  -117.10009772942450

   => Energetics <=

    Nuclear Repulsion Energy =             75.2814648090140253
    One-Electron Energy =                -305.6174870653657081
    Two-Electron Energy =                 113.2359245269271639
    Total Energy =                       -117.1000977294245047

Computation Completed


Properties will be evaluated at   0.000000,   0.000000,   0.000000 [a0]

Properties computed using the SCF density matrix

  Nuclear Dipole Moment: [e a0]
     X:    -0.0002      Y:    -0.0002      Z:     0.0000

  Electronic Dipole Moment: [e a0]
     X:     0.0002      Y:     0.0001      Z:     0.0000

  Dipole Moment: [e a0]
     X:    -0.0000      Y:    -0.0000      Z:     0.0000     Total:     0.0000

  Dipole Moment: [D]
     X:    -0.0001      Y:    -0.0001      Z:     0.0000     Total:     0.0001


*** tstop() called on atlantis at Wed Apr 20 01:14:10 2022
Module time:
	user time   =       3.09 seconds =       0.05 minutes
	system time =       0.11 seconds =       0.00 minutes
	total time  =          3 seconds =       0.05 minutes
Total time:
	user time   =       3.09 seconds =       0.05 minutes
	system time =       0.11 seconds =       0.00 minutes
	total time  =          3 seconds =       0.05 minutes
gradient() will perform analytic gradient computation.

*** tstart() called on atlantis
*** at Wed Apr 20 01:14:10 2022

   => Loading Basis Set <=

    Name: AUG-CC-PVTZ
    Role: ORBITAL
    Keyword: BASIS
    atoms 1-3 entry C          line   235 file /home/akrom/software/anaconda3/envs/ffpenv/share/psi4/basis/aug-cc-pvtz.gbs 
    atoms 4-9 entry H          line    36 file /home/akrom/software/anaconda3/envs/ffpenv/share/psi4/basis/aug-cc-pvtz.gbs 


         ---------------------------------------------------------
                                   SCF
               by Justin Turney, Rob Parrish, Andy Simmonett
                          and Daniel G. A. Smith
                              RHF Reference
                        1 Threads,    500 MiB Core
         ---------------------------------------------------------

  ==> Geometry <==

    Molecular point group: cs
    Full point group: Cs

    Geometry (in Angstrom), charge = 0, multiplicity = 1:

       Center              X                  Y                   Z               Mass       
    ------------   -----------------  -----------------  -----------------  -----------------
         C            0.321531939855     0.813261460475     0.000000000000    12.000000000000
         C           -0.865048060145    -0.128168539525     0.000000000000    12.000000000000
         C            0.543531939855    -0.685078539525     0.000000000000    12.000000000000
         H            0.537951939855     1.360691460475    -0.920390000000     1.007825032230
         H            0.537951939855     1.360691460475     0.920390000000     1.007825032230
         H           -1.447418060145    -0.214488539525     0.920340000000     1.007825032230
         H           -1.447418060145    -0.214488539525    -0.920340000000     1.007825032230
         H            0.909371939855    -1.146288539525    -0.920370000000     1.007825032230
         H            0.909371939855    -1.146288539525     0.920370000000     1.007825032230

  Running in cs symmetry.

  Rotational constants: A =      0.66472  B =      0.66470  C =      0.41647 [cm^-1]
  Rotational constants: A =  19927.70596  B =  19927.20236  C =  12485.44714 [MHz]
  Nuclear repulsion =   75.281464809014025

  Charge       = 0
  Multiplicity = 1
  Electrons    = 24
  Nalpha       = 12
  Nbeta        = 12

  ==> Algorithm <==

  SCF Algorithm Type is DF.
  DIIS enabled.
  MOM disabled.
  Fractional occupation disabled.
  Guess Type is SAD.
  Energy threshold   = 1.00e-08
  Density threshold  = 1.00e-08
  Integral threshold = 0.00e+00

  ==> Primary Basis <==

  Basis Set: AUG-CC-PVTZ
    Blend: AUG-CC-PVTZ
    Number of shells: 96
    Number of basis function: 276
    Number of Cartesian functions: 315
    Spherical Harmonics?: true
    Max angular momentum: 3

   => Loading Basis Set <=

    Name: (AUG-CC-PVTZ AUX)
    Role: JKFIT
    Keyword: DF_BASIS_SCF
    atoms 1-3 entry C          line   162 file /home/akrom/software/anaconda3/envs/ffpenv/share/psi4/basis/aug-cc-pvtz-jkfit.gbs 
    atoms 4-9 entry H          line    70 file /home/akrom/software/anaconda3/envs/ffpenv/share/psi4/basis/aug-cc-pvtz-jkfit.gbs 

  ==> Pre-Iterations <==

   -------------------------------------------------------
    Irrep   Nso     Nmo     Nalpha   Nbeta   Ndocc  Nsocc
   -------------------------------------------------------
     A'       159     159       0       0       0       0
     A"       117     117       0       0       0       0
   -------------------------------------------------------
    Total     276     276      12      12      12       0
   -------------------------------------------------------

  ==> Integral Setup <==

  DFHelper Memory: AOs need 0.352 GiB; user supplied 0.366 GiB. Using in-core AOs.

  ==> MemDFJK: Density-Fitted J/K Matrices <==

    J tasked:                   Yes
    K tasked:                   Yes
    wK tasked:                   No
    OpenMP threads:               1
    Memory [MiB]:               375
    Algorithm:                 Core
    Schwarz Cutoff:           1E-12
    Mask sparsity (%):       0.0000
    Fitting Condition:        1E-10

   => Auxiliary Basis Set <=

  Basis Set: (AUG-CC-PVTZ AUX)
    Blend: AUG-CC-PVTZ-JKFIT
    Number of shells: 174
    Number of basis function: 588
    Number of Cartesian functions: 723
    Spherical Harmonics?: true
    Max angular momentum: 4

  Minimum eigenvalue in the overlap matrix is 1.6775936804E-05.
  Using Symmetric Orthogonalization.

  SCF Guess: Superposition of Atomic Densities via on-the-fly atomic UHF.

  ==> Iterations <==

                           Total Energy        Delta E     RMS |[F,P]|

   @DF-RHF iter SAD:  -116.63825761170123   -1.16638e+02   0.00000e+00 
   @DF-RHF iter   1:  -116.97228224778016   -3.34025e-01   2.36326e-03 DIIS
   @DF-RHF iter   2:  -117.07068785222563   -9.84056e-02   1.20228e-03 DIIS
   @DF-RHF iter   3:  -117.09885193787090   -2.81641e-02   1.77075e-04 DIIS
   @DF-RHF iter   4:  -117.10006241876154   -1.21048e-03   2.41270e-05 DIIS
   @DF-RHF iter   5:  -117.10009568862120   -3.32699e-05   5.70773e-06 DIIS
   @DF-RHF iter   6:  -117.10009766214532   -1.97352e-06   9.93098e-07 DIIS
   @DF-RHF iter   7:  -117.10009772938866   -6.72433e-08   1.57084e-07 DIIS
   @DF-RHF iter   8:  -117.10009773083806   -1.44939e-09   1.91127e-08 DIIS
   @DF-RHF iter   9:  -117.10009773085764   -1.95826e-11   3.43042e-09 DIIS
  Energy and wave function converged.


  ==> Post-Iterations <==

    Orbital Energies [Eh]
    ---------------------

    Doubly Occupied:                                                      

       1Ap   -11.227512     2Ap   -11.226536     3Ap   -11.226531  
       4Ap    -1.124705     5Ap    -0.813984     6Ap    -0.813979  
       1App   -0.662781     7Ap    -0.621912     2App   -0.510215  
       3App   -0.510199     8Ap    -0.417243     9Ap    -0.417235  

    Virtual:                                                              

      10Ap     0.033134     4App    0.040405    11Ap     0.042026  
      12Ap     0.042026     5App    0.061726     6App    0.061728  
      13Ap     0.097999    14Ap     0.098262    15Ap     0.098263  
      16Ap     0.124942    17Ap     0.124945    18Ap     0.133147  
       7App    0.141768    19Ap     0.148368     8App    0.165648  
       9App    0.165651    20Ap     0.183917    21Ap     0.183920  
      22Ap     0.247723    10App    0.249935    11App    0.249937  
      12App    0.260030    23Ap     0.278890    24Ap     0.290251  
      25Ap     0.293337    26Ap     0.293339    27Ap     0.325654  
      28Ap     0.325660    13App    0.343065    14App    0.344642  
      29Ap     0.355373    30Ap     0.355374    15App    0.374611  
      16App    0.374617    17App    0.387785    18App    0.387789  
      31Ap     0.404556    19App    0.414012    32Ap     0.416095  
      33Ap     0.416099    34Ap     0.438012    35Ap     0.438018  
      36Ap     0.438109    37Ap     0.451730    20App    0.480969  
      21App    0.507736    22App    0.507740    38Ap     0.509663  
      39Ap     0.512741    23App    0.514292    24App    0.514297  
      40Ap     0.522487    41Ap     0.522495    42Ap     0.541986  
      43Ap     0.541991    44Ap     0.604898    45Ap     0.604908  
      25App    0.608708    26App    0.608732    46Ap     0.649264  
      27App    0.668408    28App    0.693857    47Ap     0.748856  
      48Ap     0.748860    29App    0.791090    30App    0.791097  
      31App    0.826803    49Ap     0.851287    50Ap     0.882258  
      51Ap     0.882258    52Ap     0.884105    32App    0.893643  
      33App    0.893646    53Ap     0.929780    54Ap     0.932436  
      55Ap     0.932448    56Ap     0.948323    57Ap     0.955281  
      58Ap     0.955286    34App    0.982327    35App    0.982335  
      36App    0.995278    37App    1.009046    59Ap     1.012074  
      60Ap     1.012094    38App    1.041870    61Ap     1.065412  
      62Ap     1.065418    39App    1.095283    40App    1.095286  
      41App    1.104195    42App    1.104196    63Ap     1.111847  
      64Ap     1.124699    65Ap     1.164834    66Ap     1.164848  
      67Ap     1.173879    68Ap     1.227248    69Ap     1.227251  
      43App    1.234932    44App    1.234943    70Ap     1.246921  
      45App    1.306518    46App    1.306526    47App    1.362369  
      48App    1.375102    49App    1.377191    71Ap     1.390631  
      72Ap     1.390661    50App    1.393560    51App    1.393568  
      73Ap     1.435672    74Ap     1.525602    75Ap     1.525615  
      76Ap     1.550183    77Ap     1.550191    52App    1.551452  
      53App    1.571428    54App    1.571460    78Ap     1.579990  
      79Ap     1.648184    80Ap     1.648186    81Ap     1.676815  
      55App    1.678412    56App    1.716617    82Ap     1.746461  
      83Ap     1.753433    84Ap     1.753441    57App    1.836066  
      58App    1.836080    59App    1.863409    60App    1.863426  
      85Ap     1.875414    86Ap     1.887476    87Ap     1.908135  
      88Ap     1.908143    61App    1.948259    89Ap     1.953646  
      90Ap     1.953672    62App    2.016652    63App    2.016659  
      91Ap     2.032364    92Ap     2.053638    93Ap     2.053646  
      94Ap     2.087275    64App    2.104336    65App    2.141781  
      95Ap     2.208593    96Ap     2.208641    66App    2.235738  
      67App    2.235812    68App    2.331522    69App    2.331554  
      70App    2.384815    97Ap     2.387078    98Ap     2.387113  
      71App    2.477849    72App    2.477871    99Ap     2.550256  
     100Ap     2.553277   101Ap     2.612767   102Ap     2.612834  
      73App    2.955654   103Ap     3.096109   104Ap     3.189948  
     105Ap     3.189997    74App    3.306647    75App    3.306691  
     106Ap     3.349981   107Ap     3.405901   108Ap     3.405953  
     109Ap     3.431896    76App    3.471661   110Ap     3.549098  
      77App    3.611016    78App    3.626218    79App    3.626242  
     111Ap     3.630888   112Ap     3.630902   113Ap     3.669049  
     114Ap     3.669074   115Ap     3.687289    80App    3.724625  
      81App    3.724661    82App    3.730761   116Ap     3.810608  
     117Ap     3.825750   118Ap     3.825769    83App    3.881910  
      84App    3.881928    85App    3.909624   119Ap     3.959553  
      86App    4.010709   120Ap     4.022519   121Ap     4.022534  
      87App    4.064888    88App    4.064915   122Ap     4.123318  
     123Ap     4.123346    89App    4.139407    90App    4.139428  
      91App    4.194684   124Ap     4.199527   125Ap     4.299634  
     126Ap     4.313824   127Ap     4.313841   128Ap     4.355757  
     129Ap     4.355782    92App    4.360740    93App    4.360800  
      94App    4.420030    95App    4.483189    96App    4.483202  
     130Ap     4.529039   131Ap     4.676884   132Ap     4.753223  
     133Ap     4.753242    97App    4.799291    98App    4.799303  
     134Ap     4.839061   135Ap     4.852638   136Ap     4.852695  
      99App    4.881157   100App    4.881191   137Ap     4.922680  
     138Ap     4.922688   101App    4.972373   139Ap     4.982708  
     140Ap     4.982747   102App    5.167749   103App    5.171310  
     141Ap     5.179708   142Ap     5.179724   143Ap     5.223197  
     144Ap     5.295144   104App    5.357554   105App    5.357594  
     145Ap     5.439897   146Ap     5.439947   106App    5.523372  
     107App    5.523398   108App    5.577858   147Ap     5.646508  
     148Ap     5.665545   149Ap     5.665594   150Ap     5.668994  
     109App    5.688718   110App    5.726066   111App    5.913291  
     112App    5.913328   151Ap     6.008482   152Ap     6.119791  
     153Ap     6.314476   154Ap     6.314508   155Ap     6.413122  
     156Ap     6.413171   113App    6.496629   114App    6.500653  
     115App    6.500772   116App    6.768226   117App    6.768272  
     157Ap    16.543141   158Ap    17.105397   159Ap    17.105680  

    Final Occupation by Irrep:
             Ap   App 
    DOCC [     9,    3 ]

  @DF-RHF Final Energy:  -117.10009773085764

   => Energetics <=

    Nuclear Repulsion Energy =             75.2814648090140253
    One-Electron Energy =                -305.6174573868937614
    Two-Electron Energy =                 113.2358948470220810
    Total Energy =                       -117.1000977308576410

Computation Completed


Properties will be evaluated at   0.000000,   0.000000,   0.000000 [a0]

Properties computed using the SCF density matrix

  Nuclear Dipole Moment: [e a0]
     X:    -0.0002      Y:    -0.0002      Z:     0.0000

  Electronic Dipole Moment: [e a0]
     X:     0.0002      Y:     0.0001      Z:     0.0000

  Dipole Moment: [e a0]
     X:    -0.0000      Y:    -0.0000      Z:     0.0000     Total:     0.0000

  Dipole Moment: [D]
     X:    -0.0001      Y:    -0.0001      Z:     0.0000     Total:     0.0001


*** tstop() called on atlantis at Wed Apr 20 01:14:13 2022
Module time:
	user time   =       3.26 seconds =       0.05 minutes
	system time =       0.08 seconds =       0.00 minutes
	total time  =          3 seconds =       0.05 minutes
Total time:
	user time   =       6.35 seconds =       0.11 minutes
	system time =       0.19 seconds =       0.00 minutes
	total time  =          6 seconds =       0.10 minutes

*** tstart() called on atlantis
*** at Wed Apr 20 01:14:13 2022


         ------------------------------------------------------------
                                   SCF GRAD                          
                          Rob Parrish, Justin Turney,                
                       Andy Simmonett, and Alex Sokolov              
         ------------------------------------------------------------

  ==> Geometry <==

    Molecular point group: cs
    Full point group: Cs

    Geometry (in Angstrom), charge = 0, multiplicity = 1:

       Center              X                  Y                   Z               Mass       
    ------------   -----------------  -----------------  -----------------  -----------------
         C            0.321531939855     0.813261460475     0.000000000000    12.000000000000
         C           -0.865048060145    -0.128168539525     0.000000000000    12.000000000000
         C            0.543531939855    -0.685078539525     0.000000000000    12.000000000000
         H            0.537951939855     1.360691460475    -0.920390000000     1.007825032230
         H            0.537951939855     1.360691460475     0.920390000000     1.007825032230
         H           -1.447418060145    -0.214488539525     0.920340000000     1.007825032230
         H           -1.447418060145    -0.214488539525    -0.920340000000     1.007825032230
         H            0.909371939855    -1.146288539525    -0.920370000000     1.007825032230
         H            0.909371939855    -1.146288539525     0.920370000000     1.007825032230

  Nuclear repulsion =   75.281464809014025

  ==> Basis Set <==

  Basis Set: AUG-CC-PVTZ
    Blend: AUG-CC-PVTZ
    Number of shells: 96
    Number of basis function: 276
    Number of Cartesian functions: 315
    Spherical Harmonics?: true
    Max angular momentum: 3

  ==> DFJKGrad: Density-Fitted SCF Gradients <==

    Gradient:                    1
    J tasked:                  Yes
    K tasked:                  Yes
    wK tasked:                  No
    OpenMP threads:              1
    Integrals threads:           1
    Memory [MiB]:              375
    Schwarz Cutoff:          0E+00
    Fitting Condition:       1E-10

   => Auxiliary Basis Set <=

  Basis Set: (AUG-CC-PVTZ AUX)
    Blend: AUG-CC-PVTZ-JKFIT
    Number of shells: 174
    Number of basis function: 588
    Number of Cartesian functions: 723
    Spherical Harmonics?: true
    Max angular momentum: 4


  -Total Gradient:
     Atom            X                  Y                   Z
    ------   -----------------  -----------------  -----------------
       1        0.001396272403     0.003532294759     0.000000000000
       2       -0.003729599178    -0.000548391651     0.000000000000
       3        0.002359506615    -0.002961420904     0.000000000000
       4        0.002511454964     0.006356164737    -0.011998568627
       5        0.002511454964     0.006356164737     0.011998568627
       6       -0.006770572155    -0.001006318922     0.011987830517
       7       -0.006770572155    -0.001006318922    -0.011987830517
       8        0.004246027271    -0.005361086917    -0.011994395863
       9        0.004246027271    -0.005361086917     0.011994395863


*** tstop() called on atlantis at Wed Apr 20 01:14:19 2022
Module time:
	user time   =       5.60 seconds =       0.09 minutes
	system time =       0.16 seconds =       0.00 minutes
	total time  =          6 seconds =       0.10 minutes
Total time:
	user time   =      11.95 seconds =       0.20 minutes
	system time =       0.35 seconds =       0.01 minutes
	total time  =         12 seconds =       0.20 minutes

  Based on options and gradient (rms=6.63E-03), recommend projecting translations and projecting rotations.
hessian() will perform analytic frequency computation.

*** tstart() called on atlantis
*** at Wed Apr 20 01:14:19 2022

   => Loading Basis Set <=

    Name: AUG-CC-PVTZ
    Role: ORBITAL
    Keyword: BASIS
    atoms 1-3 entry C          line   235 file /home/akrom/software/anaconda3/envs/ffpenv/share/psi4/basis/aug-cc-pvtz.gbs 
    atoms 4-9 entry H          line    36 file /home/akrom/software/anaconda3/envs/ffpenv/share/psi4/basis/aug-cc-pvtz.gbs 


         ---------------------------------------------------------
                                   SCF
               by Justin Turney, Rob Parrish, Andy Simmonett
                          and Daniel G. A. Smith
                              RHF Reference
                        1 Threads,    500 MiB Core
         ---------------------------------------------------------

  ==> Geometry <==

    Molecular point group: cs
    Full point group: Cs

    Geometry (in Angstrom), charge = 0, multiplicity = 1:

       Center              X                  Y                   Z               Mass       
    ------------   -----------------  -----------------  -----------------  -----------------
         C            0.321531939855     0.813261460475     0.000000000000    12.000000000000
         C           -0.865048060145    -0.128168539525     0.000000000000    12.000000000000
         C            0.543531939855    -0.685078539525     0.000000000000    12.000000000000
         H            0.537951939855     1.360691460475    -0.920390000000     1.007825032230
         H            0.537951939855     1.360691460475     0.920390000000     1.007825032230
         H           -1.447418060145    -0.214488539525     0.920340000000     1.007825032230
         H           -1.447418060145    -0.214488539525    -0.920340000000     1.007825032230
         H            0.909371939855    -1.146288539525    -0.920370000000     1.007825032230
         H            0.909371939855    -1.146288539525     0.920370000000     1.007825032230

  Running in cs symmetry.

  Rotational constants: A =      0.66472  B =      0.66470  C =      0.41647 [cm^-1]
  Rotational constants: A =  19927.70596  B =  19927.20236  C =  12485.44714 [MHz]
  Nuclear repulsion =   75.281464809014025

  Charge       = 0
  Multiplicity = 1
  Electrons    = 24
  Nalpha       = 12
  Nbeta        = 12

  ==> Algorithm <==

  SCF Algorithm Type is DF.
  DIIS enabled.
  MOM disabled.
  Fractional occupation disabled.
  Guess Type is SAD.
  Energy threshold   = 1.00e-08
  Density threshold  = 1.00e-08
  Integral threshold = 0.00e+00

  ==> Primary Basis <==

  Basis Set: AUG-CC-PVTZ
    Blend: AUG-CC-PVTZ
    Number of shells: 96
    Number of basis function: 276
    Number of Cartesian functions: 315
    Spherical Harmonics?: true
    Max angular momentum: 3

   => Loading Basis Set <=

    Name: (AUG-CC-PVTZ AUX)
    Role: JKFIT
    Keyword: DF_BASIS_SCF
    atoms 1-3 entry C          line   162 file /home/akrom/software/anaconda3/envs/ffpenv/share/psi4/basis/aug-cc-pvtz-jkfit.gbs 
    atoms 4-9 entry H          line    70 file /home/akrom/software/anaconda3/envs/ffpenv/share/psi4/basis/aug-cc-pvtz-jkfit.gbs 

  ==> Pre-Iterations <==

   -------------------------------------------------------
    Irrep   Nso     Nmo     Nalpha   Nbeta   Ndocc  Nsocc
   -------------------------------------------------------
     A'       159     159       0       0       0       0
     A"       117     117       0       0       0       0
   -------------------------------------------------------
    Total     276     276      12      12      12       0
   -------------------------------------------------------

  ==> Integral Setup <==

  DFHelper Memory: AOs need 0.352 GiB; user supplied 0.366 GiB. Using in-core AOs.

  ==> MemDFJK: Density-Fitted J/K Matrices <==

    J tasked:                   Yes
    K tasked:                   Yes
    wK tasked:                   No
    OpenMP threads:               1
    Memory [MiB]:               375
    Algorithm:                 Core
    Schwarz Cutoff:           1E-12
    Mask sparsity (%):       0.0000
    Fitting Condition:        1E-10

   => Auxiliary Basis Set <=

  Basis Set: (AUG-CC-PVTZ AUX)
    Blend: AUG-CC-PVTZ-JKFIT
    Number of shells: 174
    Number of basis function: 588
    Number of Cartesian functions: 723
    Spherical Harmonics?: true
    Max angular momentum: 4

  Minimum eigenvalue in the overlap matrix is 1.6775936804E-05.
  Using Symmetric Orthogonalization.

  SCF Guess: Superposition of Atomic Densities via on-the-fly atomic UHF.

  ==> Iterations <==

                           Total Energy        Delta E     RMS |[F,P]|

   @DF-RHF iter SAD:  -116.63825761170119   -1.16638e+02   0.00000e+00 
   @DF-RHF iter   1:  -116.97228224778000   -3.34025e-01   2.36326e-03 DIIS
   @DF-RHF iter   2:  -117.07068785222660   -9.84056e-02   1.20228e-03 DIIS
   @DF-RHF iter   3:  -117.09885193787083   -2.81641e-02   1.77075e-04 DIIS
   @DF-RHF iter   4:  -117.10006241876243   -1.21048e-03   2.41270e-05 DIIS
   @DF-RHF iter   5:  -117.10009568862158   -3.32699e-05   5.70773e-06 DIIS
   @DF-RHF iter   6:  -117.10009766214387   -1.97352e-06   9.93098e-07 DIIS
   @DF-RHF iter   7:  -117.10009772938926   -6.72454e-08   1.57084e-07 DIIS
   @DF-RHF iter   8:  -117.10009773083843   -1.44917e-09   1.91127e-08 DIIS
   @DF-RHF iter   9:  -117.10009773085719   -1.87583e-11   3.43042e-09 DIIS
  Energy and wave function converged.


  ==> Post-Iterations <==

    Orbital Energies [Eh]
    ---------------------

    Doubly Occupied:                                                      

       1Ap   -11.227512     2Ap   -11.226536     3Ap   -11.226531  
       4Ap    -1.124705     5Ap    -0.813984     6Ap    -0.813979  
       1App   -0.662781     7Ap    -0.621912     2App   -0.510215  
       3App   -0.510199     8Ap    -0.417243     9Ap    -0.417235  

    Virtual:                                                              

      10Ap     0.033134     4App    0.040405    11Ap     0.042026  
      12Ap     0.042026     5App    0.061726     6App    0.061728  
      13Ap     0.097999    14Ap     0.098262    15Ap     0.098263  
      16Ap     0.124942    17Ap     0.124945    18Ap     0.133147  
       7App    0.141768    19Ap     0.148368     8App    0.165648  
       9App    0.165651    20Ap     0.183917    21Ap     0.183920  
      22Ap     0.247723    10App    0.249935    11App    0.249937  
      12App    0.260030    23Ap     0.278890    24Ap     0.290251  
      25Ap     0.293337    26Ap     0.293339    27Ap     0.325654  
      28Ap     0.325660    13App    0.343065    14App    0.344642  
      29Ap     0.355373    30Ap     0.355374    15App    0.374611  
      16App    0.374617    17App    0.387785    18App    0.387789  
      31Ap     0.404556    19App    0.414012    32Ap     0.416095  
      33Ap     0.416099    34Ap     0.438012    35Ap     0.438018  
      36Ap     0.438109    37Ap     0.451730    20App    0.480969  
      21App    0.507736    22App    0.507740    38Ap     0.509663  
      39Ap     0.512741    23App    0.514292    24App    0.514297  
      40Ap     0.522487    41Ap     0.522495    42Ap     0.541986  
      43Ap     0.541991    44Ap     0.604898    45Ap     0.604908  
      25App    0.608708    26App    0.608732    46Ap     0.649264  
      27App    0.668408    28App    0.693857    47Ap     0.748856  
      48Ap     0.748860    29App    0.791090    30App    0.791097  
      31App    0.826803    49Ap     0.851287    50Ap     0.882258  
      51Ap     0.882258    52Ap     0.884105    32App    0.893643  
      33App    0.893646    53Ap     0.929780    54Ap     0.932436  
      55Ap     0.932448    56Ap     0.948323    57Ap     0.955281  
      58Ap     0.955286    34App    0.982327    35App    0.982335  
      36App    0.995278    37App    1.009046    59Ap     1.012074  
      60Ap     1.012094    38App    1.041870    61Ap     1.065412  
      62Ap     1.065418    39App    1.095283    40App    1.095286  
      41App    1.104195    42App    1.104196    63Ap     1.111847  
      64Ap     1.124699    65Ap     1.164834    66Ap     1.164848  
      67Ap     1.173879    68Ap     1.227248    69Ap     1.227251  
      43App    1.234932    44App    1.234943    70Ap     1.246921  
      45App    1.306518    46App    1.306526    47App    1.362369  
      48App    1.375102    49App    1.377191    71Ap     1.390631  
      72Ap     1.390661    50App    1.393560    51App    1.393568  
      73Ap     1.435672    74Ap     1.525602    75Ap     1.525615  
      76Ap     1.550183    77Ap     1.550191    52App    1.551452  
      53App    1.571428    54App    1.571460    78Ap     1.579990  
      79Ap     1.648184    80Ap     1.648186    81Ap     1.676815  
      55App    1.678412    56App    1.716617    82Ap     1.746461  
      83Ap     1.753433    84Ap     1.753441    57App    1.836066  
      58App    1.836080    59App    1.863409    60App    1.863426  
      85Ap     1.875414    86Ap     1.887476    87Ap     1.908135  
      88Ap     1.908143    61App    1.948259    89Ap     1.953646  
      90Ap     1.953672    62App    2.016652    63App    2.016659  
      91Ap     2.032364    92Ap     2.053638    93Ap     2.053646  
      94Ap     2.087275    64App    2.104336    65App    2.141781  
      95Ap     2.208593    96Ap     2.208641    66App    2.235738  
      67App    2.235812    68App    2.331522    69App    2.331554  
      70App    2.384815    97Ap     2.387078    98Ap     2.387113  
      71App    2.477849    72App    2.477871    99Ap     2.550256  
     100Ap     2.553277   101Ap     2.612767   102Ap     2.612834  
      73App    2.955654   103Ap     3.096109   104Ap     3.189948  
     105Ap     3.189997    74App    3.306647    75App    3.306691  
     106Ap     3.349981   107Ap     3.405901   108Ap     3.405953  
     109Ap     3.431896    76App    3.471661   110Ap     3.549098  
      77App    3.611016    78App    3.626218    79App    3.626242  
     111Ap     3.630888   112Ap     3.630902   113Ap     3.669049  
     114Ap     3.669074   115Ap     3.687289    80App    3.724625  
      81App    3.724661    82App    3.730761   116Ap     3.810608  
     117Ap     3.825750   118Ap     3.825769    83App    3.881910  
      84App    3.881928    85App    3.909624   119Ap     3.959553  
      86App    4.010709   120Ap     4.022519   121Ap     4.022534  
      87App    4.064888    88App    4.064915   122Ap     4.123318  
     123Ap     4.123346    89App    4.139407    90App    4.139428  
      91App    4.194684   124Ap     4.199527   125Ap     4.299634  
     126Ap     4.313824   127Ap     4.313841   128Ap     4.355757  
     129Ap     4.355782    92App    4.360740    93App    4.360800  
      94App    4.420030    95App    4.483189    96App    4.483202  
     130Ap     4.529039   131Ap     4.676884   132Ap     4.753223  
     133Ap     4.753242    97App    4.799291    98App    4.799303  
     134Ap     4.839061   135Ap     4.852638   136Ap     4.852695  
      99App    4.881157   100App    4.881191   137Ap     4.922680  
     138Ap     4.922688   101App    4.972373   139Ap     4.982708  
     140Ap     4.982747   102App    5.167749   103App    5.171310  
     141Ap     5.179708   142Ap     5.179724   143Ap     5.223197  
     144Ap     5.295144   104App    5.357554   105App    5.357594  
     145Ap     5.439897   146Ap     5.439947   106App    5.523372  
     107App    5.523398   108App    5.577858   147Ap     5.646508  
     148Ap     5.665545   149Ap     5.665594   150Ap     5.668994  
     109App    5.688718   110App    5.726066   111App    5.913291  
     112App    5.913328   151Ap     6.008482   152Ap     6.119791  
     153Ap     6.314476   154Ap     6.314508   155Ap     6.413122  
     156Ap     6.413171   113App    6.496629   114App    6.500653  
     115App    6.500772   116App    6.768226   117App    6.768272  
     157Ap    16.543141   158Ap    17.105397   159Ap    17.105680  

    Final Occupation by Irrep:
             Ap   App 
    DOCC [     9,    3 ]

  @DF-RHF Final Energy:  -117.10009773085719

   => Energetics <=

    Nuclear Repulsion Energy =             75.2814648090140253
    One-Electron Energy =                -305.6174573868882476
    Two-Electron Energy =                 113.2358948470170219
    Total Energy =                       -117.1000977308571862

Computation Completed


Properties will be evaluated at   0.000000,   0.000000,   0.000000 [a0]

Properties computed using the SCF density matrix

  Nuclear Dipole Moment: [e a0]
     X:    -0.0002      Y:    -0.0002      Z:     0.0000

  Electronic Dipole Moment: [e a0]
     X:     0.0002      Y:     0.0001      Z:     0.0000

  Dipole Moment: [e a0]
     X:    -0.0000      Y:    -0.0000      Z:     0.0000     Total:     0.0000

  Dipole Moment: [D]
     X:    -0.0001      Y:    -0.0001      Z:     0.0000     Total:     0.0001


*** tstop() called on atlantis at Wed Apr 20 01:14:22 2022
Module time:
	user time   =       3.26 seconds =       0.05 minutes
	system time =       0.08 seconds =       0.00 minutes
	total time  =          3 seconds =       0.05 minutes
Total time:
	user time   =      15.21 seconds =       0.25 minutes
	system time =       0.43 seconds =       0.01 minutes
	total time  =         15 seconds =       0.25 minutes

*** tstart() called on atlantis
*** at Wed Apr 20 01:14:22 2022


         ------------------------------------------------------------
                                   SCF HESS                          
                          Rob Parrish, Justin Turney,                
                       Andy Simmonett, and Alex Sokolov              
         ------------------------------------------------------------

  ==> Geometry <==

    Molecular point group: cs
    Full point group: Cs

    Geometry (in Angstrom), charge = 0, multiplicity = 1:

       Center              X                  Y                   Z               Mass       
    ------------   -----------------  -----------------  -----------------  -----------------
         C            0.321531939855     0.813261460475     0.000000000000    12.000000000000
         C           -0.865048060145    -0.128168539525     0.000000000000    12.000000000000
         C            0.543531939855    -0.685078539525     0.000000000000    12.000000000000
         H            0.537951939855     1.360691460475    -0.920390000000     1.007825032230
         H            0.537951939855     1.360691460475     0.920390000000     1.007825032230
         H           -1.447418060145    -0.214488539525     0.920340000000     1.007825032230
         H           -1.447418060145    -0.214488539525    -0.920340000000     1.007825032230
         H            0.909371939855    -1.146288539525    -0.920370000000     1.007825032230
         H            0.909371939855    -1.146288539525     0.920370000000     1.007825032230

  Nuclear repulsion =   75.281464809014025

  ==> Basis Set <==

  Basis Set: AUG-CC-PVTZ
    Blend: AUG-CC-PVTZ
    Number of shells: 96
    Number of basis function: 276
    Number of Cartesian functions: 315
    Spherical Harmonics?: true
    Max angular momentum: 3

  ==> DFJKGrad: Density-Fitted SCF Gradients <==

    Gradient:                    2
    J tasked:                  Yes
    K tasked:                  Yes
    wK tasked:                  No
    OpenMP threads:              1
    Integrals threads:           1
    Memory [MiB]:              375
    Schwarz Cutoff:          0E+00
    Fitting Condition:       1E-10

   => Auxiliary Basis Set <=

  Basis Set: (AUG-CC-PVTZ AUX)
    Blend: AUG-CC-PVTZ-JKFIT
    Number of shells: 174
    Number of basis function: 588
    Number of Cartesian functions: 723
    Spherical Harmonics?: true
    Max angular momentum: 4

