
    -----------------------------------------------------------------------
          Psi4: An Open-Source Ab Initio Electronic Structure Package
                               Psi4 1.3.2 release

                         Git: Rev {HEAD} ecbda83 


    R. M. Parrish, L. A. Burns, D. G. A. Smith, A. C. Simmonett,
    A. E. DePrince III, E. G. Hohenstein, U. Bozkaya, A. Yu. Sokolov,
    R. Di Remigio, R. M. Richard, J. F. Gonthier, A. M. James,
    H. R. McAlexander, A. Kumar, M. Saitow, X. Wang, B. P. Pritchard,
    P. Verma, H. F. Schaefer III, K. Patkowski, R. A. King, E. F. Valeev,
    F. A. Evangelista, J. M. Turney, T. D. Crawford, and C. D. Sherrill,
    J. Chem. Theory Comput. 13(7) pp 3185--3197 (2017).
    (doi: 10.1021/acs.jctc.7b00174)


                         Additional Contributions by
    P. Kraus, H. Kruse, M. H. Lechner, M. C. Schieber, R. A. Shaw,
    A. Alenaizan, R. Galvelis, Z. L. Glick, S. Lehtola, and J. P. Misiewicz

    -----------------------------------------------------------------------


    Psi4 started on: Tuesday, 19 April 2022 02:16PM

    Process ID: 2044
    Host:       atlantis
    PSIDATADIR: /home/akrom/software/anaconda3/envs/ffpenv/share/psi4
    Memory:     500.0 MiB
    Threads:    1
    
  ==> Input File <==

--------------------------------------------------------------------------
set basis  6-311++G**
molecule {
0 1
   C        0.32153        0.81326        0.00000
   C       -0.86505       -0.12817        0.00000
   C        0.54353       -0.68508        0.00000
   H        0.53795        1.36069       -0.92039
   H        0.53795        1.36069        0.92039
   H       -1.44742       -0.21449        0.92034
   H       -1.44742       -0.21449       -0.92034
   H        0.90937       -1.14629       -0.92037
   H        0.90937       -1.14629        0.92037
}
energy('B3LYP')
frequencies('B3LYP')
--------------------------------------------------------------------------

*** tstart() called on atlantis
*** at Tue Apr 19 14:16:16 2022

   => Loading Basis Set <=

    Name: 6-311++G**
    Role: ORBITAL
    Keyword: BASIS
    atoms 1-3 entry C          line   119 file /home/akrom/software/anaconda3/envs/ffpenv/share/psi4/basis/6-311ppgss.gbs 
    atoms 4-9 entry H          line    42 file /home/akrom/software/anaconda3/envs/ffpenv/share/psi4/basis/6-311ppgss.gbs 


         ---------------------------------------------------------
                                   SCF
               by Justin Turney, Rob Parrish, Andy Simmonett
                          and Daniel G. A. Smith
                              RKS Reference
                        1 Threads,    500 MiB Core
         ---------------------------------------------------------

  ==> Geometry <==

    Molecular point group: cs
    Full point group: Cs

    Geometry (in Angstrom), charge = 0, multiplicity = 1:

       Center              X                  Y                   Z               Mass       
    ------------   -----------------  -----------------  -----------------  -----------------
         C            0.321531939855     0.813261460475     0.000000000000    12.000000000000
         C           -0.865048060145    -0.128168539525     0.000000000000    12.000000000000
         C            0.543531939855    -0.685078539525     0.000000000000    12.000000000000
         H            0.537951939855     1.360691460475    -0.920390000000     1.007825032230
         H            0.537951939855     1.360691460475     0.920390000000     1.007825032230
         H           -1.447418060145    -0.214488539525     0.920340000000     1.007825032230
         H           -1.447418060145    -0.214488539525    -0.920340000000     1.007825032230
         H            0.909371939855    -1.146288539525    -0.920370000000     1.007825032230
         H            0.909371939855    -1.146288539525     0.920370000000     1.007825032230

  Running in cs symmetry.

  Rotational constants: A =      0.66472  B =      0.66470  C =      0.41647 [cm^-1]
  Rotational constants: A =  19927.70596  B =  19927.20236  C =  12485.44714 [MHz]
  Nuclear repulsion =   75.281464809014025

  Charge       = 0
  Multiplicity = 1
  Electrons    = 24
  Nalpha       = 12
  Nbeta        = 12

  ==> Algorithm <==

  SCF Algorithm Type is DF.
  DIIS enabled.
  MOM disabled.
  Fractional occupation disabled.
  Guess Type is SAD.
  Energy threshold   = 1.00e-06
  Density threshold  = 1.00e-06
  Integral threshold = 0.00e+00

  ==> Primary Basis <==

  Basis Set: 6-311++G**
    Blend: 6-311++G**
    Number of shells: 60
    Number of basis function: 108
    Number of Cartesian functions: 111
    Spherical Harmonics?: true
    Max angular momentum: 2

  ==> DFT Potential <==

   => Composite Functional: B3LYP <= 

    B3LYP Hyb-GGA Exchange-Correlation Functional

    P. J. Stephens, F. J. Devlin, C. F. Chabalowski, and M. J. Frisch, J. Phys. Chem. 98, 11623 (1994)

    Deriv               =              1
    GGA                 =           TRUE
    Meta                =          FALSE

    Exchange Hybrid     =           TRUE
    MP2 Hybrid          =          FALSE

   => Exchange Functionals <=

    0.0800   Slater exchange
    0.7200         Becke 88

   => Exact (HF) Exchange <=

    0.2000               HF 

   => Correlation Functionals <=

    0.1900   Vosko, Wilk & Nusair (VWN5_RPA)
    0.8100   Lee, Yang & Parr

   => Molecular Quadrature <=

    Radial Scheme          =       TREUTLER
    Pruning Scheme         =           FLAT
    Nuclear Scheme         =       TREUTLER

    BS radius alpha        =              1
    Pruning alpha          =              1
    Radial Points          =             75
    Spherical Points       =            302
    Total Points           =         203850
    Total Blocks           =           1576
    Max Points             =            256
    Max Functions          =            108

   => Loading Basis Set <=

    Name: (6-311++G** AUX)
    Role: JKFIT
    Keyword: DF_BASIS_SCF
    atoms 1-3 entry C          line   162 file /home/akrom/software/anaconda3/envs/ffpenv/share/psi4/basis/aug-cc-pvtz-jkfit.gbs 
    atoms 4-9 entry H          line    70 file /home/akrom/software/anaconda3/envs/ffpenv/share/psi4/basis/aug-cc-pvtz-jkfit.gbs 

  ==> Pre-Iterations <==

   -------------------------------------------------------
    Irrep   Nso     Nmo     Nalpha   Nbeta   Ndocc  Nsocc
   -------------------------------------------------------
     A'        69      69       0       0       0       0
     A"        39      39       0       0       0       0
   -------------------------------------------------------
    Total     108     108      12      12      12       0
   -------------------------------------------------------

  ==> Integral Setup <==

  DFHelper Memory: AOs need 0.056 GiB; user supplied 0.056 GiB. Using in-core AOs.

  ==> MemDFJK: Density-Fitted J/K Matrices <==

    J tasked:                   Yes
    K tasked:                   Yes
    wK tasked:                   No
    OpenMP threads:               1
    Memory [MiB]:                57
    Algorithm:                 Core
    Schwarz Cutoff:           1E-12
    Mask sparsity (%):       0.0000
    Fitting Condition:        1E-10

   => Auxiliary Basis Set <=

  Basis Set: (6-311++G** AUX)
    Blend: AUG-CC-PVTZ-JKFIT
    Number of shells: 174
    Number of basis function: 588
    Number of Cartesian functions: 723
    Spherical Harmonics?: true
    Max angular momentum: 4

  Cached 100.0% of DFT collocation blocks in 0.573 [GiB].

  Minimum eigenvalue in the overlap matrix is 8.8978795943E-05.
  Using Symmetric Orthogonalization.

  SCF Guess: Superposition of Atomic Densities via on-the-fly atomic UHF.

  ==> Iterations <==

                           Total Energy        Delta E     RMS |[F,P]|

   @DF-RKS iter SAD:  -117.41598892191485   -1.17416e+02   0.00000e+00 
   @DF-RKS iter   1:  -117.45519268416935   -3.92038e-02   1.19947e-02 DIIS
   @DF-RKS iter   2:  -116.83597536416568    6.19217e-01   1.74897e-02 DIIS
   @DF-RKS iter   3:  -117.92821480059848   -1.09224e+00   8.31297e-04 DIIS
   @DF-RKS iter   4:  -117.93048734977404   -2.27255e-03   1.56787e-04 DIIS
   @DF-RKS iter   5:  -117.93055614608799   -6.87963e-05   2.08982e-05 DIIS
   @DF-RKS iter   6:  -117.93055760762286   -1.46153e-06   6.80370e-07 DIIS
   @DF-RKS iter   7:  -117.93055761155478   -3.93192e-09   6.26669e-08 DIIS
  Energy and wave function converged.


  ==> Post-Iterations <==

    Orbital Energies [Eh]
    ---------------------

    Doubly Occupied:                                                      

       1Ap   -10.173753     2Ap   -10.173387     3Ap   -10.173382  
       4Ap    -0.848922     5Ap    -0.597034     6Ap    -0.597029  
       1App   -0.494496     7Ap    -0.465797     2App   -0.366104  
       3App   -0.366091     8Ap    -0.297721     9Ap    -0.297715  

    Virtual:                                                              

      10Ap    -0.001520     4App    0.013453    11Ap     0.015948  
      12Ap     0.015949     5App    0.058372     6App    0.058375  
      13Ap     0.067597    14Ap     0.083058    15Ap     0.083059  
      16Ap     0.101114    17Ap     0.126571    18Ap     0.126575  
       7App    0.129395    19Ap     0.139892    20Ap     0.147350  
      21Ap     0.147352     8App    0.150290     9App    0.150295  
      10App    0.171012    22Ap     0.188593    23Ap     0.192249  
      11App    0.239974    12App    0.239987    24Ap     0.257248  
      25Ap     0.257255    26Ap     0.318833    27Ap     0.318840  
      28Ap     0.408768    13App    0.448270    29Ap     0.497555  
      30Ap     0.497568    14App    0.562699    15App    0.562735  
      31Ap     0.565637    32Ap     0.646814    33Ap     0.646820  
      34Ap     0.647750    16App    0.650604    17App    0.650612  
      18App    0.650758    35Ap     0.685549    36Ap     0.685560  
      37Ap     0.757819    38Ap     0.908731    39Ap     0.908738  
      19App    1.177645    40Ap     1.221444    20App    1.227999  
      21App    1.228009    22App    1.362843    41Ap     1.456472  
      42Ap     1.456498    23App    1.518562    24App    1.518618  
      43Ap     1.597201    25App    1.628904    44Ap     1.648812  
      45Ap     1.648849    26App    1.751344    27App    1.751373  
      46Ap     1.758201    47Ap     1.819013    48Ap     1.819020  
      49Ap     2.020623    50Ap     2.020630    28App    2.033499  
      29App    2.033510    51Ap     2.120464    52Ap     2.219975  
      53Ap     2.220036    54Ap     2.267797    55Ap     2.364311  
      30App    2.369730    31App    2.396683    32App    2.545437  
      33App    2.545456    56Ap     2.632682    57Ap     2.632736  
      34App    2.736029    58Ap     2.736155    59Ap     2.745323  
      60Ap     2.745346    61Ap     2.931054    62Ap     2.931069  
      35App    2.953184    36App    2.953228    63Ap     3.356463  
      64Ap     3.513590    37App    3.524574    38App    3.850474  
      39App    3.850498    65Ap     4.376958    66Ap     4.376994  
      67Ap    23.878144    68Ap    23.878170    69Ap    23.893778  

    Final Occupation by Irrep:
             Ap   App 
    DOCC [     9,    3 ]

  @DF-RKS Final Energy:  -117.93055761155478

   => Energetics <=

    Nuclear Repulsion Energy =             75.2814648090140253
    One-Electron Energy =                -305.9421943865953608
    Two-Electron Energy =                 127.7190783161353380
    DFT Exchange-Correlation Energy =     -14.9889063501087882
    Empirical Dispersion Energy =           0.0000000000000000
    VV10 Nonlocal Energy =                  0.0000000000000000
    Total Energy =                       -117.9305576115547751

Computation Completed


Properties will be evaluated at   0.000000,   0.000000,   0.000000 [a0]

Properties computed using the SCF density matrix

  Nuclear Dipole Moment: [e a0]
     X:    -0.0002      Y:    -0.0002      Z:     0.0000

  Electronic Dipole Moment: [e a0]
     X:     0.0001      Y:     0.0001      Z:     0.0000

  Dipole Moment: [e a0]
     X:    -0.0000      Y:    -0.0000      Z:     0.0000     Total:     0.0000

  Dipole Moment: [D]
     X:    -0.0001      Y:    -0.0001      Z:     0.0000     Total:     0.0001


*** tstop() called on atlantis at Tue Apr 19 14:16:22 2022
Module time:
	user time   =       5.26 seconds =       0.09 minutes
	system time =       0.14 seconds =       0.00 minutes
	total time  =          6 seconds =       0.10 minutes
Total time:
	user time   =       5.26 seconds =       0.09 minutes
	system time =       0.14 seconds =       0.00 minutes
	total time  =          6 seconds =       0.10 minutes
gradient() will perform analytic gradient computation.

*** tstart() called on atlantis
*** at Tue Apr 19 14:16:22 2022

   => Loading Basis Set <=

    Name: 6-311++G**
    Role: ORBITAL
    Keyword: BASIS
    atoms 1-3 entry C          line   119 file /home/akrom/software/anaconda3/envs/ffpenv/share/psi4/basis/6-311ppgss.gbs 
    atoms 4-9 entry H          line    42 file /home/akrom/software/anaconda3/envs/ffpenv/share/psi4/basis/6-311ppgss.gbs 


         ---------------------------------------------------------
                                   SCF
               by Justin Turney, Rob Parrish, Andy Simmonett
                          and Daniel G. A. Smith
                              RKS Reference
                        1 Threads,    500 MiB Core
         ---------------------------------------------------------

  ==> Geometry <==

    Molecular point group: cs
    Full point group: Cs

    Geometry (in Angstrom), charge = 0, multiplicity = 1:

       Center              X                  Y                   Z               Mass       
    ------------   -----------------  -----------------  -----------------  -----------------
         C            0.321531939855     0.813261460475     0.000000000000    12.000000000000
         C           -0.865048060145    -0.128168539525     0.000000000000    12.000000000000
         C            0.543531939855    -0.685078539525     0.000000000000    12.000000000000
         H            0.537951939855     1.360691460475    -0.920390000000     1.007825032230
         H            0.537951939855     1.360691460475     0.920390000000     1.007825032230
         H           -1.447418060145    -0.214488539525     0.920340000000     1.007825032230
         H           -1.447418060145    -0.214488539525    -0.920340000000     1.007825032230
         H            0.909371939855    -1.146288539525    -0.920370000000     1.007825032230
         H            0.909371939855    -1.146288539525     0.920370000000     1.007825032230

  Running in cs symmetry.

  Rotational constants: A =      0.66472  B =      0.66470  C =      0.41647 [cm^-1]
  Rotational constants: A =  19927.70596  B =  19927.20236  C =  12485.44714 [MHz]
  Nuclear repulsion =   75.281464809014025

  Charge       = 0
  Multiplicity = 1
  Electrons    = 24
  Nalpha       = 12
  Nbeta        = 12

  ==> Algorithm <==

  SCF Algorithm Type is DF.
  DIIS enabled.
  MOM disabled.
  Fractional occupation disabled.
  Guess Type is SAD.
  Energy threshold   = 1.00e-08
  Density threshold  = 1.00e-08
  Integral threshold = 0.00e+00

  ==> Primary Basis <==

  Basis Set: 6-311++G**
    Blend: 6-311++G**
    Number of shells: 60
    Number of basis function: 108
    Number of Cartesian functions: 111
    Spherical Harmonics?: true
    Max angular momentum: 2

  ==> DFT Potential <==

   => Composite Functional: B3LYP <= 

    B3LYP Hyb-GGA Exchange-Correlation Functional

    P. J. Stephens, F. J. Devlin, C. F. Chabalowski, and M. J. Frisch, J. Phys. Chem. 98, 11623 (1994)

    Deriv               =              1
    GGA                 =           TRUE
    Meta                =          FALSE

    Exchange Hybrid     =           TRUE
    MP2 Hybrid          =          FALSE

   => Exchange Functionals <=

    0.0800   Slater exchange
    0.7200         Becke 88

   => Exact (HF) Exchange <=

    0.2000               HF 

   => Correlation Functionals <=

    0.1900   Vosko, Wilk & Nusair (VWN5_RPA)
    0.8100   Lee, Yang & Parr

   => Molecular Quadrature <=

    Radial Scheme          =       TREUTLER
    Pruning Scheme         =           FLAT
    Nuclear Scheme         =       TREUTLER

    BS radius alpha        =              1
    Pruning alpha          =              1
    Radial Points          =             75
    Spherical Points       =            302
    Total Points           =         203850
    Total Blocks           =           1576
    Max Points             =            256
    Max Functions          =            108

   => Loading Basis Set <=

    Name: (6-311++G** AUX)
    Role: JKFIT
    Keyword: DF_BASIS_SCF
    atoms 1-3 entry C          line   162 file /home/akrom/software/anaconda3/envs/ffpenv/share/psi4/basis/aug-cc-pvtz-jkfit.gbs 
    atoms 4-9 entry H          line    70 file /home/akrom/software/anaconda3/envs/ffpenv/share/psi4/basis/aug-cc-pvtz-jkfit.gbs 

  ==> Pre-Iterations <==

   -------------------------------------------------------
    Irrep   Nso     Nmo     Nalpha   Nbeta   Ndocc  Nsocc
   -------------------------------------------------------
     A'        69      69       0       0       0       0
     A"        39      39       0       0       0       0
   -------------------------------------------------------
    Total     108     108      12      12      12       0
   -------------------------------------------------------

  ==> Integral Setup <==

  DFHelper Memory: AOs need 0.056 GiB; user supplied 0.056 GiB. Using in-core AOs.

  ==> MemDFJK: Density-Fitted J/K Matrices <==

    J tasked:                   Yes
    K tasked:                   Yes
    wK tasked:                   No
    OpenMP threads:               1
    Memory [MiB]:                57
    Algorithm:                 Core
    Schwarz Cutoff:           1E-12
    Mask sparsity (%):       0.0000
    Fitting Condition:        1E-10

   => Auxiliary Basis Set <=

  Basis Set: (6-311++G** AUX)
    Blend: AUG-CC-PVTZ-JKFIT
    Number of shells: 174
    Number of basis function: 588
    Number of Cartesian functions: 723
    Spherical Harmonics?: true
    Max angular momentum: 4

  Cached 100.0% of DFT collocation blocks in 0.573 [GiB].

  Minimum eigenvalue in the overlap matrix is 8.8978795942E-05.
  Using Symmetric Orthogonalization.

  SCF Guess: Superposition of Atomic Densities via on-the-fly atomic UHF.

  ==> Iterations <==

                           Total Energy        Delta E     RMS |[F,P]|

   @DF-RKS iter SAD:  -117.41598892188073   -1.17416e+02   0.00000e+00 
   @DF-RKS iter   1:  -117.45519268412522   -3.92038e-02   1.19947e-02 DIIS
   @DF-RKS iter   2:  -116.83597536409219    6.19217e-01   1.74897e-02 DIIS
   @DF-RKS iter   3:  -117.92821480056142   -1.09224e+00   8.31297e-04 DIIS
   @DF-RKS iter   4:  -117.93048734973723   -2.27255e-03   1.56787e-04 DIIS
   @DF-RKS iter   5:  -117.93055614605144   -6.87963e-05   2.08982e-05 DIIS
   @DF-RKS iter   6:  -117.93055760758597   -1.46153e-06   6.80370e-07 DIIS
   @DF-RKS iter   7:  -117.93055761151824   -3.93227e-09   6.26667e-08 DIIS
   @DF-RKS iter   8:  -117.93055761154709   -2.88480e-11   3.74479e-08 DIIS
   @DF-RKS iter   9:  -117.93055761155111   -4.02167e-12   6.94795e-09 DIIS
  Energy and wave function converged.


  ==> Post-Iterations <==

    Orbital Energies [Eh]
    ---------------------

    Doubly Occupied:                                                      

       1Ap   -10.173753     2Ap   -10.173386     3Ap   -10.173382  
       4Ap    -0.848922     5Ap    -0.597034     6Ap    -0.597029  
       1App   -0.494495     7Ap    -0.465797     2App   -0.366104  
       3App   -0.366091     8Ap    -0.297721     9Ap    -0.297715  

    Virtual:                                                              

      10Ap    -0.001520     4App    0.013453    11Ap     0.015948  
      12Ap     0.015949     5App    0.058372     6App    0.058375  
      13Ap     0.067597    14Ap     0.083058    15Ap     0.083059  
      16Ap     0.101114    17Ap     0.126571    18Ap     0.126575  
       7App    0.129395    19Ap     0.139892    20Ap     0.147350  
      21Ap     0.147352     8App    0.150290     9App    0.150295  
      10App    0.171012    22Ap     0.188593    23Ap     0.192249  
      11App    0.239974    12App    0.239987    24Ap     0.257248  
      25Ap     0.257255    26Ap     0.318833    27Ap     0.318840  
      28Ap     0.408768    13App    0.448270    29Ap     0.497556  
      30Ap     0.497568    14App    0.562699    15App    0.562735  
      31Ap     0.565637    32Ap     0.646814    33Ap     0.646820  
      34Ap     0.647750    16App    0.650604    17App    0.650613  
      18App    0.650758    35Ap     0.685549    36Ap     0.685560  
      37Ap     0.757819    38Ap     0.908731    39Ap     0.908738  
      19App    1.177645    40Ap     1.221444    20App    1.227999  
      21App    1.228009    22App    1.362843    41Ap     1.456472  
      42Ap     1.456498    23App    1.518562    24App    1.518618  
      43Ap     1.597201    25App    1.628904    44Ap     1.648812  
      45Ap     1.648849    26App    1.751344    27App    1.751373  
      46Ap     1.758201    47Ap     1.819013    48Ap     1.819020  
      49Ap     2.020623    50Ap     2.020630    28App    2.033499  
      29App    2.033510    51Ap     2.120464    52Ap     2.219976  
      53Ap     2.220036    54Ap     2.267797    55Ap     2.364311  
      30App    2.369730    31App    2.396683    32App    2.545437  
      33App    2.545456    56Ap     2.632682    57Ap     2.632736  
      34App    2.736030    58Ap     2.736155    59Ap     2.745323  
      60Ap     2.745346    61Ap     2.931054    62Ap     2.931069  
      35App    2.953183    36App    2.953228    63Ap     3.356463  
      64Ap     3.513591    37App    3.524574    38App    3.850474  
      39App    3.850498    65Ap     4.376959    66Ap     4.376994  
      67Ap    23.878145    68Ap    23.878169    69Ap    23.893778  

    Final Occupation by Irrep:
             Ap   App 
    DOCC [     9,    3 ]

  @DF-RKS Final Energy:  -117.93055761155111

   => Energetics <=

    Nuclear Repulsion Energy =             75.2814648090140253
    One-Electron Energy =                -305.9422074614761868
    Two-Electron Energy =                 127.7190927395344460
    DFT Exchange-Correlation Energy =     -14.9889076986234056
    Empirical Dispersion Energy =           0.0000000000000000
    VV10 Nonlocal Energy =                  0.0000000000000000
    Total Energy =                       -117.9305576115511087

Computation Completed


Properties will be evaluated at   0.000000,   0.000000,   0.000000 [a0]

Properties computed using the SCF density matrix

  Nuclear Dipole Moment: [e a0]
     X:    -0.0002      Y:    -0.0002      Z:     0.0000

  Electronic Dipole Moment: [e a0]
     X:     0.0001      Y:     0.0001      Z:     0.0000

  Dipole Moment: [e a0]
     X:    -0.0000      Y:    -0.0000      Z:     0.0000     Total:     0.0000

  Dipole Moment: [D]
     X:    -0.0001      Y:    -0.0001      Z:     0.0000     Total:     0.0001


*** tstop() called on atlantis at Tue Apr 19 14:16:28 2022
Module time:
	user time   =       6.23 seconds =       0.10 minutes
	system time =       0.04 seconds =       0.00 minutes
	total time  =          6 seconds =       0.10 minutes
Total time:
	user time   =      11.50 seconds =       0.19 minutes
	system time =       0.18 seconds =       0.00 minutes
	total time  =         12 seconds =       0.20 minutes

*** tstart() called on atlantis
*** at Tue Apr 19 14:16:28 2022


         ------------------------------------------------------------
                                   SCF GRAD                          
                          Rob Parrish, Justin Turney,                
                       Andy Simmonett, and Alex Sokolov              
         ------------------------------------------------------------

  ==> Geometry <==

    Molecular point group: cs
    Full point group: Cs

    Geometry (in Angstrom), charge = 0, multiplicity = 1:

       Center              X                  Y                   Z               Mass       
    ------------   -----------------  -----------------  -----------------  -----------------
         C            0.321531939855     0.813261460475     0.000000000000    12.000000000000
         C           -0.865048060145    -0.128168539525     0.000000000000    12.000000000000
         C            0.543531939855    -0.685078539525     0.000000000000    12.000000000000
         H            0.537951939855     1.360691460475    -0.920390000000     1.007825032230
         H            0.537951939855     1.360691460475     0.920390000000     1.007825032230
         H           -1.447418060145    -0.214488539525     0.920340000000     1.007825032230
         H           -1.447418060145    -0.214488539525    -0.920340000000     1.007825032230
         H            0.909371939855    -1.146288539525    -0.920370000000     1.007825032230
         H            0.909371939855    -1.146288539525     0.920370000000     1.007825032230

  Nuclear repulsion =   75.281464809014025

  ==> Basis Set <==

  Basis Set: 6-311++G**
    Blend: 6-311++G**
    Number of shells: 60
    Number of basis function: 108
    Number of Cartesian functions: 111
    Spherical Harmonics?: true
    Max angular momentum: 2

  ==> DFJKGrad: Density-Fitted SCF Gradients <==

    Gradient:                    1
    J tasked:                  Yes
    K tasked:                  Yes
    wK tasked:                  No
    OpenMP threads:              1
    Integrals threads:           1
    Memory [MiB]:              375
    Schwarz Cutoff:          0E+00
    Fitting Condition:       1E-10

   => Auxiliary Basis Set <=

  Basis Set: (6-311++G** AUX)
    Blend: AUG-CC-PVTZ-JKFIT
    Number of shells: 174
    Number of basis function: 588
    Number of Cartesian functions: 723
    Spherical Harmonics?: true
    Max angular momentum: 4

  ==> DFT Potential <==

   => Composite Functional: B3LYP <= 

    B3LYP Hyb-GGA Exchange-Correlation Functional

    P. J. Stephens, F. J. Devlin, C. F. Chabalowski, and M. J. Frisch, J. Phys. Chem. 98, 11623 (1994)

    Deriv               =              1
    GGA                 =           TRUE
    Meta                =          FALSE

    Exchange Hybrid     =           TRUE
    MP2 Hybrid          =          FALSE

   => Exchange Functionals <=

    0.0800   Slater exchange
    0.7200         Becke 88

   => Exact (HF) Exchange <=

    0.2000               HF 

   => Correlation Functionals <=

    0.1900   Vosko, Wilk & Nusair (VWN5_RPA)
    0.8100   Lee, Yang & Parr

   => Molecular Quadrature <=

    Radial Scheme          =       TREUTLER
    Pruning Scheme         =           FLAT
    Nuclear Scheme         =       TREUTLER

    BS radius alpha        =              1
    Pruning alpha          =              1
    Radial Points          =             75
    Spherical Points       =            302
    Total Points           =         203850
    Total Blocks           =           1576
    Max Points             =            256
    Max Functions          =            108


  -Total Gradient:
     Atom            X                  Y                   Z
    ------   -----------------  -----------------  -----------------
       1       -0.000160963254    -0.000392736470     0.000000000000
       2        0.000447351914     0.000069017468     0.000000000000
       3       -0.000264257877     0.000344260016     0.000000000000
       4        0.000958226101     0.002427375032    -0.005572921452
       5        0.000958226101     0.002427375032     0.005572921452
       6       -0.002589622299    -0.000387083296     0.005563880759
       7       -0.002589622299    -0.000387083296    -0.005563880759
       8        0.001620831880    -0.002050166386    -0.005569877497
       9        0.001620831880    -0.002050166386     0.005569877497


*** tstop() called on atlantis at Tue Apr 19 14:16:30 2022
Module time:
	user time   =       2.35 seconds =       0.04 minutes
	system time =       0.01 seconds =       0.00 minutes
	total time  =          2 seconds =       0.03 minutes
Total time:
	user time   =      13.85 seconds =       0.23 minutes
	system time =       0.19 seconds =       0.00 minutes
	total time  =         14 seconds =       0.23 minutes

  Based on options and gradient (rms=2.90E-03), recommend projecting translations and projecting rotations.
hessian() will perform frequency computation by finite difference of analytic gradients.

         ----------------------------------------------------------
                                   FINDIF
                     R. A. King and Jonathon Misiewicz
         ---------------------------------------------------------

  Using finite-differences of gradients to determine vibrational frequencies and 
  normal modes.  Resulting frequencies are only valid at stationary points.
    Generating geometries for use with 3-point formula.
    Displacement size will be 5.00e-03.
    Number of atoms is 9.
    Number of irreps is 2.
    Number of SALCs is 21.
    Translations projected? 1. Rotations projected? 1.
    Index of SALCs per irrep:
     1 :  0  1  2  3  4  5  6  7  8  9  10  11 
     2 :  12  13  14  15  16  17  18  19  20 
    Number of SALCs per irrep:
     Irrep 1: 12
     Irrep 2: 9
    Number of geometries (including reference) is 34.
    Number of displacements per irrep:
      Irrep 1: 24
      Irrep 2: 9

  //>>>>>>>>>>>>>>>>>>>>>>>>>>>>>>>>>>>//
  //    Loading displacement 1 of 34   //
  //<<<<<<<<<<<<<<<<<<<<<<<<<<<<<<<<<<<//
gradient() will perform analytic gradient computation.

*** tstart() called on atlantis
*** at Tue Apr 19 14:16:31 2022

   => Loading Basis Set <=

    Name: 6-311++G**
    Role: ORBITAL
    Keyword: BASIS
    atoms 1-3 entry C          line   119 file /home/akrom/software/anaconda3/envs/ffpenv/share/psi4/basis/6-311ppgss.gbs 
    atoms 4-9 entry H          line    42 file /home/akrom/software/anaconda3/envs/ffpenv/share/psi4/basis/6-311ppgss.gbs 


         ---------------------------------------------------------
                                   SCF
               by Justin Turney, Rob Parrish, Andy Simmonett
                          and Daniel G. A. Smith
                              RKS Reference
                        1 Threads,    500 MiB Core
         ---------------------------------------------------------

  ==> Geometry <==

    Molecular point group: cs
    Full point group: Cs

    Geometry (in Angstrom), charge = 0, multiplicity = 1:

       Center              X                  Y                   Z               Mass       
    ------------   -----------------  -----------------  -----------------  -----------------
         C            0.321531939855     0.813261460475     0.000000000000    12.000000000000
         C           -0.865048060145    -0.128168539525     0.000000000000    12.000000000000
         C            0.543531939855    -0.685078539525     0.000000000000    12.000000000000
         H            0.537951939855     1.360691460475    -0.920390000000     1.007825032230
         H            0.537951939855     1.360691460475     0.920390000000     1.007825032230
         H           -1.447418060145    -0.214488539525     0.920340000000     1.007825032230
         H           -1.447418060145    -0.214488539525    -0.920340000000     1.007825032230
         H            0.909371939855    -1.146288539525    -0.920370000000     1.007825032230
         H            0.909371939855    -1.146288539525     0.920370000000     1.007825032230

  Running in cs symmetry.

  Rotational constants: A =      0.66472  B =      0.66470  C =      0.41647 [cm^-1]
  Rotational constants: A =  19927.70596  B =  19927.20236  C =  12485.44714 [MHz]
  Nuclear repulsion =   75.281464809014025

  Charge       = 0
  Multiplicity = 1
  Electrons    = 24
  Nalpha       = 12
  Nbeta        = 12

  ==> Algorithm <==

  SCF Algorithm Type is DF.
  DIIS enabled.
  MOM disabled.
  Fractional occupation disabled.
  Guess Type is SAD.
  Energy threshold   = 1.00e-08
  Density threshold  = 1.00e-08
  Integral threshold = 0.00e+00

  ==> Primary Basis <==

  Basis Set: 6-311++G**
    Blend: 6-311++G**
    Number of shells: 60
    Number of basis function: 108
    Number of Cartesian functions: 111
    Spherical Harmonics?: true
    Max angular momentum: 2

  ==> DFT Potential <==

   => Composite Functional: B3LYP <= 

    B3LYP Hyb-GGA Exchange-Correlation Functional

    P. J. Stephens, F. J. Devlin, C. F. Chabalowski, and M. J. Frisch, J. Phys. Chem. 98, 11623 (1994)

    Deriv               =              1
    GGA                 =           TRUE
    Meta                =          FALSE

    Exchange Hybrid     =           TRUE
    MP2 Hybrid          =          FALSE

   => Exchange Functionals <=

    0.0800   Slater exchange
    0.7200         Becke 88

   => Exact (HF) Exchange <=

    0.2000               HF 

   => Correlation Functionals <=

    0.1900   Vosko, Wilk & Nusair (VWN5_RPA)
    0.8100   Lee, Yang & Parr

   => Molecular Quadrature <=

    Radial Scheme          =       TREUTLER
    Pruning Scheme         =           FLAT
    Nuclear Scheme         =       TREUTLER

    BS radius alpha        =              1
    Pruning alpha          =              1
    Radial Points          =             75
    Spherical Points       =            302
    Total Points           =         203850
    Total Blocks           =           1576
    Max Points             =            256
    Max Functions          =            108

   => Loading Basis Set <=

    Name: (6-311++G** AUX)
    Role: JKFIT
    Keyword: DF_BASIS_SCF
    atoms 1-3 entry C          line   162 file /home/akrom/software/anaconda3/envs/ffpenv/share/psi4/basis/aug-cc-pvtz-jkfit.gbs 
    atoms 4-9 entry H          line    70 file /home/akrom/software/anaconda3/envs/ffpenv/share/psi4/basis/aug-cc-pvtz-jkfit.gbs 

  ==> Pre-Iterations <==

   -------------------------------------------------------
    Irrep   Nso     Nmo     Nalpha   Nbeta   Ndocc  Nsocc
   -------------------------------------------------------
     A'        69      69       0       0       0       0
     A"        39      39       0       0       0       0
   -------------------------------------------------------
    Total     108     108      12      12      12       0
   -------------------------------------------------------

  ==> Integral Setup <==

  DFHelper Memory: AOs need 0.056 GiB; user supplied 0.056 GiB. Using in-core AOs.

  ==> MemDFJK: Density-Fitted J/K Matrices <==

    J tasked:                   Yes
    K tasked:                   Yes
    wK tasked:                   No
    OpenMP threads:               1
    Memory [MiB]:                57
    Algorithm:                 Core
    Schwarz Cutoff:           1E-12
    Mask sparsity (%):       0.0000
    Fitting Condition:        1E-10

   => Auxiliary Basis Set <=

  Basis Set: (6-311++G** AUX)
    Blend: AUG-CC-PVTZ-JKFIT
    Number of shells: 174
    Number of basis function: 588
    Number of Cartesian functions: 723
    Spherical Harmonics?: true
    Max angular momentum: 4

  Cached 100.0% of DFT collocation blocks in 0.573 [GiB].

  Minimum eigenvalue in the overlap matrix is 8.8978795942E-05.
  Using Symmetric Orthogonalization.

  SCF Guess: Superposition of Atomic Densities via on-the-fly atomic UHF.

  ==> Iterations <==

                           Total Energy        Delta E     RMS |[F,P]|

   @DF-RKS iter SAD:  -117.41598892188031   -1.17416e+02   0.00000e+00 
   @DF-RKS iter   1:  -117.45519268412431   -3.92038e-02   1.19947e-02 DIIS
   @DF-RKS iter   2:  -116.83597536409110    6.19217e-01   1.74897e-02 DIIS
   @DF-RKS iter   3:  -117.92821480056071   -1.09224e+00   8.31297e-04 DIIS
   @DF-RKS iter   4:  -117.93048734973630   -2.27255e-03   1.56787e-04 DIIS
   @DF-RKS iter   5:  -117.93055614605053   -6.87963e-05   2.08982e-05 DIIS
   @DF-RKS iter   6:  -117.93055760758537   -1.46153e-06   6.80370e-07 DIIS
   @DF-RKS iter   7:  -117.93055761151719   -3.93182e-09   6.26667e-08 DIIS
   @DF-RKS iter   8:  -117.93055761154594   -2.87486e-11   3.74479e-08 DIIS
   @DF-RKS iter   9:  -117.93055761155017   -4.23483e-12   6.94795e-09 DIIS
  Energy and wave function converged.


  ==> Post-Iterations <==

    Orbital Energies [Eh]
    ---------------------

    Doubly Occupied:                                                      

       1Ap   -10.173753     2Ap   -10.173386     3Ap   -10.173382  
       4Ap    -0.848922     5Ap    -0.597034     6Ap    -0.597029  
       1App   -0.494495     7Ap    -0.465797     2App   -0.366104  
       3App   -0.366091     8Ap    -0.297721     9Ap    -0.297715  

    Virtual:                                                              

      10Ap    -0.001520     4App    0.013453    11Ap     0.015948  
      12Ap     0.015949     5App    0.058372     6App    0.058375  
      13Ap     0.067597    14Ap     0.083058    15Ap     0.083059  
      16Ap     0.101114    17Ap     0.126571    18Ap     0.126575  
       7App    0.129395    19Ap     0.139892    20Ap     0.147350  
      21Ap     0.147352     8App    0.150290     9App    0.150295  
      10App    0.171012    22Ap     0.188593    23Ap     0.192249  
      11App    0.239974    12App    0.239987    24Ap     0.257248  
      25Ap     0.257255    26Ap     0.318833    27Ap     0.318840  
      28Ap     0.408768    13App    0.448270    29Ap     0.497556  
      30Ap     0.497568    14App    0.562699    15App    0.562735  
      31Ap     0.565637    32Ap     0.646814    33Ap     0.646820  
      34Ap     0.647750    16App    0.650604    17App    0.650613  
      18App    0.650758    35Ap     0.685549    36Ap     0.685560  
      37Ap     0.757819    38Ap     0.908731    39Ap     0.908738  
      19App    1.177645    40Ap     1.221444    20App    1.227999  
      21App    1.228009    22App    1.362843    41Ap     1.456472  
      42Ap     1.456498    23App    1.518562    24App    1.518618  
      43Ap     1.597201    25App    1.628904    44Ap     1.648812  
      45Ap     1.648849    26App    1.751344    27App    1.751373  
      46Ap     1.758201    47Ap     1.819013    48Ap     1.819020  
      49Ap     2.020623    50Ap     2.020630    28App    2.033499  
      29App    2.033510    51Ap     2.120464    52Ap     2.219976  
      53Ap     2.220036    54Ap     2.267797    55Ap     2.364311  
      30App    2.369730    31App    2.396683    32App    2.545437  
      33App    2.545456    56Ap     2.632682    57Ap     2.632736  
      34App    2.736030    58Ap     2.736155    59Ap     2.745323  
      60Ap     2.745346    61Ap     2.931054    62Ap     2.931069  
      35App    2.953183    36App    2.953228    63Ap     3.356463  
      64Ap     3.513591    37App    3.524574    38App    3.850474  
      39App    3.850498    65Ap     4.376959    66Ap     4.376994  
      67Ap    23.878145    68Ap    23.878169    69Ap    23.893778  

    Final Occupation by Irrep:
             Ap   App 
    DOCC [     9,    3 ]

  @DF-RKS Final Energy:  -117.93055761155017

   => Energetics <=

    Nuclear Repulsion Energy =             75.2814648090140253
    One-Electron Energy =                -305.9422074614748794
    Two-Electron Energy =                 127.7190927395339770
    DFT Exchange-Correlation Energy =     -14.9889076986233025
    Empirical Dispersion Energy =           0.0000000000000000
    VV10 Nonlocal Energy =                  0.0000000000000000
    Total Energy =                       -117.9305576115501708

Computation Completed


Properties will be evaluated at   0.000000,   0.000000,   0.000000 [a0]

Properties computed using the SCF density matrix

  Nuclear Dipole Moment: [e a0]
     X:    -0.0002      Y:    -0.0002      Z:     0.0000

  Electronic Dipole Moment: [e a0]
     X:     0.0001      Y:     0.0001      Z:     0.0000

  Dipole Moment: [e a0]
     X:    -0.0000      Y:    -0.0000      Z:     0.0000     Total:     0.0000

  Dipole Moment: [D]
     X:    -0.0001      Y:    -0.0001      Z:     0.0000     Total:     0.0001


*** tstop() called on atlantis at Tue Apr 19 14:16:37 2022
Module time:
	user time   =       6.25 seconds =       0.10 minutes
	system time =       0.03 seconds =       0.00 minutes
	total time  =          6 seconds =       0.10 minutes
Total time:
	user time   =      20.41 seconds =       0.34 minutes
	system time =       0.23 seconds =       0.00 minutes
	total time  =         21 seconds =       0.35 minutes

*** tstart() called on atlantis
*** at Tue Apr 19 14:16:37 2022


         ------------------------------------------------------------
                                   SCF GRAD                          
                          Rob Parrish, Justin Turney,                
                       Andy Simmonett, and Alex Sokolov              
         ------------------------------------------------------------

  ==> Geometry <==

    Molecular point group: cs
    Full point group: Cs

    Geometry (in Angstrom), charge = 0, multiplicity = 1:

       Center              X                  Y                   Z               Mass       
    ------------   -----------------  -----------------  -----------------  -----------------
         C            0.321531939855     0.813261460475     0.000000000000    12.000000000000
         C           -0.865048060145    -0.128168539525     0.000000000000    12.000000000000
         C            0.543531939855    -0.685078539525     0.000000000000    12.000000000000
         H            0.537951939855     1.360691460475    -0.920390000000     1.007825032230
         H            0.537951939855     1.360691460475     0.920390000000     1.007825032230
         H           -1.447418060145    -0.214488539525     0.920340000000     1.007825032230
         H           -1.447418060145    -0.214488539525    -0.920340000000     1.007825032230
         H            0.909371939855    -1.146288539525    -0.920370000000     1.007825032230
         H            0.909371939855    -1.146288539525     0.920370000000     1.007825032230

  Nuclear repulsion =   75.281464809014025

  ==> Basis Set <==

  Basis Set: 6-311++G**
    Blend: 6-311++G**
    Number of shells: 60
    Number of basis function: 108
    Number of Cartesian functions: 111
    Spherical Harmonics?: true
    Max angular momentum: 2

  ==> DFJKGrad: Density-Fitted SCF Gradients <==

    Gradient:                    1
    J tasked:                  Yes
    K tasked:                  Yes
    wK tasked:                  No
    OpenMP threads:              1
    Integrals threads:           1
    Memory [MiB]:              375
    Schwarz Cutoff:          0E+00
    Fitting Condition:       1E-10

   => Auxiliary Basis Set <=

  Basis Set: (6-311++G** AUX)
    Blend: AUG-CC-PVTZ-JKFIT
    Number of shells: 174
    Number of basis function: 588
    Number of Cartesian functions: 723
    Spherical Harmonics?: true
    Max angular momentum: 4

  ==> DFT Potential <==

   => Composite Functional: B3LYP <= 

    B3LYP Hyb-GGA Exchange-Correlation Functional

    P. J. Stephens, F. J. Devlin, C. F. Chabalowski, and M. J. Frisch, J. Phys. Chem. 98, 11623 (1994)

    Deriv               =              1
    GGA                 =           TRUE
    Meta                =          FALSE

    Exchange Hybrid     =           TRUE
    MP2 Hybrid          =          FALSE

   => Exchange Functionals <=

    0.0800   Slater exchange
    0.7200         Becke 88

   => Exact (HF) Exchange <=

    0.2000               HF 

   => Correlation Functionals <=

    0.1900   Vosko, Wilk & Nusair (VWN5_RPA)
    0.8100   Lee, Yang & Parr

   => Molecular Quadrature <=

    Radial Scheme          =       TREUTLER
    Pruning Scheme         =           FLAT
    Nuclear Scheme         =       TREUTLER

    BS radius alpha        =              1
    Pruning alpha          =              1
    Radial Points          =             75
    Spherical Points       =            302
    Total Points           =         203850
    Total Blocks           =           1576
    Max Points             =            256
    Max Functions          =            108


  -Total Gradient:
     Atom            X                  Y                   Z
    ------   -----------------  -----------------  -----------------
       1       -0.000160961171    -0.000392731371     0.000000000000
       2        0.000447345339     0.000069015955     0.000000000000
       3       -0.000264254476     0.000344254980     0.000000000000
       4        0.000958224583     0.002427371519    -0.005572915757
       5        0.000958224583     0.002427371519     0.005572915757
       6       -0.002589616773    -0.000387082748     0.005563869993
       7       -0.002589616773    -0.000387082748    -0.005563869993
       8        0.001620828419    -0.002050162696    -0.005569868126
       9        0.001620828419    -0.002050162696     0.005569868126


*** tstop() called on atlantis at Tue Apr 19 14:16:40 2022
Module time:
	user time   =       2.35 seconds =       0.04 minutes
	system time =       0.00 seconds =       0.00 minutes
	total time  =          3 seconds =       0.05 minutes
Total time:
	user time   =      22.76 seconds =       0.38 minutes
	system time =       0.23 seconds =       0.00 minutes
	total time  =         24 seconds =       0.40 minutes

  //>>>>>>>>>>>>>>>>>>>>>>>>>>>>>>>>>>>//
  //    Loading displacement 2 of 34   //
  //<<<<<<<<<<<<<<<<<<<<<<<<<<<<<<<<<<<//
gradient() will perform analytic gradient computation.

*** tstart() called on atlantis
*** at Tue Apr 19 14:16:40 2022

   => Loading Basis Set <=

    Name: 6-311++G**
    Role: ORBITAL
    Keyword: BASIS
    atoms 1-3 entry C          line   119 file /home/akrom/software/anaconda3/envs/ffpenv/share/psi4/basis/6-311ppgss.gbs 
    atoms 4-9 entry H          line    42 file /home/akrom/software/anaconda3/envs/ffpenv/share/psi4/basis/6-311ppgss.gbs 


         ---------------------------------------------------------
                                   SCF
               by Justin Turney, Rob Parrish, Andy Simmonett
                          and Daniel G. A. Smith
                              RKS Reference
                        1 Threads,    500 MiB Core
         ---------------------------------------------------------

  ==> Geometry <==

    Molecular point group: cs
    Full point group: Cs

    Geometry (in Angstrom), charge = 0, multiplicity = 1:

       Center              X                  Y                   Z               Mass       
    ------------   -----------------  -----------------  -----------------  -----------------
         C            0.320981935461     0.813179232929     0.000000000000    12.000000000000
         C           -0.864778117207    -0.127947314912     0.000000000000    12.000000000000
         C            0.543659460418    -0.685217540638     0.000000000000    12.000000000000
         H            0.538602639069     1.360553886373    -0.920390000000     1.007825032230
         H            0.538602639069     1.360553886373     0.920390000000     1.007825032230
         H           -1.447170192407    -0.214118381478     0.920340000000     1.007825032230
         H           -1.447170192407    -0.214118381478    -0.920340000000     1.007825032230
         H            0.909381512053    -1.146521099385    -0.920370000000     1.007825032230
         H            0.909381512053    -1.146521099385     0.920370000000     1.007825032230

  Running in cs symmetry.

  Rotational constants: A =      0.66511  B =      0.66452  C =      0.41655 [cm^-1]
  Rotational constants: A =  19939.46144  B =  19921.88173  C =  12487.97026 [MHz]
  Nuclear repulsion =   75.286659304380962

  Charge       = 0
  Multiplicity = 1
  Electrons    = 24
  Nalpha       = 12
  Nbeta        = 12

  ==> Algorithm <==

  SCF Algorithm Type is DF.
  DIIS enabled.
  MOM disabled.
  Fractional occupation disabled.
  Guess Type is SAD.
  Energy threshold   = 1.00e-08
  Density threshold  = 1.00e-08
  Integral threshold = 0.00e+00

  ==> Primary Basis <==

  Basis Set: 6-311++G**
    Blend: 6-311++G**
    Number of shells: 60
    Number of basis function: 108
    Number of Cartesian functions: 111
    Spherical Harmonics?: true
    Max angular momentum: 2

  ==> DFT Potential <==

   => Composite Functional: B3LYP <= 

    B3LYP Hyb-GGA Exchange-Correlation Functional

    P. J. Stephens, F. J. Devlin, C. F. Chabalowski, and M. J. Frisch, J. Phys. Chem. 98, 11623 (1994)

    Deriv               =              1
    GGA                 =           TRUE
    Meta                =          FALSE

    Exchange Hybrid     =           TRUE
    MP2 Hybrid          =          FALSE

   => Exchange Functionals <=

    0.0800   Slater exchange
    0.7200         Becke 88

   => Exact (HF) Exchange <=

    0.2000               HF 

   => Correlation Functionals <=

    0.1900   Vosko, Wilk & Nusair (VWN5_RPA)
    0.8100   Lee, Yang & Parr

   => Molecular Quadrature <=

    Radial Scheme          =       TREUTLER
    Pruning Scheme         =           FLAT
    Nuclear Scheme         =       TREUTLER

    BS radius alpha        =              1
    Pruning alpha          =              1
    Radial Points          =             75
    Spherical Points       =            302
    Total Points           =         203850
    Total Blocks           =           1568
    Max Points             =            256
    Max Functions          =            108

   => Loading Basis Set <=

    Name: (6-311++G** AUX)
    Role: JKFIT
    Keyword: DF_BASIS_SCF
    atoms 1-3 entry C          line   162 file /home/akrom/software/anaconda3/envs/ffpenv/share/psi4/basis/aug-cc-pvtz-jkfit.gbs 
    atoms 4-9 entry H          line    70 file /home/akrom/software/anaconda3/envs/ffpenv/share/psi4/basis/aug-cc-pvtz-jkfit.gbs 

  ==> Pre-Iterations <==

   -------------------------------------------------------
    Irrep   Nso     Nmo     Nalpha   Nbeta   Ndocc  Nsocc
   -------------------------------------------------------
     A'        69      69       0       0       0       0
     A"        39      39       0       0       0       0
   -------------------------------------------------------
    Total     108     108      12      12      12       0
   -------------------------------------------------------

  ==> Integral Setup <==

  DFHelper Memory: AOs need 0.056 GiB; user supplied 0.056 GiB. Using in-core AOs.

  ==> MemDFJK: Density-Fitted J/K Matrices <==

    J tasked:                   Yes
    K tasked:                   Yes
    wK tasked:                   No
    OpenMP threads:               1
    Memory [MiB]:                57
    Algorithm:                 Core
    Schwarz Cutoff:           1E-12
    Mask sparsity (%):       0.0000
    Fitting Condition:        1E-10

   => Auxiliary Basis Set <=

  Basis Set: (6-311++G** AUX)
    Blend: AUG-CC-PVTZ-JKFIT
    Number of shells: 174
    Number of basis function: 588
    Number of Cartesian functions: 723
    Spherical Harmonics?: true
    Max angular momentum: 4

  Cached 100.0% of DFT collocation blocks in 0.573 [GiB].

  Minimum eigenvalue in the overlap matrix is 8.8787155085E-05.
  Using Symmetric Orthogonalization.

  SCF Guess: Superposition of Atomic Densities via on-the-fly atomic UHF.

  ==> Iterations <==

                           Total Energy        Delta E     RMS |[F,P]|

   @DF-RKS iter SAD:  -117.41643588358954   -1.17416e+02   0.00000e+00 
   @DF-RKS iter   1:  -117.45497242169013   -3.85365e-02   1.19978e-02 DIIS
   @DF-RKS iter   2:  -116.83500756961963    6.19965e-01   1.74974e-02 DIIS
   @DF-RKS iter   3:  -117.92821493146587   -1.09321e+00   8.31372e-04 DIIS
   @DF-RKS iter   4:  -117.93048829252558   -2.27336e-03   1.56751e-04 DIIS
   @DF-RKS iter   5:  -117.93055705006289   -6.87575e-05   2.09254e-05 DIIS
   @DF-RKS iter   6:  -117.93055851283324   -1.46277e-06   1.08441e-06 DIIS
   @DF-RKS iter   7:  -117.93055851484996   -2.01672e-09   1.16218e-06 DIIS
   @DF-RKS iter   8:  -117.93055851891792   -4.06796e-09   1.07531e-07 DIIS
   @DF-RKS iter   9:  -117.93055851895964   -4.17231e-11   3.01713e-09 DIIS
  Energy and wave function converged.


  ==> Post-Iterations <==

    Orbital Energies [Eh]
    ---------------------

    Doubly Occupied:                                                      

       1Ap   -10.173743     2Ap   -10.173383     3Ap   -10.173363  
       4Ap    -0.849020     5Ap    -0.597052     6Ap    -0.596975  
       1App   -0.494503     7Ap    -0.465844     2App   -0.366102  
       3App   -0.365998     8Ap    -0.297939     9Ap    -0.297560  

    Virtual:                                                              

      10Ap    -0.001521     4App    0.013442    11Ap     0.015947  
      12Ap     0.015949     5App    0.058367     6App    0.058382  
      13Ap     0.067599    14Ap     0.083038    15Ap     0.083074  
      16Ap     0.101150    17Ap     0.126575    18Ap     0.126581  
       7App    0.129369    19Ap     0.139893    20Ap     0.147347  
      21Ap     0.147352     8App    0.150261     9App    0.150324  
      10App    0.170996    22Ap     0.188643    23Ap     0.192248  
      11App    0.239869    12App    0.240065    24Ap     0.257204  
      25Ap     0.257334    26Ap     0.318796    27Ap     0.319040  
      28Ap     0.408753    13App    0.448263    29Ap     0.497522  
      30Ap     0.497590    14App    0.562471    15App    0.562917  
      31Ap     0.565579    32Ap     0.646797    33Ap     0.646989  
      34Ap     0.647790    16App    0.650477    17App    0.650639  
      18App    0.650726    35Ap     0.685492    36Ap     0.685592  
      37Ap     0.757804    38Ap     0.908741    39Ap     0.908760  
      19App    1.177685    40Ap     1.221427    20App    1.227979  
      21App    1.228071    22App    1.362811    41Ap     1.456513  
      42Ap     1.456606    23App    1.518579    24App    1.518695  
      43Ap     1.597269    25App    1.628935    44Ap     1.648749  
      45Ap     1.648914    26App    1.750992    27App    1.751609  
      46Ap     1.758216    47Ap     1.818803    48Ap     1.819439  
      49Ap     2.020547    50Ap     2.020903    28App    2.033425  
      29App    2.033527    51Ap     2.120415    52Ap     2.219896  
      53Ap     2.220261    54Ap     2.267941    55Ap     2.364083  
      30App    2.369760    31App    2.396679    32App    2.545257  
      33App    2.545641    56Ap     2.632254    57Ap     2.632834  
      34App    2.736077    58Ap     2.736190    59Ap     2.745382  
      60Ap     2.745434    61Ap     2.931014    62Ap     2.931410  
      35App    2.952719    36App    2.953902    63Ap     3.357101  
      64Ap     3.513851    37App    3.524328    38App    3.850290  
      39App    3.850515    65Ap     4.376761    66Ap     4.377355  
      67Ap    23.877896    68Ap    23.879023    69Ap    23.893558  

    Final Occupation by Irrep:
             Ap   App 
    DOCC [     9,    3 ]

  @DF-RKS Final Energy:  -117.93055851895964

   => Energetics <=

    Nuclear Repulsion Energy =             75.2866593043809615
    One-Electron Energy =                -305.9524487343777537
    Two-Electron Energy =                 127.7242092651592458
    DFT Exchange-Correlation Energy =     -14.9889783541221178
    Empirical Dispersion Energy =           0.0000000000000000
    VV10 Nonlocal Energy =                  0.0000000000000000
    Total Energy =                       -117.9305585189596570

Computation Completed


Properties will be evaluated at   0.000000,   0.000000,   0.000000 [a0]

Properties computed using the SCF density matrix

  Nuclear Dipole Moment: [e a0]
     X:     0.0015      Y:    -0.0002      Z:     0.0000

  Electronic Dipole Moment: [e a0]
     X:    -0.0017      Y:     0.0003      Z:     0.0000

  Dipole Moment: [e a0]
     X:    -0.0002      Y:     0.0002      Z:     0.0000     Total:     0.0002

  Dipole Moment: [D]
     X:    -0.0004      Y:     0.0004      Z:     0.0000     Total:     0.0006


*** tstop() called on atlantis at Tue Apr 19 14:16:46 2022
Module time:
	user time   =       6.31 seconds =       0.11 minutes
	system time =       0.04 seconds =       0.00 minutes
	total time  =          6 seconds =       0.10 minutes
Total time:
	user time   =      29.08 seconds =       0.48 minutes
	system time =       0.27 seconds =       0.00 minutes
	total time  =         30 seconds =       0.50 minutes

*** tstart() called on atlantis
*** at Tue Apr 19 14:16:46 2022


         ------------------------------------------------------------
                                   SCF GRAD                          
                          Rob Parrish, Justin Turney,                
                       Andy Simmonett, and Alex Sokolov              
         ------------------------------------------------------------

  ==> Geometry <==

    Molecular point group: cs
    Full point group: Cs

    Geometry (in Angstrom), charge = 0, multiplicity = 1:

       Center              X                  Y                   Z               Mass       
    ------------   -----------------  -----------------  -----------------  -----------------
         C            0.320981935461     0.813179232929     0.000000000000    12.000000000000
         C           -0.864778117207    -0.127947314912     0.000000000000    12.000000000000
         C            0.543659460418    -0.685217540638     0.000000000000    12.000000000000
         H            0.538602639069     1.360553886373    -0.920390000000     1.007825032230
         H            0.538602639069     1.360553886373     0.920390000000     1.007825032230
         H           -1.447170192407    -0.214118381478     0.920340000000     1.007825032230
         H           -1.447170192407    -0.214118381478    -0.920340000000     1.007825032230
         H            0.909381512053    -1.146521099385    -0.920370000000     1.007825032230
         H            0.909381512053    -1.146521099385     0.920370000000     1.007825032230

  Nuclear repulsion =   75.286659304380962

  ==> Basis Set <==

  Basis Set: 6-311++G**
    Blend: 6-311++G**
    Number of shells: 60
    Number of basis function: 108
    Number of Cartesian functions: 111
    Spherical Harmonics?: true
    Max angular momentum: 2

  ==> DFJKGrad: Density-Fitted SCF Gradients <==

    Gradient:                    1
    J tasked:                  Yes
    K tasked:                  Yes
    wK tasked:                  No
    OpenMP threads:              1
    Integrals threads:           1
    Memory [MiB]:              375
    Schwarz Cutoff:          0E+00
    Fitting Condition:       1E-10

   => Auxiliary Basis Set <=

  Basis Set: (6-311++G** AUX)
    Blend: AUG-CC-PVTZ-JKFIT
    Number of shells: 174
    Number of basis function: 588
    Number of Cartesian functions: 723
    Spherical Harmonics?: true
    Max angular momentum: 4

  ==> DFT Potential <==

   => Composite Functional: B3LYP <= 

    B3LYP Hyb-GGA Exchange-Correlation Functional

    P. J. Stephens, F. J. Devlin, C. F. Chabalowski, and M. J. Frisch, J. Phys. Chem. 98, 11623 (1994)

    Deriv               =              1
    GGA                 =           TRUE
    Meta                =          FALSE

    Exchange Hybrid     =           TRUE
    MP2 Hybrid          =          FALSE

   => Exchange Functionals <=

    0.0800   Slater exchange
    0.7200         Becke 88

   => Exact (HF) Exchange <=

    0.2000               HF 

   => Correlation Functionals <=

    0.1900   Vosko, Wilk & Nusair (VWN5_RPA)
    0.8100   Lee, Yang & Parr

   => Molecular Quadrature <=

    Radial Scheme          =       TREUTLER
    Pruning Scheme         =           FLAT
    Nuclear Scheme         =       TREUTLER

    BS radius alpha        =              1
    Pruning alpha          =              1
    Radial Points          =             75
    Spherical Points       =            302
    Total Points           =         203850
    Total Blocks           =           1568
    Max Points             =            256
    Max Functions          =            108


  -Total Gradient:
     Atom            X                  Y                   Z
    ------   -----------------  -----------------  -----------------
       1       -0.000682324777    -0.000658857002     0.000000000000
       2        0.000697589537     0.000205716590     0.000000000000
       3       -0.000224123523     0.000342467976     0.000000000000
       4        0.001053915366     0.002485757289    -0.005661103649
       5        0.001053915366     0.002485757289     0.005661103649
       6       -0.002571307007    -0.000361896239     0.005568583717
       7       -0.002571307007    -0.000361896239    -0.005568583717
       8        0.001620299350    -0.002071606078    -0.005566852678
       9        0.001620299350    -0.002071606078     0.005566852678


*** tstop() called on atlantis at Tue Apr 19 14:16:48 2022
Module time:
	user time   =       2.35 seconds =       0.04 minutes
	system time =       0.01 seconds =       0.00 minutes
	total time  =          2 seconds =       0.03 minutes
Total time:
	user time   =      31.43 seconds =       0.52 minutes
	system time =       0.28 seconds =       0.00 minutes
	total time  =         32 seconds =       0.53 minutes

  //>>>>>>>>>>>>>>>>>>>>>>>>>>>>>>>>>>>//
  //    Loading displacement 3 of 34   //
  //<<<<<<<<<<<<<<<<<<<<<<<<<<<<<<<<<<<//
gradient() will perform analytic gradient computation.

*** tstart() called on atlantis
*** at Tue Apr 19 14:16:48 2022

   => Loading Basis Set <=

    Name: 6-311++G**
    Role: ORBITAL
    Keyword: BASIS
    atoms 1-3 entry C          line   119 file /home/akrom/software/anaconda3/envs/ffpenv/share/psi4/basis/6-311ppgss.gbs 
    atoms 4-9 entry H          line    42 file /home/akrom/software/anaconda3/envs/ffpenv/share/psi4/basis/6-311ppgss.gbs 


         ---------------------------------------------------------
                                   SCF
               by Justin Turney, Rob Parrish, Andy Simmonett
                          and Daniel G. A. Smith
                              RKS Reference
                        1 Threads,    500 MiB Core
         ---------------------------------------------------------

  ==> Geometry <==

    Molecular point group: cs
    Full point group: Cs

    Geometry (in Angstrom), charge = 0, multiplicity = 1:

       Center              X                  Y                   Z               Mass       
    ------------   -----------------  -----------------  -----------------  -----------------
         C            0.322081944250     0.813343688021     0.000000000000    12.000000000000
         C           -0.865318003082    -0.128389764139     0.000000000000    12.000000000000
         C            0.543404419293    -0.684939538412     0.000000000000    12.000000000000
         H            0.537301240642     1.360829034576    -0.920390000000     1.007825032230
         H            0.537301240642     1.360829034576     0.920390000000     1.007825032230
         H           -1.447665927882    -0.214858697572     0.920340000000     1.007825032230
         H           -1.447665927882    -0.214858697572    -0.920340000000     1.007825032230
         H            0.909362367658    -1.146055979665    -0.920370000000     1.007825032230
         H            0.909362367658    -1.146055979665     0.920370000000     1.007825032230

  Running in cs symmetry.

  Rotational constants: A =      0.66489  B =      0.66431  C =      0.41639 [cm^-1]
  Rotational constants: A =  19932.94970  B =  19915.53021  C =  12482.92073 [MHz]
  Nuclear repulsion =   75.276267816162189

  Charge       = 0
  Multiplicity = 1
  Electrons    = 24
  Nalpha       = 12
  Nbeta        = 12

  ==> Algorithm <==

  SCF Algorithm Type is DF.
  DIIS enabled.
  MOM disabled.
  Fractional occupation disabled.
  Guess Type is SAD.
  Energy threshold   = 1.00e-08
  Density threshold  = 1.00e-08
  Integral threshold = 0.00e+00

  ==> Primary Basis <==

  Basis Set: 6-311++G**
    Blend: 6-311++G**
    Number of shells: 60
    Number of basis function: 108
    Number of Cartesian functions: 111
    Spherical Harmonics?: true
    Max angular momentum: 2

  ==> DFT Potential <==

   => Composite Functional: B3LYP <= 

    B3LYP Hyb-GGA Exchange-Correlation Functional

    P. J. Stephens, F. J. Devlin, C. F. Chabalowski, and M. J. Frisch, J. Phys. Chem. 98, 11623 (1994)

    Deriv               =              1
    GGA                 =           TRUE
    Meta                =          FALSE

    Exchange Hybrid     =           TRUE
    MP2 Hybrid          =          FALSE

   => Exchange Functionals <=

    0.0800   Slater exchange
    0.7200         Becke 88

   => Exact (HF) Exchange <=

    0.2000               HF 

   => Correlation Functionals <=

    0.1900   Vosko, Wilk & Nusair (VWN5_RPA)
    0.8100   Lee, Yang & Parr

   => Molecular Quadrature <=

    Radial Scheme          =       TREUTLER
    Pruning Scheme         =           FLAT
    Nuclear Scheme         =       TREUTLER

    BS radius alpha        =              1
    Pruning alpha          =              1
    Radial Points          =             75
    Spherical Points       =            302
    Total Points           =         203850
    Total Blocks           =           1573
    Max Points             =            256
    Max Functions          =            108

   => Loading Basis Set <=

    Name: (6-311++G** AUX)
    Role: JKFIT
    Keyword: DF_BASIS_SCF
    atoms 1-3 entry C          line   162 file /home/akrom/software/anaconda3/envs/ffpenv/share/psi4/basis/aug-cc-pvtz-jkfit.gbs 
    atoms 4-9 entry H          line    70 file /home/akrom/software/anaconda3/envs/ffpenv/share/psi4/basis/aug-cc-pvtz-jkfit.gbs 

  ==> Pre-Iterations <==

   -------------------------------------------------------
    Irrep   Nso     Nmo     Nalpha   Nbeta   Ndocc  Nsocc
   -------------------------------------------------------
     A'        69      69       0       0       0       0
     A"        39      39       0       0       0       0
   -------------------------------------------------------
    Total     108     108      12      12      12       0
   -------------------------------------------------------

  ==> Integral Setup <==

  DFHelper Memory: AOs need 0.056 GiB; user supplied 0.056 GiB. Using in-core AOs.

  ==> MemDFJK: Density-Fitted J/K Matrices <==

    J tasked:                   Yes
    K tasked:                   Yes
    wK tasked:                   No
    OpenMP threads:               1
    Memory [MiB]:                57
    Algorithm:                 Core
    Schwarz Cutoff:           1E-12
    Mask sparsity (%):       0.0000
    Fitting Condition:        1E-10

   => Auxiliary Basis Set <=

  Basis Set: (6-311++G** AUX)
    Blend: AUG-CC-PVTZ-JKFIT
    Number of shells: 174
    Number of basis function: 588
    Number of Cartesian functions: 723
    Spherical Harmonics?: true
    Max angular momentum: 4

  Cached 100.0% of DFT collocation blocks in 0.572 [GiB].

  Minimum eigenvalue in the overlap matrix is 8.8922599819E-05.
  Using Symmetric Orthogonalization.

  SCF Guess: Superposition of Atomic Densities via on-the-fly atomic UHF.

  ==> Iterations <==

                           Total Energy        Delta E     RMS |[F,P]|

   @DF-RKS iter SAD:  -117.41556942725852   -1.17416e+02   0.00000e+00 
   @DF-RKS iter   1:  -117.45542213835554   -3.98527e-02   1.19915e-02 DIIS
   @DF-RKS iter   2:  -116.83696398491813    6.18458e-01   1.74819e-02 DIIS
   @DF-RKS iter   3:  -117.92821977926748   -1.09126e+00   8.31212e-04 DIIS
   @DF-RKS iter   4:  -117.93049145050419   -2.27167e-03   1.56824e-04 DIIS
   @DF-RKS iter   5:  -117.93056028396698   -6.88335e-05   2.08999e-05 DIIS
   @DF-RKS iter   6:  -117.93056174353880   -1.45957e-06   1.09056e-06 DIIS
   @DF-RKS iter   7:  -117.93056174550586   -1.96705e-09   1.17416e-06 DIIS
   @DF-RKS iter   8:  -117.93056174966104   -4.15518e-09   1.06635e-07 DIIS
   @DF-RKS iter   9:  -117.93056174970199   -4.09557e-11   2.98942e-09 DIIS
  Energy and wave function converged.


  ==> Post-Iterations <==

    Orbital Energies [Eh]
    ---------------------

    Doubly Occupied:                                                      

       1Ap   -10.173766     2Ap   -10.173405     3Ap   -10.173388  
       4Ap    -0.848826     5Ap    -0.597090     6Ap    -0.597009  
       1App   -0.494491     7Ap    -0.465751     2App   -0.366203  
       3App   -0.366088     8Ap    -0.297875     9Ap    -0.297498  

    Virtual:                                                              

      10Ap    -0.001518     4App    0.013464    11Ap     0.015947  
      12Ap     0.015949     5App    0.058363     6App    0.058381  
      13Ap     0.067596    14Ap     0.083041    15Ap     0.083079  
      16Ap     0.101076    17Ap     0.126561    18Ap     0.126572  
       7App    0.129423    19Ap     0.139893    20Ap     0.147350  
      21Ap     0.147354     8App    0.150256     9App    0.150328  
      10App    0.171031    22Ap     0.188542    23Ap     0.192254  
      11App    0.239888    12App    0.240095    24Ap     0.257173  
      25Ap     0.257294    26Ap     0.318636    27Ap     0.318875  
      28Ap     0.408775    13App    0.448271    29Ap     0.497523  
      30Ap     0.497606    14App    0.562476    15App    0.562958  
      31Ap     0.565682    32Ap     0.646631    33Ap     0.646835  
      34Ap     0.647722    16App    0.650563    17App    0.650674  
      18App    0.650837    35Ap     0.685515    36Ap     0.685602  
      37Ap     0.757832    38Ap     0.908691    39Ap     0.908729  
      19App    1.177604    40Ap     1.221454    20App    1.227936  
      21App    1.228023    22App    1.362875    41Ap     1.456339  
      42Ap     1.456479    23App    1.518433    24App    1.518620  
      43Ap     1.597120    25App    1.628864    44Ap     1.648717  
      45Ap     1.648939    26App    1.751109    27App    1.751729  
      46Ap     1.758184    47Ap     1.818598    48Ap     1.819224  
      49Ap     2.020349    50Ap     2.020692    28App    2.033478  
      29App    2.033584    51Ap     2.120510    52Ap     2.219744  
      53Ap     2.220120    54Ap     2.267658    55Ap     2.364540  
      30App    2.369673    31App    2.396698    32App    2.545245  
      33App    2.545634    56Ap     2.632532    57Ap     2.633207  
      34App    2.735977    58Ap     2.736121    59Ap     2.745217  
      60Ap     2.745315    61Ap     2.930713    62Ap     2.931100  
      35App    2.952495    36App    2.953688    63Ap     3.355821  
      64Ap     3.513319    37App    3.524824    38App    3.850471  
      39App    3.850652    65Ap     4.376609    66Ap     4.377182  
      67Ap    23.877310    68Ap    23.878395    69Ap    23.894001  

    Final Occupation by Irrep:
             Ap   App 
    DOCC [     9,    3 ]

  @DF-RKS Final Energy:  -117.93056174970199

   => Energetics <=

    Nuclear Repulsion Energy =             75.2762678161621892
    One-Electron Energy =                -305.9319474346073093
    Two-Electron Energy =                 127.7139545828814136
    DFT Exchange-Correlation Energy =     -14.9888367141382979
    Empirical Dispersion Energy =           0.0000000000000000
    VV10 Nonlocal Energy =                  0.0000000000000000
    Total Energy =                       -117.9305617497019938

Computation Completed


Properties will be evaluated at   0.000000,   0.000000,   0.000000 [a0]

Properties computed using the SCF density matrix

  Nuclear Dipole Moment: [e a0]
     X:    -0.0019      Y:    -0.0002      Z:     0.0000

  Electronic Dipole Moment: [e a0]
     X:     0.0020      Y:    -0.0001      Z:     0.0000

  Dipole Moment: [e a0]
     X:     0.0001      Y:    -0.0002      Z:     0.0000     Total:     0.0002

  Dipole Moment: [D]
     X:     0.0003      Y:    -0.0006      Z:     0.0000     Total:     0.0006


*** tstop() called on atlantis at Tue Apr 19 14:16:55 2022
Module time:
	user time   =       6.29 seconds =       0.10 minutes
	system time =       0.05 seconds =       0.00 minutes
	total time  =          7 seconds =       0.12 minutes
Total time:
	user time   =      37.73 seconds =       0.63 minutes
	system time =       0.33 seconds =       0.01 minutes
	total time  =         39 seconds =       0.65 minutes

*** tstart() called on atlantis
*** at Tue Apr 19 14:16:55 2022


         ------------------------------------------------------------
                                   SCF GRAD                          
                          Rob Parrish, Justin Turney,                
                       Andy Simmonett, and Alex Sokolov              
         ------------------------------------------------------------

  ==> Geometry <==

    Molecular point group: cs
    Full point group: Cs

    Geometry (in Angstrom), charge = 0, multiplicity = 1:

       Center              X                  Y                   Z               Mass       
    ------------   -----------------  -----------------  -----------------  -----------------
         C            0.322081944250     0.813343688021     0.000000000000    12.000000000000
         C           -0.865318003082    -0.128389764139     0.000000000000    12.000000000000
         C            0.543404419293    -0.684939538412     0.000000000000    12.000000000000
         H            0.537301240642     1.360829034576    -0.920390000000     1.007825032230
         H            0.537301240642     1.360829034576     0.920390000000     1.007825032230
         H           -1.447665927882    -0.214858697572     0.920340000000     1.007825032230
         H           -1.447665927882    -0.214858697572    -0.920340000000     1.007825032230
         H            0.909362367658    -1.146055979665    -0.920370000000     1.007825032230
         H            0.909362367658    -1.146055979665     0.920370000000     1.007825032230

  Nuclear repulsion =   75.276267816162189

  ==> Basis Set <==

  Basis Set: 6-311++G**
    Blend: 6-311++G**
    Number of shells: 60
    Number of basis function: 108
    Number of Cartesian functions: 111
    Spherical Harmonics?: true
    Max angular momentum: 2

  ==> DFJKGrad: Density-Fitted SCF Gradients <==

    Gradient:                    1
    J tasked:                  Yes
    K tasked:                  Yes
    wK tasked:                  No
    OpenMP threads:              1
    Integrals threads:           1
    Memory [MiB]:              375
    Schwarz Cutoff:          0E+00
    Fitting Condition:       1E-10

   => Auxiliary Basis Set <=

  Basis Set: (6-311++G** AUX)
    Blend: AUG-CC-PVTZ-JKFIT
    Number of shells: 174
    Number of basis function: 588
    Number of Cartesian functions: 723
    Spherical Harmonics?: true
    Max angular momentum: 4

  ==> DFT Potential <==

   => Composite Functional: B3LYP <= 

    B3LYP Hyb-GGA Exchange-Correlation Functional

    P. J. Stephens, F. J. Devlin, C. F. Chabalowski, and M. J. Frisch, J. Phys. Chem. 98, 11623 (1994)

    Deriv               =              1
    GGA                 =           TRUE
    Meta                =          FALSE

    Exchange Hybrid     =           TRUE
    MP2 Hybrid          =          FALSE

   => Exchange Functionals <=

    0.0800   Slater exchange
    0.7200         Becke 88

   => Exact (HF) Exchange <=

    0.2000               HF 

   => Correlation Functionals <=

    0.1900   Vosko, Wilk & Nusair (VWN5_RPA)
    0.8100   Lee, Yang & Parr

   => Molecular Quadrature <=

    Radial Scheme          =       TREUTLER
    Pruning Scheme         =           FLAT
    Nuclear Scheme         =       TREUTLER

    BS radius alpha        =              1
    Pruning alpha          =              1
    Radial Points          =             75
    Spherical Points       =            302
    Total Points           =         203850
    Total Blocks           =           1573
    Max Points             =            256
    Max Functions          =            108


  -Total Gradient:
     Atom            X                  Y                   Z
    ------   -----------------  -----------------  -----------------
       1        0.000373887241    -0.000141832359     0.000000000000
       2        0.000170631538    -0.000059644097     0.000000000000
       3       -0.000295099371     0.000341826856     0.000000000000
       4        0.000863645821     0.002368679630    -0.005486345520
       5        0.000863645821     0.002368679630     0.005486345520
       6       -0.002608282254    -0.000410495467     0.005558971849
       7       -0.002608282254    -0.000410495467    -0.005558971849
       8        0.001619427041    -0.002031676290    -0.005571780142
       9        0.001619427041    -0.002031676290     0.005571780142


*** tstop() called on atlantis at Tue Apr 19 14:16:57 2022
Module time:
	user time   =       2.35 seconds =       0.04 minutes
	system time =       0.00 seconds =       0.00 minutes
	total time  =          2 seconds =       0.03 minutes
Total time:
	user time   =      40.08 seconds =       0.67 minutes
	system time =       0.33 seconds =       0.01 minutes
	total time  =         41 seconds =       0.68 minutes

  //>>>>>>>>>>>>>>>>>>>>>>>>>>>>>>>>>>>//
  //    Loading displacement 4 of 34   //
  //<<<<<<<<<<<<<<<<<<<<<<<<<<<<<<<<<<<//
gradient() will perform analytic gradient computation.

*** tstart() called on atlantis
*** at Tue Apr 19 14:16:57 2022

   => Loading Basis Set <=

    Name: 6-311++G**
    Role: ORBITAL
    Keyword: BASIS
    atoms 1-3 entry C          line   119 file /home/akrom/software/anaconda3/envs/ffpenv/share/psi4/basis/6-311ppgss.gbs 
    atoms 4-9 entry H          line    42 file /home/akrom/software/anaconda3/envs/ffpenv/share/psi4/basis/6-311ppgss.gbs 


         ---------------------------------------------------------
                                   SCF
               by Justin Turney, Rob Parrish, Andy Simmonett
                          and Daniel G. A. Smith
                              RKS Reference
                        1 Threads,    500 MiB Core
         ---------------------------------------------------------

  ==> Geometry <==

    Molecular point group: cs
    Full point group: Cs

    Geometry (in Angstrom), charge = 0, multiplicity = 1:

       Center              X                  Y                   Z               Mass       
    ------------   -----------------  -----------------  -----------------  -----------------
         C            0.321531939855     0.812635159068     0.000000000000    12.000000000000
         C           -0.865072120902    -0.128008550426     0.000000000000    12.000000000000
         C            0.543576026536    -0.684746186637     0.000000000000    12.000000000000
         H            0.537745691682     1.361023130555    -0.920390000000     1.007825032230
         H            0.537745691682     1.361023130555     0.920390000000     1.007825032230
         H           -1.447431558178    -0.214399813329     0.920340000000     1.007825032230
         H           -1.447431558178    -0.214399813329    -0.920340000000     1.007825032230
         H            0.909472463446    -1.145911419873    -0.920370000000     1.007825032230
         H            0.909472463446    -1.145911419873     0.920370000000     1.007825032230

  Running in cs symmetry.

  Rotational constants: A =      0.66518  B =      0.66468  C =      0.41665 [cm^-1]
  Rotational constants: A =  19941.69418  B =  19926.66026  C =  12490.72376 [MHz]
  Nuclear repulsion =   75.292327113354389

  Charge       = 0
  Multiplicity = 1
  Electrons    = 24
  Nalpha       = 12
  Nbeta        = 12

  ==> Algorithm <==

  SCF Algorithm Type is DF.
  DIIS enabled.
  MOM disabled.
  Fractional occupation disabled.
  Guess Type is SAD.
[...]
    MP2 Hybrid          =          FALSE

   => Exchange Functionals <=

    0.0800   Slater exchange
    0.7200         Becke 88

   => Exact (HF) Exchange <=

    0.2000               HF 

   => Correlation Functionals <=

    0.1900   Vosko, Wilk & Nusair (VWN5_RPA)
    0.8100   Lee, Yang & Parr

   => Molecular Quadrature <=

    Radial Scheme          =       TREUTLER
    Pruning Scheme         =           FLAT
    Nuclear Scheme         =       TREUTLER

    BS radius alpha        =              1
    Pruning alpha          =              1
    Radial Points          =             75
    Spherical Points       =            302
    Total Points           =         203850
    Total Blocks           =           1569
    Max Points             =            256
    Max Functions          =            108


  -Total Gradient:
     Atom            X                  Y                   Z
    ------   -----------------  -----------------  -----------------
       1       -0.000161381756    -0.000392411178     0.000004204776
       2        0.000446813919     0.000068965417     0.000425086376
       3       -0.000263118781     0.000341410616    -0.001191336895
       4        0.000955590861     0.002421033413    -0.005573950070
       5        0.000961009158     0.002433592315     0.005571849049
       6       -0.002421149398    -0.000383833228     0.005294059533
       7       -0.002757400278    -0.000390284708    -0.005832969163
       8        0.001268562918    -0.001702228168    -0.004915922369
       9        0.001972360735    -0.002395734651     0.006218989898


*** tstop() called on atlantis at Tue Apr 19 14:21:27 2022
Module time:
	user time   =       2.35 seconds =       0.04 minutes
	system time =       0.00 seconds =       0.00 minutes
	total time  =          2 seconds =       0.03 minutes
Total time:
	user time   =     308.29 seconds =       5.14 minutes
	system time =       1.51 seconds =       0.03 minutes
	total time  =        311 seconds =       5.18 minutes

         ----------------------------------------------------------
                                   FINDIF
                     R. A. King and Jonathon Misiewicz
         ---------------------------------------------------------

  Computing second-derivative from gradients using projected, 
  symmetry-adapted, cartesian coordinates.

  34 gradients passed in, including the reference geometry.
  Generating complete list of displacements from unique ones.

    Operation 2 takes plus displacements of irrep A" to minus ones.

-------------------------------------------------------------


  ==> Harmonic Vibrational Analysis <==

  non-mass-weighted Hessian:       Symmetric? True   Hermitian? True   Lin Dep Dim?  6 (0)
  projection of translations (True) and rotations (True) removed 6 degrees of freedom (6)
  total projector:                 Symmetric? True   Hermitian? True   Lin Dep Dim?  6 (6)
  mass-weighted Hessian:           Symmetric? True   Hermitian? True   Lin Dep Dim?  6 (0)
  pre-proj  low-frequency mode:    0.0000i [cm^-1]
  pre-proj  low-frequency mode:    0.0000i [cm^-1]
  pre-proj  low-frequency mode:    0.0000  [cm^-1]
  pre-proj  low-frequency mode:    0.0000  [cm^-1]
  pre-proj  low-frequency mode:    0.0000  [cm^-1]
  pre-proj  low-frequency mode:    0.0000  [cm^-1]
  pre-proj  all modes:['0.0000i' '0.0000i' '0.0000' '0.0000' '0.0000' '0.0000' '788.6296'
 '788.7517' '863.1997' '864.8653' '899.4083' '1072.1110' '1075.2038'
 '1108.5342' '1167.6731' '1194.6929' '1223.7728' '1223.8700' '1480.0378'
 '1480.3069' '1524.1509' '3038.5216' '3038.5829' '3046.0599' '3113.7710'
 '3113.7975' '3136.1383']
  projected mass-weighted Hessian: Symmetric? True   Hermitian? True   Lin Dep Dim?  6 (6)
  post-proj low-frequency mode:    0.0000i [cm^-1] (TR)
  post-proj low-frequency mode:    0.0000i [cm^-1] (TR)
  post-proj low-frequency mode:    0.0000i [cm^-1] (TR)
  post-proj low-frequency mode:    0.0000i [cm^-1] (TR)
  post-proj low-frequency mode:    0.0000  [cm^-1] (TR)
  post-proj low-frequency mode:    0.0000  [cm^-1] (TR)
  post-proj  all modes:['0.0000i' '0.0000i' '0.0000i' '0.0000i' '0.0000' '0.0000' '788.6296'
 '788.7517' '863.1997' '864.8653' '899.4083' '1072.1110' '1075.2038'
 '1108.5342' '1167.6731' '1194.6929' '1223.7728' '1223.8700' '1480.0378'
 '1480.3069' '1524.1509' '3038.5216' '3038.5829' '3046.0599' '3113.7710'
 '3113.7975' '3136.1383']

  Vibration                       7                   8                   9           
  Freq [cm^-1]                 788.6296            788.7517            863.1997       
  Irrep                          App                 App                  Ap          
  Reduced mass [u]              1.0213              1.0213              4.1952        
  Force const [mDyne/A]         0.3742              0.3744              1.8417        
  Turning point v=0 [a0]        0.3866              0.3866              0.1823        
  RMS dev v=0 [a0 u^1/2]        0.2763              0.2763              0.2641        
  Char temp [K]               1134.6623           1134.8380           1241.9522       
  ----------------------------------------------------------------------------------
      1   C                0.00 -0.00 -0.03   -0.00  0.00  0.00   -0.20  0.23  0.00   
      2   C               -0.00  0.00  0.01    0.00 -0.00 -0.03    0.31  0.07  0.00   
      3   C                0.00  0.00  0.02   -0.00 -0.00  0.02   -0.08 -0.30  0.00   
      4   H                0.18  0.27  0.18    0.39 -0.21 -0.03   -0.30  0.24 -0.01   
      5   H               -0.18 -0.27  0.18   -0.39  0.21 -0.03   -0.30  0.24  0.01   
      6   H               -0.18  0.39 -0.07    0.27  0.21  0.17    0.26  0.07 -0.03   
      7   H                0.18 -0.39 -0.07   -0.27 -0.21  0.17    0.26  0.07  0.03   
      8   H               -0.40 -0.06 -0.11    0.06  0.37 -0.14   -0.17 -0.32 -0.02   
      9   H                0.40  0.06 -0.11   -0.06 -0.37 -0.14   -0.17 -0.32  0.02   

  Vibration                       10                  11                  12          
  Freq [cm^-1]                 864.8653            899.4083           1072.1110       
  Irrep                           Ap                 App                  Ap          
  Reduced mass [u]              4.2218              1.0442              1.2172        
  Force const [mDyne/A]         1.8606              0.4977              0.8243        
  Turning point v=0 [a0]        0.1816              0.3581              0.3038        
  RMS dev v=0 [a0 u^1/2]        0.2638              0.2587              0.2370        
  Char temp [K]               1244.3486           1294.0483           1542.5291       
  ----------------------------------------------------------------------------------
      1   C               -0.23 -0.22  0.00   -0.00 -0.00 -0.03    0.04  0.00  0.00   
      2   C               -0.07  0.29  0.00    0.00  0.00 -0.03    0.02 -0.11 -0.00   
      3   C                0.30 -0.10  0.00    0.00 -0.00 -0.03   -0.06 -0.03 -0.00   
      4   H               -0.25 -0.16  0.03    0.13  0.33  0.20   -0.18  0.06 -0.01   
      5   H               -0.25 -0.16 -0.03   -0.13 -0.33  0.20   -0.18  0.06  0.01   
      6   H               -0.08  0.40  0.00    0.35  0.05  0.20   -0.09  0.56 -0.00   
      7   H               -0.08  0.40 -0.00   -0.35 -0.05  0.20   -0.09  0.56  0.00   
      8   H                0.32 -0.03 -0.03    0.22 -0.28  0.20    0.29  0.22  0.01   
      9   H                0.32 -0.03  0.03   -0.22  0.28  0.20    0.29  0.22 -0.01   

  Vibration                       13                  14                  15          
  Freq [cm^-1]                1075.2038           1108.5342           1167.6731       
  Irrep                           Ap                  Ap                 App          
  Reduced mass [u]              1.2206              1.4254              1.0078        
  Force const [mDyne/A]         0.8314              1.0320              0.8096        
  Turning point v=0 [a0]        0.3029              0.2760              0.3199        
  RMS dev v=0 [a0 u^1/2]        0.2366              0.2330              0.2271        
  Char temp [K]               1546.9789           1594.9339           1680.0217       
  ----------------------------------------------------------------------------------
      1   C               -0.10  0.04  0.00    0.10 -0.04 -0.00    0.00  0.00 -0.00   
      2   C                0.02  0.02 -0.00   -0.02  0.11  0.00   -0.00  0.00  0.00   
      3   C               -0.06 -0.06 -0.00   -0.09 -0.07 -0.00   -0.00 -0.00 -0.00   
      4   H                0.50 -0.20 -0.01   -0.37  0.14 -0.00   -0.38  0.15 -0.00   
      5   H                0.50 -0.20  0.01   -0.37  0.14  0.00    0.38 -0.15 -0.00   
      6   H                0.01 -0.10 -0.02    0.06 -0.39  0.00   -0.06  0.40 -0.00   
      7   H                0.01 -0.10  0.02    0.06 -0.39 -0.00    0.06 -0.40 -0.00   
      8   H                0.33  0.28 -0.01    0.32  0.25  0.00    0.32  0.25  0.00   
      9   H                0.33  0.28  0.01    0.32  0.25 -0.00   -0.32 -0.25  0.00   

  Vibration                       16                  17                  18          
  Freq [cm^-1]                1194.6929           1223.7728           1223.8700       
  Irrep                           Ap                 App                 App          
  Reduced mass [u]              2.8862              1.4507              1.4506        
  Force const [mDyne/A]         2.4271              1.2800              1.2802        
  Turning point v=0 [a0]        0.1869              0.2604              0.2604        
  RMS dev v=0 [a0 u^1/2]        0.2245              0.2218              0.2218        
  Char temp [K]               1718.8971           1760.7366           1760.8764       
  ----------------------------------------------------------------------------------
      1   C               -0.09 -0.22 -0.00    0.00 -0.00  0.16    0.00  0.00 -0.04   
      2   C                0.24  0.03  0.00   -0.00  0.00 -0.04   -0.00 -0.00  0.16   
      3   C               -0.15  0.19 -0.00    0.00 -0.00 -0.11    0.00 -0.00 -0.12   
      4   H               -0.14 -0.34 -0.05   -0.05 -0.40 -0.08    0.39 -0.05  0.02   
      5   H               -0.14 -0.34  0.05    0.05  0.40 -0.08   -0.39  0.05  0.02   
      6   H                0.36  0.06  0.06    0.05  0.39  0.02   -0.40  0.05 -0.08   
      7   H                0.36  0.06 -0.06   -0.05 -0.39  0.02    0.40 -0.05 -0.08   
      8   H               -0.23  0.28 -0.05   -0.04 -0.39  0.06    0.39 -0.06  0.06   
      9   H               -0.23  0.28  0.05    0.04  0.39  0.06   -0.39  0.06  0.06   

  Vibration                       19                  20                  21          
  Freq [cm^-1]                1480.0378           1480.3069           1524.1509       
  Irrep                           Ap                  Ap                  Ap          
  Reduced mass [u]              1.0884              1.0890              1.2827        
  Force const [mDyne/A]         1.4047              1.4059              1.7556        
  Turning point v=0 [a0]        0.2734              0.2733              0.2482        
  RMS dev v=0 [a0 u^1/2]        0.2017              0.2017              0.1987        
  Char temp [K]               2129.4449           2129.8320           2192.9138       
  ----------------------------------------------------------------------------------
      1   C               -0.01  0.01 -0.00   -0.03 -0.06  0.00   -0.03 -0.08  0.00   
      2   C               -0.06 -0.00  0.00   -0.03 -0.02 -0.00    0.09  0.01 -0.00   
      3   C               -0.04  0.04 -0.00    0.01 -0.03  0.00   -0.06  0.07  0.00   
      4   H                0.01 -0.02 -0.01    0.17  0.44  0.33    0.12  0.29  0.25   
      5   H                0.01 -0.02  0.01    0.17  0.44 -0.33    0.12  0.29 -0.25   
      6   H                0.39  0.05  0.28    0.25  0.05  0.18   -0.32 -0.05 -0.25   
      7   H                0.39  0.05 -0.28    0.25  0.05 -0.18   -0.32 -0.05  0.25   
      8   H                0.27 -0.33  0.29   -0.13  0.18 -0.15    0.19 -0.24  0.25   
      9   H                0.27 -0.33 -0.29   -0.13  0.18  0.15    0.19 -0.24 -0.25   

  Vibration                       22                  23                  24          
  Freq [cm^-1]                3038.5216           3038.5829           3046.0599       
  Irrep                           Ap                  Ap                  Ap          
  Reduced mass [u]              1.0496              1.0496              1.0619        
  Force const [mDyne/A]         5.7093              5.7100              5.8050        
  Turning point v=0 [a0]        0.1943              0.1943              0.1929        
  RMS dev v=0 [a0 u^1/2]        0.1408              0.1408              0.1406        
  Char temp [K]               4371.7560           4371.8442           4382.6020       
  ----------------------------------------------------------------------------------
      1   C                0.00  0.00  0.00    0.02  0.05 -0.00    0.01  0.04 -0.00   
      2   C                0.04  0.01 -0.00    0.02  0.00 -0.00   -0.04 -0.01  0.00   
      3   C                0.03 -0.03  0.00   -0.02  0.02 -0.00    0.02 -0.03  0.00   
      4   H               -0.00 -0.01  0.02   -0.11 -0.28  0.49   -0.08 -0.19  0.35   
      5   H               -0.00 -0.01 -0.02   -0.11 -0.28 -0.49   -0.08 -0.19 -0.35   
      6   H               -0.26 -0.04  0.43   -0.14 -0.02  0.23    0.21  0.03 -0.35   
      7   H               -0.26 -0.04 -0.43   -0.14 -0.02 -0.23    0.21  0.03  0.35   
      8   H               -0.16  0.20  0.42    0.10 -0.12 -0.26   -0.13  0.16  0.35   
      9   H               -0.16  0.20 -0.42    0.10 -0.12  0.26   -0.13  0.16 -0.35   

  Vibration                       25                  26                  27          
  Freq [cm^-1]                3113.7710           3113.7975           3136.1383       
  Irrep                          App                 App                 App          
  Reduced mass [u]              1.1202              1.1202              1.1160        
  Force const [mDyne/A]         6.3992              6.3994              6.4670        
  Turning point v=0 [a0]        0.1858              0.1858              0.1855        
  RMS dev v=0 [a0 u^1/2]        0.1390              0.1390              0.1385        
  Char temp [K]               4480.0232           4480.0614           4512.2048       
  ----------------------------------------------------------------------------------
      1   C                0.00  0.00  0.05    0.00  0.00  0.06   -0.00 -0.00 -0.06   
      2   C               -0.00 -0.00 -0.08   -0.00 -0.00  0.01   -0.00 -0.00 -0.06   
      3   C                0.00  0.00  0.03    0.00 -0.00 -0.08    0.00 -0.00 -0.06   
      4   H                0.07  0.19 -0.31    0.09  0.22 -0.37   -0.08 -0.21  0.34   
      5   H               -0.07 -0.19 -0.31   -0.09 -0.22 -0.37    0.08  0.21  0.34   
      6   H               -0.30 -0.04  0.48    0.05  0.01 -0.08   -0.22 -0.03  0.34   
      7   H                0.30  0.04  0.48   -0.05 -0.01 -0.08    0.22  0.03  0.34   
      8   H                0.06 -0.09 -0.17   -0.18  0.23  0.46   -0.14  0.17  0.34   
      9   H               -0.06  0.09 -0.17    0.18 -0.23  0.46    0.14 -0.17  0.34   

  ==> Thermochemistry Components <==

  Entropy, S
    Electronic S            0.000 [cal/(mol K)]        0.000 [J/(mol K)]       0.00000000 [mEh/K] (multiplicity = 1)
    Translational S        37.135 [cal/(mol K)]      155.375 [J/(mol K)]       0.05917914 [mEh/K] (mol. weight = 42.0470 [u], P = 101325.00 [Pa])
    Rotational S           21.699 [cal/(mol K)]       90.789 [J/(mol K)]       0.03457982 [mEh/K] (symmetry no. = 1)
    Vibrational S           1.295 [cal/(mol K)]        5.419 [J/(mol K)]       0.00206415 [mEh/K]
  Total S                  60.130 [cal/(mol K)]      251.584 [J/(mol K)]       0.09582311 [mEh/K]
  Correction S              0.000 [cal/(mol K)]        0.000 [J/(mol K)]       0.00000000 [mEh/K]

  Constant volume heat capacity, Cv
    Electronic Cv           0.000 [cal/(mol K)]        0.000 [J/(mol K)]       0.00000000 [mEh/K]
    Translational Cv        2.981 [cal/(mol K)]       12.472 [J/(mol K)]       0.00475022 [mEh/K]
    Rotational Cv           2.981 [cal/(mol K)]       12.472 [J/(mol K)]       0.00475022 [mEh/K]
    Vibrational Cv          4.867 [cal/(mol K)]       20.362 [J/(mol K)]       0.00775531 [mEh/K]
  Total Cv                 10.828 [cal/(mol K)]       45.305 [J/(mol K)]       0.01725574 [mEh/K]
  Correction Cv             0.000 [cal/(mol K)]        0.000 [J/(mol K)]       0.00000000 [mEh/K]

  Constant pressure heat capacity, Cp
    Electronic Cp           0.000 [cal/(mol K)]        0.000 [J/(mol K)]       0.00000000 [mEh/K]
    Translational Cp        4.968 [cal/(mol K)]       20.786 [J/(mol K)]       0.00791703 [mEh/K]
    Rotational Cp           2.981 [cal/(mol K)]       12.472 [J/(mol K)]       0.00475022 [mEh/K]
    Vibrational Cp          4.867 [cal/(mol K)]       20.362 [J/(mol K)]       0.00775531 [mEh/K]
  Total Cp                 12.815 [cal/(mol K)]       53.619 [J/(mol K)]       0.02042255 [mEh/K]
  Correction Cp             0.000 [cal/(mol K)]        0.000 [J/(mol K)]       0.00000000 [mEh/K]

  ==> Thermochemistry Energy Analysis <==

  Raw electronic energy, E0
  Total E0, Electronic energy at well bottom at 0 [K]                 -117.93055761 [Eh]

  Zero-point energy, ZPE_vib = Sum_i nu_i / 2
    Electronic ZPE          0.000 [kcal/mol]        0.000 [kJ/mol]       0.00000000 [Eh]
    Translational ZPE       0.000 [kcal/mol]        0.000 [kJ/mol]       0.00000000 [Eh]
    Rotational ZPE          0.000 [kcal/mol]        0.000 [kJ/mol]       0.00000000 [Eh]
    Vibrational ZPE        50.381 [kcal/mol]      210.794 [kJ/mol]       0.08028736 [Eh]       17621.039 [cm^-1]
  Correction ZPE           50.381 [kcal/mol]      210.794 [kJ/mol]       0.08028736 [Eh]       17621.039 [cm^-1]
  Total ZPE, Electronic energy at 0 [K]                               -117.85027025 [Eh]

  Thermal Energy, E (includes ZPE)
    Electronic E            0.000 [kcal/mol]        0.000 [kJ/mol]       0.00000000 [Eh]
    Translational E         0.889 [kcal/mol]        3.718 [kJ/mol]       0.00141628 [Eh]
    Rotational E            0.889 [kcal/mol]        3.718 [kJ/mol]       0.00141628 [Eh]
    Vibrational E          50.696 [kcal/mol]      212.114 [kJ/mol]       0.08078978 [Eh]
  Correction E             52.474 [kcal/mol]      219.550 [kJ/mol]       0.08362233 [Eh]
  Total E, Electronic energy at  298.15 [K]                           -117.84693528 [Eh]

  Enthalpy, H_trans = E_trans + k_B * T
    Electronic H            0.000 [kcal/mol]        0.000 [kJ/mol]       0.00000000 [Eh]
    Translational H         1.481 [kcal/mol]        6.197 [kJ/mol]       0.00236046 [Eh]
    Rotational H            0.889 [kcal/mol]        3.718 [kJ/mol]       0.00141628 [Eh]
    Vibrational H          50.696 [kcal/mol]      212.114 [kJ/mol]       0.08078978 [Eh]
  Correction H             53.066 [kcal/mol]      222.029 [kJ/mol]       0.08456652 [Eh]
  Total H, Enthalpy at  298.15 [K]                                    -117.84599109 [Eh]

  Gibbs free energy, G = H - T * S
    Electronic G            0.000 [kcal/mol]        0.000 [kJ/mol]       0.00000000 [Eh]
    Translational G        -9.591 [kcal/mol]      -40.128 [kJ/mol]      -0.01528380 [Eh]
    Rotational G           -5.581 [kcal/mol]      -23.350 [kJ/mol]      -0.00889370 [Eh]
    Vibrational G          50.310 [kcal/mol]      210.498 [kJ/mol]       0.08017435 [Eh]
  Correction G             35.139 [kcal/mol]      147.020 [kJ/mol]       0.05599686 [Eh]
  Total G, Free enthalpy at  298.15 [K]                               -117.87456075 [Eh]

    Psi4 stopped on: Tuesday, 19 April 2022 02:21PM
    Psi4 wall time for execution: 0:05:11.03

*** Psi4 exiting successfully. Buy a developer a beer!
