
    -----------------------------------------------------------------------
          Psi4: An Open-Source Ab Initio Electronic Structure Package
                               Psi4 1.3.2 release

                         Git: Rev {HEAD} ecbda83 


    R. M. Parrish, L. A. Burns, D. G. A. Smith, A. C. Simmonett,
    A. E. DePrince III, E. G. Hohenstein, U. Bozkaya, A. Yu. Sokolov,
    R. Di Remigio, R. M. Richard, J. F. Gonthier, A. M. James,
    H. R. McAlexander, A. Kumar, M. Saitow, X. Wang, B. P. Pritchard,
    P. Verma, H. F. Schaefer III, K. Patkowski, R. A. King, E. F. Valeev,
    F. A. Evangelista, J. M. Turney, T. D. Crawford, and C. D. Sherrill,
    J. Chem. Theory Comput. 13(7) pp 3185--3197 (2017).
    (doi: 10.1021/acs.jctc.7b00174)


                         Additional Contributions by
    P. Kraus, H. Kruse, M. H. Lechner, M. C. Schieber, R. A. Shaw,
    A. Alenaizan, R. Galvelis, Z. L. Glick, S. Lehtola, and J. P. Misiewicz

    -----------------------------------------------------------------------


    Psi4 started on: Tuesday, 19 April 2022 02:18AM

    Process ID: 26065
    Host:       atlantis
    PSIDATADIR: /home/akrom/software/anaconda3/envs/ffpenv/share/psi4
    Memory:     500.0 MiB
    Threads:    1
    
  ==> Input File <==

--------------------------------------------------------------------------
set basis  6-31+G*
molecule {
0 1
   C        0.32153        0.81326        0.00000
   C       -0.86505       -0.12817        0.00000
   C        0.54353       -0.68508        0.00000
   H        0.53795        1.36069       -0.92039
   H        0.53795        1.36069        0.92039
   H       -1.44742       -0.21449        0.92034
   H       -1.44742       -0.21449       -0.92034
   H        0.90937       -1.14629       -0.92037
   H        0.90937       -1.14629        0.92037
}
energy('MP2')
frequencies('MP2')
--------------------------------------------------------------------------
    SCF Algorithm Type (re)set to DF.

*** tstart() called on atlantis
*** at Tue Apr 19 02:18:56 2022

   => Loading Basis Set <=

    Name: 6-31+G*
    Role: ORBITAL
    Keyword: BASIS
    atoms 1-3 entry C          line   119 file /home/akrom/software/anaconda3/envs/ffpenv/share/psi4/basis/6-31pgs.gbs 
    atoms 4-9 entry H          line    46 file /home/akrom/software/anaconda3/envs/ffpenv/share/psi4/basis/6-31pgs.gbs 


         ---------------------------------------------------------
                                   SCF
               by Justin Turney, Rob Parrish, Andy Simmonett
                          and Daniel G. A. Smith
                              RHF Reference
                        1 Threads,    500 MiB Core
         ---------------------------------------------------------

  ==> Geometry <==

    Molecular point group: cs
    Full point group: Cs

    Geometry (in Angstrom), charge = 0, multiplicity = 1:

       Center              X                  Y                   Z               Mass       
    ------------   -----------------  -----------------  -----------------  -----------------
         C            0.321531939855     0.813261460475     0.000000000000    12.000000000000
         C           -0.865048060145    -0.128168539525     0.000000000000    12.000000000000
         C            0.543531939855    -0.685078539525     0.000000000000    12.000000000000
         H            0.537951939855     1.360691460475    -0.920390000000     1.007825032230
         H            0.537951939855     1.360691460475     0.920390000000     1.007825032230
         H           -1.447418060145    -0.214488539525     0.920340000000     1.007825032230
         H           -1.447418060145    -0.214488539525    -0.920340000000     1.007825032230
         H            0.909371939855    -1.146288539525    -0.920370000000     1.007825032230
         H            0.909371939855    -1.146288539525     0.920370000000     1.007825032230

  Running in cs symmetry.

  Rotational constants: A =      0.66472  B =      0.66470  C =      0.41647 [cm^-1]
  Rotational constants: A =  19927.70596  B =  19927.20236  C =  12485.44714 [MHz]
  Nuclear repulsion =   75.281464809014025

  Charge       = 0
  Multiplicity = 1
  Electrons    = 24
  Nalpha       = 12
  Nbeta        = 12

  ==> Algorithm <==

  SCF Algorithm Type is DF.
  DIIS enabled.
  MOM disabled.
  Fractional occupation disabled.
  Guess Type is SAD.
  Energy threshold   = 1.00e-08
  Density threshold  = 1.00e-08
  Integral threshold = 0.00e+00

  ==> Primary Basis <==

  Basis Set: 6-31+G*
    Blend: 6-31+G*
    Number of shells: 36
    Number of basis function: 69
    Number of Cartesian functions: 69
    Spherical Harmonics?: false
    Max angular momentum: 2

   => Loading Basis Set <=

    Name: (6-31+G* AUX)
    Role: JKFIT
    Keyword: DF_BASIS_SCF
    atoms 1-3 entry C          line   194 file /home/akrom/software/anaconda3/envs/ffpenv/share/psi4/basis/heavy-aug-cc-pvdz-jkfit.gbs 
    atoms 4-9 entry H          line   116 file /home/akrom/software/anaconda3/envs/ffpenv/share/psi4/basis/heavy-aug-cc-pvdz-jkfit.gbs 

  ==> Pre-Iterations <==

   -------------------------------------------------------
    Irrep   Nso     Nmo     Nalpha   Nbeta   Ndocc  Nsocc
   -------------------------------------------------------
     A'        48      48       0       0       0       0
     A"        21      21       0       0       0       0
   -------------------------------------------------------
    Total      69      69      12      12      12       0
   -------------------------------------------------------

  ==> Integral Setup <==

  DFHelper Memory: AOs need 0.019 GiB; user supplied 0.366 GiB. Using in-core AOs.

  ==> MemDFJK: Density-Fitted J/K Matrices <==

    J tasked:                   Yes
    K tasked:                   Yes
    wK tasked:                   No
    OpenMP threads:               1
    Memory [MiB]:               375
    Algorithm:                 Core
    Schwarz Cutoff:           1E-12
    Mask sparsity (%):       0.0000
    Fitting Condition:        1E-10

   => Auxiliary Basis Set <=

  Basis Set: (6-31+G* AUX)
    Blend: HEAVY-AUG-CC-PVDZ-JKFIT
    Number of shells: 138
    Number of basis function: 453
    Number of Cartesian functions: 453
    Spherical Harmonics?: false
    Max angular momentum: 3

  Minimum eigenvalue in the overlap matrix is 1.9505761385E-04.
  Using Symmetric Orthogonalization.

  SCF Guess: Superposition of Atomic Densities via on-the-fly atomic UHF.

  ==> Iterations <==

                           Total Energy        Delta E     RMS |[F,P]|

   @DF-RHF iter SAD:  -116.53046990436334   -1.16530e+02   0.00000e+00 
   @DF-RHF iter   1:  -116.95636499029018   -4.25895e-01   7.97519e-03 DIIS
   @DF-RHF iter   2:  -117.03743692784408   -8.10719e-02   3.88503e-03 DIIS
   @DF-RHF iter   3:  -117.05849023314650   -2.10533e-02   5.36300e-04 DIIS
   @DF-RHF iter   4:  -117.05924088704755   -7.50654e-04   6.21621e-05 DIIS
   @DF-RHF iter   5:  -117.05925673298350   -1.58459e-05   1.31351e-05 DIIS
   @DF-RHF iter   6:  -117.05925750968647   -7.76703e-07   2.45343e-06 DIIS
   @DF-RHF iter   7:  -117.05925753845264   -2.87662e-08   2.75389e-07 DIIS
   @DF-RHF iter   8:  -117.05925753875526   -3.02620e-10   3.16266e-08 DIIS
   @DF-RHF iter   9:  -117.05925753875900   -3.73745e-12   6.08242e-09 DIIS
  Energy and wave function converged.


  ==> Post-Iterations <==

    Orbital Energies [Eh]
    ---------------------

    Doubly Occupied:                                                      

       1Ap   -11.230201     2Ap   -11.229250     3Ap   -11.229246  
       4Ap    -1.127182     5Ap    -0.815257     6Ap    -0.815251  
       1App   -0.664526     7Ap    -0.623489     2App   -0.511978  
       3App   -0.511963     8Ap    -0.417288     9Ap    -0.417280  

    Virtual:                                                              

      10Ap     0.086309    11Ap     0.086310    12Ap     0.096018  
       4App    0.114106     5App    0.146698     6App    0.146700  
      13Ap     0.152215    14Ap     0.152215    15Ap     0.172031  
      16Ap     0.175924    17Ap     0.233736    18Ap     0.233739  
       7App    0.323470    19Ap     0.352476    20Ap     0.367520  
      21Ap     0.435539    22Ap     0.435554     8App    0.449210  
       9App    0.449225    23Ap     0.493089    24Ap     0.493094  
      25Ap     0.779321    10App    0.856733    26Ap     0.861871  
      27Ap     0.861888    28Ap     0.988843    29Ap     0.988849  
      30Ap     1.015584    11App    1.028234    12App    1.028293  
      31Ap     1.050525    13App    1.180611    32Ap     1.275787  
      14App    1.289995    15App    1.290015    33Ap     1.348571  
      34Ap     1.348590    35Ap     1.530838    36Ap     1.530845  
      37Ap     1.837264    16App    2.108604    17App    2.108629  
      38Ap     2.198692    39Ap     2.198735    18App    2.240922  
      19App    2.316893    40Ap     2.480779    41Ap     2.616228  
      42Ap     2.616244    20App    2.852870    21App    2.852914  
      43Ap     2.880973    44Ap     2.880976    45Ap     3.145625  
      46Ap     4.536998    47Ap     4.825179    48Ap     4.825183  

    Final Occupation by Irrep:
             Ap   App 
    DOCC [     9,    3 ]

  @DF-RHF Final Energy:  -117.05925753875900

   => Energetics <=

    Nuclear Repulsion Energy =             75.2814648090140253
    One-Electron Energy =                -305.4956246651585161
    Two-Electron Energy =                 113.1549023173854778
    Total Energy =                       -117.0592575387589989

Computation Completed


Properties will be evaluated at   0.000000,   0.000000,   0.000000 [a0]

Properties computed using the SCF density matrix

  Nuclear Dipole Moment: [e a0]
     X:    -0.0002      Y:    -0.0002      Z:     0.0000

  Electronic Dipole Moment: [e a0]
     X:     0.0002      Y:     0.0001      Z:     0.0000

  Dipole Moment: [e a0]
     X:    -0.0000      Y:    -0.0000      Z:     0.0000     Total:     0.0000

  Dipole Moment: [D]
     X:    -0.0001      Y:    -0.0001      Z:     0.0000     Total:     0.0001


*** tstop() called on atlantis at Tue Apr 19 02:18:57 2022
Module time:
	user time   =       0.57 seconds =       0.01 minutes
	system time =       0.01 seconds =       0.00 minutes
	total time  =          1 seconds =       0.02 minutes
Total time:
	user time   =       0.57 seconds =       0.01 minutes
	system time =       0.01 seconds =       0.00 minutes
	total time  =          1 seconds =       0.02 minutes

*** tstart() called on atlantis
*** at Tue Apr 19 02:18:57 2022


  //>>>>>>>>>>>>>>>>>>>>>>>>>>>>>>>>>>>//
  //               DFMP2               //
  //<<<<<<<<<<<<<<<<<<<<<<<<<<<<<<<<<<<//

   => Loading Basis Set <=

    Name: (6-31+G* AUX)
    Role: RIFIT
    Keyword: DF_BASIS_MP2
    atoms 1-3 entry C          line   116 file /home/akrom/software/anaconda3/envs/ffpenv/share/psi4/basis/heavy-aug-cc-pvdz-ri.gbs 
    atoms 4-9 entry H          line    44 file /home/akrom/software/anaconda3/envs/ffpenv/share/psi4/basis/heavy-aug-cc-pvdz-ri.gbs 

	 --------------------------------------------------------
	                          DF-MP2                         
	      2nd-Order Density-Fitted Moller-Plesset Theory     
	              RMP2 Wavefunction,   1 Threads             
	                                                         
	        Rob Parrish, Justin Turney, Andy Simmonett,      
	           Ed Hohenstein, and C. David Sherrill          
	 --------------------------------------------------------

   => Auxiliary Basis Set <=

  Basis Set: (6-31+G* AUX)
    Blend: HEAVY-AUG-CC-PVDZ-RI
    Number of shells: 102
    Number of basis function: 300
    Number of Cartesian functions: 348
    Spherical Harmonics?: true
    Max angular momentum: 3

	 --------------------------------------------------------
	                 NBF =    69, NAUX =   300
	 --------------------------------------------------------
	   CLASS    FOCC     OCC    AOCC    AVIR     VIR    FVIR
	   PAIRS       0      12      12      57      57       0
	 --------------------------------------------------------

	-----------------------------------------------------------
	 ==================> DF-MP2 Energies <==================== 
	-----------------------------------------------------------
	 Reference Energy          =    -117.0592575387589989 [Eh]
	 Singles Energy            =      -0.0000000000000000 [Eh]
	 Same-Spin Energy          =      -0.0973352673191536 [Eh]
	 Opposite-Spin Energy      =      -0.3122784688027548 [Eh]
	 Correlation Energy        =      -0.4096137361219084 [Eh]
	 Total Energy              =    -117.4688712748809110 [Eh]
	-----------------------------------------------------------
	 ================> DF-SCS-MP2 Energies <================== 
	-----------------------------------------------------------
	 SCS Same-Spin Scale       =       0.3333333333333333 [-]
	 SCS Opposite-Spin Scale   =       1.2000000000000000 [-]
	 SCS Same-Spin Energy      =      -0.0324450891063845 [Eh]
	 SCS Opposite-Spin Energy  =      -0.3747341625633057 [Eh]
	 SCS Correlation Energy    =      -0.4071792516696903 [Eh]
	 SCS Total Energy          =    -117.4664367904286877 [Eh]
	-----------------------------------------------------------


*** tstop() called on atlantis at Tue Apr 19 02:18:57 2022
Module time:
	user time   =       0.14 seconds =       0.00 minutes
	system time =       0.01 seconds =       0.00 minutes
	total time  =          0 seconds =       0.00 minutes
Total time:
	user time   =       0.71 seconds =       0.01 minutes
	system time =       0.02 seconds =       0.00 minutes
	total time  =          1 seconds =       0.02 minutes
gradient() will perform analytic gradient computation.
    SCF Algorithm Type (re)set to DF.

*** tstart() called on atlantis
*** at Tue Apr 19 02:18:57 2022

   => Loading Basis Set <=

    Name: 6-31+G*
    Role: ORBITAL
    Keyword: BASIS
    atoms 1-3 entry C          line   119 file /home/akrom/software/anaconda3/envs/ffpenv/share/psi4/basis/6-31pgs.gbs 
    atoms 4-9 entry H          line    46 file /home/akrom/software/anaconda3/envs/ffpenv/share/psi4/basis/6-31pgs.gbs 


         ---------------------------------------------------------
                                   SCF
               by Justin Turney, Rob Parrish, Andy Simmonett
                          and Daniel G. A. Smith
                              RHF Reference
                        1 Threads,    500 MiB Core
         ---------------------------------------------------------

  ==> Geometry <==

    Molecular point group: cs
    Full point group: Cs

    Geometry (in Angstrom), charge = 0, multiplicity = 1:

       Center              X                  Y                   Z               Mass       
    ------------   -----------------  -----------------  -----------------  -----------------
         C            0.321531939855     0.813261460475     0.000000000000    12.000000000000
         C           -0.865048060145    -0.128168539525     0.000000000000    12.000000000000
         C            0.543531939855    -0.685078539525     0.000000000000    12.000000000000
         H            0.537951939855     1.360691460475    -0.920390000000     1.007825032230
         H            0.537951939855     1.360691460475     0.920390000000     1.007825032230
         H           -1.447418060145    -0.214488539525     0.920340000000     1.007825032230
         H           -1.447418060145    -0.214488539525    -0.920340000000     1.007825032230
         H            0.909371939855    -1.146288539525    -0.920370000000     1.007825032230
         H            0.909371939855    -1.146288539525     0.920370000000     1.007825032230

  Running in cs symmetry.

  Rotational constants: A =      0.66472  B =      0.66470  C =      0.41647 [cm^-1]
  Rotational constants: A =  19927.70596  B =  19927.20236  C =  12485.44714 [MHz]
  Nuclear repulsion =   75.281464809014025

  Charge       = 0
  Multiplicity = 1
  Electrons    = 24
  Nalpha       = 12
  Nbeta        = 12

  ==> Algorithm <==

  SCF Algorithm Type is DF.
  DIIS enabled.
  MOM disabled.
  Fractional occupation disabled.
  Guess Type is SAD.
  Energy threshold   = 1.00e-10
  Density threshold  = 1.00e-10
  Integral threshold = 0.00e+00

  ==> Primary Basis <==

  Basis Set: 6-31+G*
    Blend: 6-31+G*
    Number of shells: 36
    Number of basis function: 69
    Number of Cartesian functions: 69
    Spherical Harmonics?: false
    Max angular momentum: 2

   => Loading Basis Set <=

    Name: (6-31+G* AUX)
    Role: JKFIT
    Keyword: DF_BASIS_SCF
    atoms 1-3 entry C          line   194 file /home/akrom/software/anaconda3/envs/ffpenv/share/psi4/basis/heavy-aug-cc-pvdz-jkfit.gbs 
    atoms 4-9 entry H          line   116 file /home/akrom/software/anaconda3/envs/ffpenv/share/psi4/basis/heavy-aug-cc-pvdz-jkfit.gbs 

  ==> Pre-Iterations <==

   -------------------------------------------------------
    Irrep   Nso     Nmo     Nalpha   Nbeta   Ndocc  Nsocc
   -------------------------------------------------------
     A'        48      48       0       0       0       0
     A"        21      21       0       0       0       0
   -------------------------------------------------------
    Total      69      69      12      12      12       0
   -------------------------------------------------------

  ==> Integral Setup <==

  DFHelper Memory: AOs need 0.019 GiB; user supplied 0.366 GiB. Using in-core AOs.

  ==> MemDFJK: Density-Fitted J/K Matrices <==

    J tasked:                   Yes
    K tasked:                   Yes
    wK tasked:                   No
    OpenMP threads:               1
    Memory [MiB]:               375
    Algorithm:                 Core
    Schwarz Cutoff:           1E-12
    Mask sparsity (%):       0.0000
    Fitting Condition:        1E-10

   => Auxiliary Basis Set <=

  Basis Set: (6-31+G* AUX)
    Blend: HEAVY-AUG-CC-PVDZ-JKFIT
    Number of shells: 138
    Number of basis function: 453
    Number of Cartesian functions: 453
    Spherical Harmonics?: false
    Max angular momentum: 3

  Minimum eigenvalue in the overlap matrix is 1.9505761385E-04.
  Using Symmetric Orthogonalization.

  SCF Guess: Superposition of Atomic Densities via on-the-fly atomic UHF.

  ==> Iterations <==

                           Total Energy        Delta E     RMS |[F,P]|

   @DF-RHF iter SAD:  -116.53046990454432   -1.16530e+02   0.00000e+00 
   @DF-RHF iter   1:  -116.95636499045865   -4.25895e-01   7.97519e-03 DIIS
   @DF-RHF iter   2:  -117.03743692800785   -8.10719e-02   3.88503e-03 DIIS
   @DF-RHF iter   3:  -117.05849023330838   -2.10533e-02   5.36300e-04 DIIS
   @DF-RHF iter   4:  -117.05924088720953   -7.50654e-04   6.21621e-05 DIIS
   @DF-RHF iter   5:  -117.05925673314513   -1.58459e-05   1.31351e-05 DIIS
   @DF-RHF iter   6:  -117.05925750984842   -7.76703e-07   2.45343e-06 DIIS
   @DF-RHF iter   7:  -117.05925753861435   -2.87659e-08   2.75389e-07 DIIS
   @DF-RHF iter   8:  -117.05925753891717   -3.02819e-10   3.16266e-08 DIIS
   @DF-RHF iter   9:  -117.05925753892073   -3.56692e-12   6.08242e-09 DIIS
   @DF-RHF iter  10:  -117.05925753892079   -5.68434e-14   1.15860e-09 DIIS
   @DF-RHF iter  11:  -117.05925753892069    9.94760e-14   3.87992e-10 DIIS
   @DF-RHF iter  12:  -117.05925753892082   -1.27898e-13   2.81711e-11 DIIS
  Energy and wave function converged.


  ==> Post-Iterations <==

    Orbital Energies [Eh]
    ---------------------

    Doubly Occupied:                                                      

       1Ap   -11.230201     2Ap   -11.229250     3Ap   -11.229246  
       4Ap    -1.127182     5Ap    -0.815257     6Ap    -0.815251  
       1App   -0.664526     7Ap    -0.623489     2App   -0.511978  
       3App   -0.511963     8Ap    -0.417288     9Ap    -0.417280  

    Virtual:                                                              

      10Ap     0.086309    11Ap     0.086310    12Ap     0.096018  
       4App    0.114106     5App    0.146698     6App    0.146700  
      13Ap     0.152215    14Ap     0.152215    15Ap     0.172031  
      16Ap     0.175924    17Ap     0.233736    18Ap     0.233739  
       7App    0.323471    19Ap     0.352476    20Ap     0.367520  
      21Ap     0.435539    22Ap     0.435554     8App    0.449210  
       9App    0.449225    23Ap     0.493089    24Ap     0.493094  
      25Ap     0.779321    10App    0.856733    26Ap     0.861871  
      27Ap     0.861888    28Ap     0.988843    29Ap     0.988849  
      30Ap     1.015584    11App    1.028234    12App    1.028293  
      31Ap     1.050525    13App    1.180611    32Ap     1.275787  
      14App    1.289995    15App    1.290015    33Ap     1.348571  
      34Ap     1.348590    35Ap     1.530838    36Ap     1.530845  
      37Ap     1.837264    16App    2.108604    17App    2.108629  
      38Ap     2.198692    39Ap     2.198735    18App    2.240922  
      19App    2.316893    40Ap     2.480779    41Ap     2.616228  
      42Ap     2.616244    20App    2.852870    21App    2.852914  
      43Ap     2.880973    44Ap     2.880976    45Ap     3.145625  
      46Ap     4.536998    47Ap     4.825179    48Ap     4.825183  

    Final Occupation by Irrep:
             Ap   App 
    DOCC [     9,    3 ]

  @DF-RHF Final Energy:  -117.05925753892082

   => Energetics <=

    Nuclear Repulsion Energy =             75.2814648090140253
    One-Electron Energy =                -305.4956251201762143
    Two-Electron Energy =                 113.1549027722413570
    Total Energy =                       -117.0592575389208179

Computation Completed


Properties will be evaluated at   0.000000,   0.000000,   0.000000 [a0]

Properties computed using the SCF density matrix

  Nuclear Dipole Moment: [e a0]
     X:    -0.0002      Y:    -0.0002      Z:     0.0000

  Electronic Dipole Moment: [e a0]
     X:     0.0002      Y:     0.0001      Z:     0.0000

  Dipole Moment: [e a0]
     X:    -0.0000      Y:    -0.0000      Z:     0.0000     Total:     0.0000

  Dipole Moment: [D]
     X:    -0.0001      Y:    -0.0001      Z:     0.0000     Total:     0.0001


*** tstop() called on atlantis at Tue Apr 19 02:18:58 2022
Module time:
	user time   =       0.58 seconds =       0.01 minutes
	system time =       0.01 seconds =       0.00 minutes
	total time  =          1 seconds =       0.02 minutes
Total time:
	user time   =       1.29 seconds =       0.02 minutes
	system time =       0.03 seconds =       0.00 minutes
	total time  =          2 seconds =       0.03 minutes

*** tstart() called on atlantis
*** at Tue Apr 19 02:18:58 2022


  //>>>>>>>>>>>>>>>>>>>>>>>>>>>>>>>>>>>//
  //               DFMP2               //
  //<<<<<<<<<<<<<<<<<<<<<<<<<<<<<<<<<<<//

   => Loading Basis Set <=

    Name: (6-31+G* AUX)
    Role: RIFIT
    Keyword: DF_BASIS_MP2
    atoms 1-3 entry C          line   116 file /home/akrom/software/anaconda3/envs/ffpenv/share/psi4/basis/heavy-aug-cc-pvdz-ri.gbs 
    atoms 4-9 entry H          line    44 file /home/akrom/software/anaconda3/envs/ffpenv/share/psi4/basis/heavy-aug-cc-pvdz-ri.gbs 

	 --------------------------------------------------------
	                          DF-MP2                         
	      2nd-Order Density-Fitted Moller-Plesset Theory     
	              RMP2 Wavefunction,   1 Threads             
	                                                         
	        Rob Parrish, Justin Turney, Andy Simmonett,      
	           Ed Hohenstein, and C. David Sherrill          
	 --------------------------------------------------------

   => Auxiliary Basis Set <=

  Basis Set: (6-31+G* AUX)
    Blend: HEAVY-AUG-CC-PVDZ-RI
    Number of shells: 102
    Number of basis function: 300
    Number of Cartesian functions: 348
    Spherical Harmonics?: true
    Max angular momentum: 3

	 --------------------------------------------------------
	                 NBF =    69, NAUX =   300
	 --------------------------------------------------------
	   CLASS    FOCC     OCC    AOCC    AVIR     VIR    FVIR
	   PAIRS       0      12      12      57      57       0
	 --------------------------------------------------------

  DFHelper Memory: AOs need 0.019 GiB; user supplied 0.366 GiB. Using in-core AOs.


         ------------------------------------------------------------
                                     CPHF                           
                                  Rob Parrish                       
         ------------------------------------------------------------

  ==> Geometry <==

    Molecular point group: cs
    Full point group: Cs

    Geometry (in Angstrom), charge = 0, multiplicity = 1:

       Center              X                  Y                   Z               Mass       
    ------------   -----------------  -----------------  -----------------  -----------------
         C            0.321531939855     0.813261460475     0.000000000000    12.000000000000
         C           -0.865048060145    -0.128168539525     0.000000000000    12.000000000000
         C            0.543531939855    -0.685078539525     0.000000000000    12.000000000000
         H            0.537951939855     1.360691460475    -0.920390000000     1.007825032230
         H            0.537951939855     1.360691460475     0.920390000000     1.007825032230
         H           -1.447418060145    -0.214488539525     0.920340000000     1.007825032230
         H           -1.447418060145    -0.214488539525    -0.920340000000     1.007825032230
         H            0.909371939855    -1.146288539525    -0.920370000000     1.007825032230
         H            0.909371939855    -1.146288539525     0.920370000000     1.007825032230

  Nuclear repulsion =   75.281464809014025
  Reference energy  = -117.059257538920818

  ==> Basis Set <==

  Basis Set: 6-31+G*
    Blend: 6-31+G*
    Number of shells: 36
    Number of basis function: 69
    Number of Cartesian functions: 69
    Spherical Harmonics?: false
    Max angular momentum: 2

  ==> CGRSolver (by Rob Parrish) <==

   Number of roots    =         1
   Preconditioning    =    JACOBI
   Convergence cutoff =     1E-06
   Maximum iterations =       100

  ==> CPHFRHamiltonian (by Rob Parrish) <== 

  ==> MemDFJK: Density-Fitted J/K Matrices <==

    J tasked:                   Yes
    K tasked:                   Yes
    wK tasked:                   No
    OpenMP threads:               1
    Memory [MiB]:               375
    Algorithm:                 Core
    Schwarz Cutoff:           1E-12
    Mask sparsity (%):       0.0000
    Fitting Condition:        1E-10

   => Auxiliary Basis Set <=

  Basis Set: (6-31+G* AUX)
    Blend: HEAVY-AUG-CC-PVDZ-JKFIT
    Number of shells: 138
    Number of basis function: 453
    Number of Cartesian functions: 453
    Spherical Harmonics?: false
    Max angular momentum: 3

  ==> CPHF Iterations <==

  => Iterations <=

             Iter  Converged  Remaining    Residual
  CGR           1          0          1   8.577E-02
  CGR           2          0          1   1.190E-02
  CGR           3          0          1   2.501E-03
  CGR           4          0          1   3.818E-04
  CGR           5          0          1   4.407E-05
  CGR           6          0          1   5.857E-06
  CGR           7          1          0   5.319E-07

    CGRSolver converged.

  ==> DFCorrGrad: Density-Fitted Correlated Gradients <==

    OpenMP threads:              1
    Integrals threads:           1
    Memory [GiB]:            0.366
    Schwarz Cutoff:          0E+00
    Fitting Condition:       1E-10

   => Auxiliary Basis Set <=

  Basis Set: (6-31+G* AUX)
    Blend: HEAVY-AUG-CC-PVDZ-JKFIT
    Number of shells: 138
    Number of basis function: 453
    Number of Cartesian functions: 453
    Spherical Harmonics?: false
    Max angular momentum: 3

	-----------------------------------------------------------
	 ==================> DF-MP2 Energies <==================== 
	-----------------------------------------------------------
	 Reference Energy          =    -117.0592575389208179 [Eh]
	 Singles Energy            =      -0.0000000000000000 [Eh]
	 Same-Spin Energy          =      -0.0973352671377435 [Eh]
	 Opposite-Spin Energy      =      -0.3122784674164765 [Eh]
	 Correlation Energy        =      -0.4096137345542200 [Eh]
	 Total Energy              =    -117.4688712734750311 [Eh]
	-----------------------------------------------------------
	 ================> DF-SCS-MP2 Energies <================== 
	-----------------------------------------------------------
	 SCS Same-Spin Scale       =       0.3333333333333333 [-]
	 SCS Opposite-Spin Scale   =       1.2000000000000000 [-]
	 SCS Same-Spin Energy      =      -0.0324450890459145 [Eh]
	 SCS Opposite-Spin Energy  =      -0.3747341608997718 [Eh]
	 SCS Correlation Energy    =      -0.4071792499456863 [Eh]
	 SCS Total Energy          =    -117.4664367888665026 [Eh]
	-----------------------------------------------------------


  -Total Gradient:
     Atom            X                  Y                   Z
    ------   -----------------  -----------------  -----------------
       1        0.001353833544     0.003425773623     0.000000000000
       2       -0.003617895591    -0.000532766767     0.000000000000
       3        0.002287122027    -0.002873204718     0.000000000000
       4        0.000965372543     0.002445286606    -0.004813652379
       5        0.000965372543     0.002445286606     0.004813652379
       6       -0.002609430591    -0.000389401487     0.004803808939
       7       -0.002609430591    -0.000389401487    -0.004803808939
       8        0.001632528058    -0.002065786187    -0.004809872631
       9        0.001632528058    -0.002065786187     0.004809872631


*** tstop() called on atlantis at Tue Apr 19 02:18:59 2022
Module time:
	user time   =       1.17 seconds =       0.02 minutes
	system time =       0.01 seconds =       0.00 minutes
	total time  =          1 seconds =       0.02 minutes
Total time:
	user time   =       2.46 seconds =       0.04 minutes
	system time =       0.04 seconds =       0.00 minutes
	total time  =          3 seconds =       0.05 minutes

  Based on options and gradient (rms=2.86E-03), recommend projecting translations and projecting rotations.
hessian() will perform frequency computation by finite difference of analytic gradients.

         ----------------------------------------------------------
                                   FINDIF
                     R. A. King and Jonathon Misiewicz
         ---------------------------------------------------------

  Using finite-differences of gradients to determine vibrational frequencies and 
  normal modes.  Resulting frequencies are only valid at stationary points.
    Generating geometries for use with 3-point formula.
    Displacement size will be 5.00e-03.
    Number of atoms is 9.
    Number of irreps is 2.
    Number of SALCs is 21.
    Translations projected? 1. Rotations projected? 1.
    Index of SALCs per irrep:
     1 :  0  1  2  3  4  5  6  7  8  9  10  11 
     2 :  12  13  14  15  16  17  18  19  20 
    Number of SALCs per irrep:
     Irrep 1: 12
     Irrep 2: 9
    Number of geometries (including reference) is 34.
    Number of displacements per irrep:
      Irrep 1: 24
      Irrep 2: 9

  //>>>>>>>>>>>>>>>>>>>>>>>>>>>>>>>>>>>//
  //    Loading displacement 1 of 34   //
  //<<<<<<<<<<<<<<<<<<<<<<<<<<<<<<<<<<<//
gradient() will perform analytic gradient computation.
    SCF Algorithm Type (re)set to DF.

*** tstart() called on atlantis
*** at Tue Apr 19 02:18:59 2022

   => Loading Basis Set <=

    Name: 6-31+G*
    Role: ORBITAL
    Keyword: BASIS
    atoms 1-3 entry C          line   119 file /home/akrom/software/anaconda3/envs/ffpenv/share/psi4/basis/6-31pgs.gbs 
    atoms 4-9 entry H          line    46 file /home/akrom/software/anaconda3/envs/ffpenv/share/psi4/basis/6-31pgs.gbs 


         ---------------------------------------------------------
                                   SCF
               by Justin Turney, Rob Parrish, Andy Simmonett
                          and Daniel G. A. Smith
                              RHF Reference
                        1 Threads,    500 MiB Core
         ---------------------------------------------------------

  ==> Geometry <==

    Molecular point group: cs
    Full point group: Cs

    Geometry (in Angstrom), charge = 0, multiplicity = 1:

       Center              X                  Y                   Z               Mass       
    ------------   -----------------  -----------------  -----------------  -----------------
         C            0.321531939855     0.813261460475     0.000000000000    12.000000000000
         C           -0.865048060145    -0.128168539525     0.000000000000    12.000000000000
         C            0.543531939855    -0.685078539525     0.000000000000    12.000000000000
         H            0.537951939855     1.360691460475    -0.920390000000     1.007825032230
         H            0.537951939855     1.360691460475     0.920390000000     1.007825032230
         H           -1.447418060145    -0.214488539525     0.920340000000     1.007825032230
         H           -1.447418060145    -0.214488539525    -0.920340000000     1.007825032230
         H            0.909371939855    -1.146288539525    -0.920370000000     1.007825032230
         H            0.909371939855    -1.146288539525     0.920370000000     1.007825032230

  Running in cs symmetry.

  Rotational constants: A =      0.66472  B =      0.66470  C =      0.41647 [cm^-1]
  Rotational constants: A =  19927.70596  B =  19927.20236  C =  12485.44714 [MHz]
  Nuclear repulsion =   75.281464809014025

  Charge       = 0
  Multiplicity = 1
  Electrons    = 24
  Nalpha       = 12
  Nbeta        = 12

  ==> Algorithm <==

  SCF Algorithm Type is DF.
  DIIS enabled.
  MOM disabled.
  Fractional occupation disabled.
  Guess Type is SAD.
  Energy threshold   = 1.00e-10
  Density threshold  = 1.00e-10
  Integral threshold = 0.00e+00

  ==> Primary Basis <==

  Basis Set: 6-31+G*
    Blend: 6-31+G*
    Number of shells: 36
    Number of basis function: 69
    Number of Cartesian functions: 69
    Spherical Harmonics?: false
    Max angular momentum: 2

   => Loading Basis Set <=

    Name: (6-31+G* AUX)
    Role: JKFIT
    Keyword: DF_BASIS_SCF
    atoms 1-3 entry C          line   194 file /home/akrom/software/anaconda3/envs/ffpenv/share/psi4/basis/heavy-aug-cc-pvdz-jkfit.gbs 
    atoms 4-9 entry H          line   116 file /home/akrom/software/anaconda3/envs/ffpenv/share/psi4/basis/heavy-aug-cc-pvdz-jkfit.gbs 

  ==> Pre-Iterations <==

   -------------------------------------------------------
    Irrep   Nso     Nmo     Nalpha   Nbeta   Ndocc  Nsocc
   -------------------------------------------------------
     A'        48      48       0       0       0       0
     A"        21      21       0       0       0       0
   -------------------------------------------------------
    Total      69      69      12      12      12       0
   -------------------------------------------------------

  ==> Integral Setup <==

  DFHelper Memory: AOs need 0.019 GiB; user supplied 0.366 GiB. Using in-core AOs.

  ==> MemDFJK: Density-Fitted J/K Matrices <==

    J tasked:                   Yes
    K tasked:                   Yes
    wK tasked:                   No
    OpenMP threads:               1
    Memory [MiB]:               375
    Algorithm:                 Core
    Schwarz Cutoff:           1E-12
    Mask sparsity (%):       0.0000
    Fitting Condition:        1E-10

   => Auxiliary Basis Set <=

  Basis Set: (6-31+G* AUX)
    Blend: HEAVY-AUG-CC-PVDZ-JKFIT
    Number of shells: 138
    Number of basis function: 453
    Number of Cartesian functions: 453
    Spherical Harmonics?: false
    Max angular momentum: 3

  Minimum eigenvalue in the overlap matrix is 1.9505761385E-04.
  Using Symmetric Orthogonalization.

  SCF Guess: Superposition of Atomic Densities via on-the-fly atomic UHF.

  ==> Iterations <==

                           Total Energy        Delta E     RMS |[F,P]|

   @DF-RHF iter SAD:  -116.53046990454432   -1.16530e+02   0.00000e+00 
   @DF-RHF iter   1:  -116.95636499045865   -4.25895e-01   7.97519e-03 DIIS
   @DF-RHF iter   2:  -117.03743692800785   -8.10719e-02   3.88503e-03 DIIS
   @DF-RHF iter   3:  -117.05849023330838   -2.10533e-02   5.36300e-04 DIIS
   @DF-RHF iter   4:  -117.05924088720953   -7.50654e-04   6.21621e-05 DIIS
   @DF-RHF iter   5:  -117.05925673314513   -1.58459e-05   1.31351e-05 DIIS
   @DF-RHF iter   6:  -117.05925750984842   -7.76703e-07   2.45343e-06 DIIS
   @DF-RHF iter   7:  -117.05925753861435   -2.87659e-08   2.75389e-07 DIIS
   @DF-RHF iter   8:  -117.05925753891717   -3.02819e-10   3.16266e-08 DIIS
   @DF-RHF iter   9:  -117.05925753892073   -3.56692e-12   6.08242e-09 DIIS
   @DF-RHF iter  10:  -117.05925753892079   -5.68434e-14   1.15860e-09 DIIS
   @DF-RHF iter  11:  -117.05925753892069    9.94760e-14   3.87992e-10 DIIS
   @DF-RHF iter  12:  -117.05925753892082   -1.27898e-13   2.81711e-11 DIIS
  Energy and wave function converged.


  ==> Post-Iterations <==

    Orbital Energies [Eh]
    ---------------------

    Doubly Occupied:                                                      

       1Ap   -11.230201     2Ap   -11.229250     3Ap   -11.229246  
       4Ap    -1.127182     5Ap    -0.815257     6Ap    -0.815251  
       1App   -0.664526     7Ap    -0.623489     2App   -0.511978  
       3App   -0.511963     8Ap    -0.417288     9Ap    -0.417280  

    Virtual:                                                              

      10Ap     0.086309    11Ap     0.086310    12Ap     0.096018  
       4App    0.114106     5App    0.146698     6App    0.146700  
      13Ap     0.152215    14Ap     0.152215    15Ap     0.172031  
      16Ap     0.175924    17Ap     0.233736    18Ap     0.233739  
       7App    0.323471    19Ap     0.352476    20Ap     0.367520  
      21Ap     0.435539    22Ap     0.435554     8App    0.449210  
       9App    0.449225    23Ap     0.493089    24Ap     0.493094  
      25Ap     0.779321    10App    0.856733    26Ap     0.861871  
      27Ap     0.861888    28Ap     0.988843    29Ap     0.988849  
      30Ap     1.015584    11App    1.028234    12App    1.028293  
      31Ap     1.050525    13App    1.180611    32Ap     1.275787  
      14App    1.289995    15App    1.290015    33Ap     1.348571  
      34Ap     1.348590    35Ap     1.530838    36Ap     1.530845  
      37Ap     1.837264    16App    2.108604    17App    2.108629  
      38Ap     2.198692    39Ap     2.198735    18App    2.240922  
      19App    2.316893    40Ap     2.480779    41Ap     2.616228  
      42Ap     2.616244    20App    2.852870    21App    2.852914  
      43Ap     2.880973    44Ap     2.880976    45Ap     3.145625  
      46Ap     4.536998    47Ap     4.825179    48Ap     4.825183  

    Final Occupation by Irrep:
             Ap   App 
    DOCC [     9,    3 ]

  @DF-RHF Final Energy:  -117.05925753892082

   => Energetics <=

    Nuclear Repulsion Energy =             75.2814648090140253
    One-Electron Energy =                -305.4956251201762143
    Two-Electron Energy =                 113.1549027722413570
    Total Energy =                       -117.0592575389208179

Computation Completed


Properties will be evaluated at   0.000000,   0.000000,   0.000000 [a0]

Properties computed using the SCF density matrix

  Nuclear Dipole Moment: [e a0]
     X:    -0.0002      Y:    -0.0002      Z:     0.0000

  Electronic Dipole Moment: [e a0]
     X:     0.0002      Y:     0.0001      Z:     0.0000

  Dipole Moment: [e a0]
     X:    -0.0000      Y:    -0.0000      Z:     0.0000     Total:     0.0000

  Dipole Moment: [D]
     X:    -0.0001      Y:    -0.0001      Z:     0.0000     Total:     0.0001


*** tstop() called on atlantis at Tue Apr 19 02:19:00 2022
Module time:
	user time   =       0.56 seconds =       0.01 minutes
	system time =       0.00 seconds =       0.00 minutes
	total time  =          1 seconds =       0.02 minutes
Total time:
	user time   =       3.29 seconds =       0.05 minutes
	system time =       0.05 seconds =       0.00 minutes
	total time  =          4 seconds =       0.07 minutes

*** tstart() called on atlantis
*** at Tue Apr 19 02:19:00 2022


  //>>>>>>>>>>>>>>>>>>>>>>>>>>>>>>>>>>>//
  //               DFMP2               //
  //<<<<<<<<<<<<<<<<<<<<<<<<<<<<<<<<<<<//

   => Loading Basis Set <=

    Name: (6-31+G* AUX)
    Role: RIFIT
    Keyword: DF_BASIS_MP2
    atoms 1-3 entry C          line   116 file /home/akrom/software/anaconda3/envs/ffpenv/share/psi4/basis/heavy-aug-cc-pvdz-ri.gbs 
    atoms 4-9 entry H          line    44 file /home/akrom/software/anaconda3/envs/ffpenv/share/psi4/basis/heavy-aug-cc-pvdz-ri.gbs 

	 --------------------------------------------------------
	                          DF-MP2                         
	      2nd-Order Density-Fitted Moller-Plesset Theory     
	              RMP2 Wavefunction,   1 Threads             
	                                                         
	        Rob Parrish, Justin Turney, Andy Simmonett,      
	           Ed Hohenstein, and C. David Sherrill          
	 --------------------------------------------------------

   => Auxiliary Basis Set <=

  Basis Set: (6-31+G* AUX)
    Blend: HEAVY-AUG-CC-PVDZ-RI
    Number of shells: 102
    Number of basis function: 300
    Number of Cartesian functions: 348
    Spherical Harmonics?: true
    Max angular momentum: 3

	 --------------------------------------------------------
	                 NBF =    69, NAUX =   300
	 --------------------------------------------------------
	   CLASS    FOCC     OCC    AOCC    AVIR     VIR    FVIR
	   PAIRS       0      12      12      57      57       0
	 --------------------------------------------------------

  DFHelper Memory: AOs need 0.019 GiB; user supplied 0.366 GiB. Using in-core AOs.


         ------------------------------------------------------------
                                     CPHF                           
                                  Rob Parrish                       
         ------------------------------------------------------------

  ==> Geometry <==

    Molecular point group: cs
    Full point group: Cs

    Geometry (in Angstrom), charge = 0, multiplicity = 1:

       Center              X                  Y                   Z               Mass       
    ------------   -----------------  -----------------  -----------------  -----------------
         C            0.321531939855     0.813261460475     0.000000000000    12.000000000000
         C           -0.865048060145    -0.128168539525     0.000000000000    12.000000000000
         C            0.543531939855    -0.685078539525     0.000000000000    12.000000000000
         H            0.537951939855     1.360691460475    -0.920390000000     1.007825032230
         H            0.537951939855     1.360691460475     0.920390000000     1.007825032230
         H           -1.447418060145    -0.214488539525     0.920340000000     1.007825032230
         H           -1.447418060145    -0.214488539525    -0.920340000000     1.007825032230
         H            0.909371939855    -1.146288539525    -0.920370000000     1.007825032230
         H            0.909371939855    -1.146288539525     0.920370000000     1.007825032230

  Nuclear repulsion =   75.281464809014025
  Reference energy  = -117.059257538920818

  ==> Basis Set <==

  Basis Set: 6-31+G*
    Blend: 6-31+G*
    Number of shells: 36
    Number of basis function: 69
    Number of Cartesian functions: 69
    Spherical Harmonics?: false
    Max angular momentum: 2

  ==> CGRSolver (by Rob Parrish) <==

   Number of roots    =         1
   Preconditioning    =    JACOBI
   Convergence cutoff =     1E-06
   Maximum iterations =       100

  ==> CPHFRHamiltonian (by Rob Parrish) <== 

  ==> MemDFJK: Density-Fitted J/K Matrices <==

    J tasked:                   Yes
    K tasked:                   Yes
    wK tasked:                   No
    OpenMP threads:               1
    Memory [MiB]:               375
    Algorithm:                 Core
    Schwarz Cutoff:           1E-12
    Mask sparsity (%):       0.0000
    Fitting Condition:        1E-10

   => Auxiliary Basis Set <=

  Basis Set: (6-31+G* AUX)
    Blend: HEAVY-AUG-CC-PVDZ-JKFIT
    Number of shells: 138
    Number of basis function: 453
    Number of Cartesian functions: 453
    Spherical Harmonics?: false
    Max angular momentum: 3

  ==> CPHF Iterations <==

  => Iterations <=

             Iter  Converged  Remaining    Residual
  CGR           1          0          1   8.577E-02
  CGR           2          0          1   1.190E-02
  CGR           3          0          1   2.501E-03
  CGR           4          0          1   3.818E-04
  CGR           5          0          1   4.407E-05
  CGR           6          0          1   5.857E-06
  CGR           7          1          0   5.319E-07

    CGRSolver converged.

  ==> DFCorrGrad: Density-Fitted Correlated Gradients <==

    OpenMP threads:              1
    Integrals threads:           1
    Memory [GiB]:            0.366
    Schwarz Cutoff:          0E+00
    Fitting Condition:       1E-10

   => Auxiliary Basis Set <=

  Basis Set: (6-31+G* AUX)
    Blend: HEAVY-AUG-CC-PVDZ-JKFIT
    Number of shells: 138
    Number of basis function: 453
    Number of Cartesian functions: 453
    Spherical Harmonics?: false
    Max angular momentum: 3

	-----------------------------------------------------------
	 ==================> DF-MP2 Energies <==================== 
	-----------------------------------------------------------
	 Reference Energy          =    -117.0592575389208179 [Eh]
	 Singles Energy            =      -0.0000000000000000 [Eh]
	 Same-Spin Energy          =      -0.0973352671377435 [Eh]
	 Opposite-Spin Energy      =      -0.3122784674164765 [Eh]
	 Correlation Energy        =      -0.4096137345542200 [Eh]
	 Total Energy              =    -117.4688712734750311 [Eh]
	-----------------------------------------------------------
	 ================> DF-SCS-MP2 Energies <================== 
	-----------------------------------------------------------
	 SCS Same-Spin Scale       =       0.3333333333333333 [-]
	 SCS Opposite-Spin Scale   =       1.2000000000000000 [-]
	 SCS Same-Spin Energy      =      -0.0324450890459145 [Eh]
	 SCS Opposite-Spin Energy  =      -0.3747341608997718 [Eh]
	 SCS Correlation Energy    =      -0.4071792499456863 [Eh]
	 SCS Total Energy          =    -117.4664367888665026 [Eh]
	-----------------------------------------------------------


  -Total Gradient:
     Atom            X                  Y                   Z
    ------   -----------------  -----------------  -----------------
       1        0.001353833544     0.003425773623     0.000000000000
       2       -0.003617895591    -0.000532766767     0.000000000000
       3        0.002287122027    -0.002873204718     0.000000000000
       4        0.000965372543     0.002445286606    -0.004813652379
       5        0.000965372543     0.002445286606     0.004813652379
       6       -0.002609430591    -0.000389401487     0.004803808939
       7       -0.002609430591    -0.000389401487    -0.004803808939
       8        0.001632528058    -0.002065786187    -0.004809872631
       9        0.001632528058    -0.002065786187     0.004809872631


*** tstop() called on atlantis at Tue Apr 19 02:19:01 2022
Module time:
	user time   =       1.19 seconds =       0.02 minutes
	system time =       0.02 seconds =       0.00 minutes
	total time  =          1 seconds =       0.02 minutes
Total time:
	user time   =       4.48 seconds =       0.07 minutes
	system time =       0.07 seconds =       0.00 minutes
	total time  =          5 seconds =       0.08 minutes

  //>>>>>>>>>>>>>>>>>>>>>>>>>>>>>>>>>>>//
  //    Loading displacement 2 of 34   //
  //<<<<<<<<<<<<<<<<<<<<<<<<<<<<<<<<<<<//
gradient() will perform analytic gradient computation.
    SCF Algorithm Type (re)set to DF.

*** tstart() called on atlantis
*** at Tue Apr 19 02:19:01 2022

   => Loading Basis Set <=

    Name: 6-31+G*
    Role: ORBITAL
    Keyword: BASIS
    atoms 1-3 entry C          line   119 file /home/akrom/software/anaconda3/envs/ffpenv/share/psi4/basis/6-31pgs.gbs 
    atoms 4-9 entry H          line    46 file /home/akrom/software/anaconda3/envs/ffpenv/share/psi4/basis/6-31pgs.gbs 


         ---------------------------------------------------------
                                   SCF
               by Justin Turney, Rob Parrish, Andy Simmonett
                          and Daniel G. A. Smith
                              RHF Reference
                        1 Threads,    500 MiB Core
         ---------------------------------------------------------

  ==> Geometry <==

    Molecular point group: cs
    Full point group: Cs

    Geometry (in Angstrom), charge = 0, multiplicity = 1:

       Center              X                  Y                   Z               Mass       
    ------------   -----------------  -----------------  -----------------  -----------------
         C            0.320981935461     0.813179232929     0.000000000000    12.000000000000
         C           -0.864778117207    -0.127947314912     0.000000000000    12.000000000000
         C            0.543659460418    -0.685217540638     0.000000000000    12.000000000000
         H            0.538602639069     1.360553886373    -0.920390000000     1.007825032230
         H            0.538602639069     1.360553886373     0.920390000000     1.007825032230
         H           -1.447170192407    -0.214118381478     0.920340000000     1.007825032230
         H           -1.447170192407    -0.214118381478    -0.920340000000     1.007825032230
         H            0.909381512053    -1.146521099385    -0.920370000000     1.007825032230
         H            0.909381512053    -1.146521099385     0.920370000000     1.007825032230

  Running in cs symmetry.

  Rotational constants: A =      0.66511  B =      0.66452  C =      0.41655 [cm^-1]
  Rotational constants: A =  19939.46144  B =  19921.88173  C =  12487.97026 [MHz]
  Nuclear repulsion =   75.286659304380962

  Charge       = 0
  Multiplicity = 1
  Electrons    = 24
  Nalpha       = 12
  Nbeta        = 12

  ==> Algorithm <==

  SCF Algorithm Type is DF.
  DIIS enabled.
  MOM disabled.
  Fractional occupation disabled.
  Guess Type is SAD.
  Energy threshold   = 1.00e-10
  Density threshold  = 1.00e-10
  Integral threshold = 0.00e+00

  ==> Primary Basis <==

  Basis Set: 6-31+G*
    Blend: 6-31+G*
    Number of shells: 36
    Number of basis function: 69
    Number of Cartesian functions: 69
    Spherical Harmonics?: false
    Max angular momentum: 2

   => Loading Basis Set <=

    Name: (6-31+G* AUX)
    Role: JKFIT
    Keyword: DF_BASIS_SCF
    atoms 1-3 entry C          line   194 file /home/akrom/software/anaconda3/envs/ffpenv/share/psi4/basis/heavy-aug-cc-pvdz-jkfit.gbs 
    atoms 4-9 entry H          line   116 file /home/akrom/software/anaconda3/envs/ffpenv/share/psi4/basis/heavy-aug-cc-pvdz-jkfit.gbs 

  ==> Pre-Iterations <==

   -------------------------------------------------------
    Irrep   Nso     Nmo     Nalpha   Nbeta   Ndocc  Nsocc
   -------------------------------------------------------
     A'        48      48       0       0       0       0
     A"        21      21       0       0       0       0
   -------------------------------------------------------
    Total      69      69      12      12      12       0
   -------------------------------------------------------

  ==> Integral Setup <==

  DFHelper Memory: AOs need 0.019 GiB; user supplied 0.366 GiB. Using in-core AOs.

  ==> MemDFJK: Density-Fitted J/K Matrices <==

    J tasked:                   Yes
    K tasked:                   Yes
    wK tasked:                   No
    OpenMP threads:               1
    Memory [MiB]:               375
    Algorithm:                 Core
    Schwarz Cutoff:           1E-12
    Mask sparsity (%):       0.0000
    Fitting Condition:        1E-10

   => Auxiliary Basis Set <=

  Basis Set: (6-31+G* AUX)
    Blend: HEAVY-AUG-CC-PVDZ-JKFIT
    Number of shells: 138
    Number of basis function: 453
    Number of Cartesian functions: 453
    Spherical Harmonics?: false
    Max angular momentum: 3

  Minimum eigenvalue in the overlap matrix is 1.9460384568E-04.
  Using Symmetric Orthogonalization.

  SCF Guess: Superposition of Atomic Densities via on-the-fly atomic UHF.

  ==> Iterations <==

                           Total Energy        Delta E     RMS |[F,P]|

   @DF-RHF iter SAD:  -116.53105103840301   -1.16531e+02   0.00000e+00 
   @DF-RHF iter   1:  -116.95630488913029   -4.25254e-01   7.97794e-03 DIIS
   @DF-RHF iter   2:  -117.03741341719797   -8.11085e-02   3.88744e-03 DIIS
   @DF-RHF iter   3:  -117.05849180919385   -2.10784e-02   5.36373e-04 DIIS
   @DF-RHF iter   4:  -117.05924278946350   -7.50980e-04   6.21848e-05 DIIS
   @DF-RHF iter   5:  -117.05925864801378   -1.58586e-05   1.31365e-05 DIIS
   @DF-RHF iter   6:  -117.05925942490583   -7.76892e-07   2.45456e-06 DIIS
   @DF-RHF iter   7:  -117.05925945365981   -2.87540e-08   2.87467e-07 DIIS
   @DF-RHF iter   8:  -117.05925945396736   -3.07551e-10   7.07874e-08 DIIS
   @DF-RHF iter   9:  -117.05925945397667   -9.30811e-12   1.66017e-08 DIIS
   @DF-RHF iter  10:  -117.05925945397738   -7.10543e-13   2.76572e-09 DIIS
   @DF-RHF iter  11:  -117.05925945397745   -7.10543e-14   3.64498e-10 DIIS
   @DF-RHF iter  12:  -117.05925945397736    8.52651e-14   3.82016e-11 DIIS
  Energy and wave function converged.


  ==> Post-Iterations <==

    Orbital Energies [Eh]
    ---------------------

    Doubly Occupied:                                                      

       1Ap   -11.230189     2Ap   -11.229248     3Ap   -11.229220  
       4Ap    -1.127298     5Ap    -0.815284     6Ap    -0.815180  
       1App   -0.664527     7Ap    -0.623551     2App   -0.511973  
       3App   -0.511842     8Ap    -0.417583     9Ap    -0.417083  

    Virtual:                                                              

      10Ap     0.086308    11Ap     0.086311    12Ap     0.096016  
       4App    0.114101     5App    0.146698     6App    0.146709  
      13Ap     0.152196    14Ap     0.152227    15Ap     0.172034  
      16Ap     0.175932    17Ap     0.233734    18Ap     0.233738  
       7App    0.323412    19Ap     0.352557    20Ap     0.367513  
      21Ap     0.435487    22Ap     0.435688     8App    0.449084  
       9App    0.449325    23Ap     0.493086    24Ap     0.493184  
      25Ap     0.779243    10App    0.856810    26Ap     0.861697  
      27Ap     0.862002    28Ap     0.988805    29Ap     0.989114  
      30Ap     1.015624    11App    1.027993    12App    1.028542  
      31Ap     1.050496    13App    1.180450    32Ap     1.275759  
      14App    1.289767    15App    1.290105    33Ap     1.348530  
      34Ap     1.348605    35Ap     1.530916    36Ap     1.530954  
      37Ap     1.837248    16App    2.108562    17App    2.108637  
      38Ap     2.198817    39Ap     2.199052    18App    2.240776  
      19App    2.317088    40Ap     2.480880    41Ap     2.615873  
      42Ap     2.616826    20App    2.852559    21App    2.853574  
      43Ap     2.880937    44Ap     2.881099    45Ap     3.145870  
      46Ap     4.537129    47Ap     4.825066    48Ap     4.825367  

    Final Occupation by Irrep:
             Ap   App 
    DOCC [     9,    3 ]

  @DF-RHF Final Energy:  -117.05925945397736

   => Energetics <=

    Nuclear Repulsion Energy =             75.2866593043809615
    One-Electron Energy =                -305.5058805401164364
    Two-Electron Energy =                 113.1599617817580992
    Total Energy =                       -117.0592594539773614

Computation Completed


Properties will be evaluated at   0.000000,   0.000000,   0.000000 [a0]

Properties computed using the SCF density matrix

  Nuclear Dipole Moment: [e a0]
     X:     0.0015      Y:    -0.0002      Z:     0.0000

  Electronic Dipole Moment: [e a0]
     X:    -0.0018      Y:     0.0004      Z:     0.0000

  Dipole Moment: [e a0]
     X:    -0.0003      Y:     0.0002      Z:     0.0000     Total:     0.0004

  Dipole Moment: [D]
     X:    -0.0008      Y:     0.0006      Z:     0.0000     Total:     0.0010


*** tstop() called on atlantis at Tue Apr 19 02:19:01 2022
Module time:
	user time   =       0.56 seconds =       0.01 minutes
	system time =       0.00 seconds =       0.00 minutes
	total time  =          0 seconds =       0.00 minutes
Total time:
	user time   =       5.04 seconds =       0.08 minutes
	system time =       0.07 seconds =       0.00 minutes
	total time  =          5 seconds =       0.08 minutes

*** tstart() called on atlantis
*** at Tue Apr 19 02:19:01 2022


  //>>>>>>>>>>>>>>>>>>>>>>>>>>>>>>>>>>>//
  //               DFMP2               //
  //<<<<<<<<<<<<<<<<<<<<<<<<<<<<<<<<<<<//

   => Loading Basis Set <=

    Name: (6-31+G* AUX)
    Role: RIFIT
    Keyword: DF_BASIS_MP2
    atoms 1-3 entry C          line   116 file /home/akrom/software/anaconda3/envs/ffpenv/share/psi4/basis/heavy-aug-cc-pvdz-ri.gbs 
    atoms 4-9 entry H          line    44 file /home/akrom/software/anaconda3/envs/ffpenv/share/psi4/basis/heavy-aug-cc-pvdz-ri.gbs 

	 --------------------------------------------------------
	                          DF-MP2                         
	      2nd-Order Density-Fitted Moller-Plesset Theory     
	              RMP2 Wavefunction,   1 Threads             
	                                                         
	        Rob Parrish, Justin Turney, Andy Simmonett,      
	           Ed Hohenstein, and C. David Sherrill          
	 --------------------------------------------------------

   => Auxiliary Basis Set <=

  Basis Set: (6-31+G* AUX)
    Blend: HEAVY-AUG-CC-PVDZ-RI
    Number of shells: 102
    Number of basis function: 300
    Number of Cartesian functions: 348
    Spherical Harmonics?: true
    Max angular momentum: 3

	 --------------------------------------------------------
	                 NBF =    69, NAUX =   300
	 --------------------------------------------------------
	   CLASS    FOCC     OCC    AOCC    AVIR     VIR    FVIR
	   PAIRS       0      12      12      57      57       0
	 --------------------------------------------------------

  DFHelper Memory: AOs need 0.019 GiB; user supplied 0.366 GiB. Using in-core AOs.


         ------------------------------------------------------------
                                     CPHF                           
                                  Rob Parrish                       
         ------------------------------------------------------------

  ==> Geometry <==

    Molecular point group: cs
    Full point group: Cs

    Geometry (in Angstrom), charge = 0, multiplicity = 1:

       Center              X                  Y                   Z               Mass       
    ------------   -----------------  -----------------  -----------------  -----------------
         C            0.320981935461     0.813179232929     0.000000000000    12.000000000000
         C           -0.864778117207    -0.127947314912     0.000000000000    12.000000000000
         C            0.543659460418    -0.685217540638     0.000000000000    12.000000000000
         H            0.538602639069     1.360553886373    -0.920390000000     1.007825032230
         H            0.538602639069     1.360553886373     0.920390000000     1.007825032230
         H           -1.447170192407    -0.214118381478     0.920340000000     1.007825032230
         H           -1.447170192407    -0.214118381478    -0.920340000000     1.007825032230
         H            0.909381512053    -1.146521099385    -0.920370000000     1.007825032230
         H            0.909381512053    -1.146521099385     0.920370000000     1.007825032230

  Nuclear repulsion =   75.286659304380962
  Reference energy  = -117.059259453977361

  ==> Basis Set <==

  Basis Set: 6-31+G*
    Blend: 6-31+G*
    Number of shells: 36
    Number of basis function: 69
    Number of Cartesian functions: 69
    Spherical Harmonics?: false
    Max angular momentum: 2

  ==> CGRSolver (by Rob Parrish) <==

   Number of roots    =         1
   Preconditioning    =    JACOBI
   Convergence cutoff =     1E-06
   Maximum iterations =       100

  ==> CPHFRHamiltonian (by Rob Parrish) <== 

  ==> MemDFJK: Density-Fitted J/K Matrices <==

    J tasked:                   Yes
    K tasked:                   Yes
    wK tasked:                   No
    OpenMP threads:               1
    Memory [MiB]:               375
    Algorithm:                 Core
    Schwarz Cutoff:           1E-12
    Mask sparsity (%):       0.0000
    Fitting Condition:        1E-10

   => Auxiliary Basis Set <=

  Basis Set: (6-31+G* AUX)
    Blend: HEAVY-AUG-CC-PVDZ-JKFIT
    Number of shells: 138
    Number of basis function: 453
    Number of Cartesian functions: 453
    Spherical Harmonics?: false
    Max angular momentum: 3

  ==> CPHF Iterations <==

  => Iterations <=

             Iter  Converged  Remaining    Residual
  CGR           1          0          1   8.579E-02
  CGR           2          0          1   1.190E-02
  CGR           3          0          1   2.501E-03
  CGR           4          0          1   3.818E-04
  CGR           5          0          1   4.433E-05
  CGR           6          0          1   6.641E-06
  CGR           7          0          1   2.151E-06
  CGR           8          1          0   2.824E-07

    CGRSolver converged.

  ==> DFCorrGrad: Density-Fitted Correlated Gradients <==

    OpenMP threads:              1
    Integrals threads:           1
    Memory [GiB]:            0.366
    Schwarz Cutoff:          0E+00
    Fitting Condition:       1E-10

   => Auxiliary Basis Set <=

  Basis Set: (6-31+G* AUX)
    Blend: HEAVY-AUG-CC-PVDZ-JKFIT
    Number of shells: 138
    Number of basis function: 453
    Number of Cartesian functions: 453
    Spherical Harmonics?: false
    Max angular momentum: 3

	-----------------------------------------------------------
	 ==================> DF-MP2 Energies <==================== 
	-----------------------------------------------------------
	 Reference Energy          =    -117.0592594539773614 [Eh]
	 Singles Energy            =      -0.0000000000000000 [Eh]
	 Same-Spin Energy          =      -0.0973373541421868 [Eh]
	 Opposite-Spin Energy      =      -0.3122766088216798 [Eh]
	 Correlation Energy        =      -0.4096139629638666 [Eh]
	 Total Energy              =    -117.4688734169412214 [Eh]
	-----------------------------------------------------------
	 ================> DF-SCS-MP2 Energies <================== 
	-----------------------------------------------------------
	 SCS Same-Spin Scale       =       0.3333333333333333 [-]
	 SCS Opposite-Spin Scale   =       1.2000000000000000 [-]
	 SCS Same-Spin Energy      =      -0.0324457847140623 [Eh]
	 SCS Opposite-Spin Energy  =      -0.3747319305860157 [Eh]
	 SCS Correlation Energy    =      -0.4071777153000780 [Eh]
	 SCS Total Energy          =    -117.4664371692774409 [Eh]
	-----------------------------------------------------------


  -Total Gradient:
     Atom            X                  Y                   Z
    ------   -----------------  -----------------  -----------------
       1        0.000785783614     0.003146056995     0.000000000000
       2       -0.003331501316    -0.000382912947     0.000000000000
       3        0.002323927447    -0.002878618638     0.000000000000
       4        0.001067628311     0.002508466168    -0.004907976156
       5        0.001067628311     0.002508466168     0.004907976156
       6       -0.002590888039    -0.000364832298     0.004810486916
       7       -0.002590888039    -0.000364832298    -0.004810486916
       8        0.001634154856    -0.002085896574    -0.004807080967
       9        0.001634154856    -0.002085896574     0.004807080967


*** tstop() called on atlantis at Tue Apr 19 02:19:03 2022
Module time:
	user time   =       1.18 seconds =       0.02 minutes
	system time =       0.01 seconds =       0.00 minutes
	total time  =          2 seconds =       0.03 minutes
Total time:
	user time   =       6.22 seconds =       0.10 minutes
	system time =       0.08 seconds =       0.00 minutes
	total time  =          7 seconds =       0.12 minutes

  //>>>>>>>>>>>>>>>>>>>>>>>>>>>>>>>>>>>//
  //    Loading displacement 3 of 34   //
  //<<<<<<<<<<<<<<<<<<<<<<<<<<<<<<<<<<<//
gradient() will perform analytic gradient computation.
    SCF Algorithm Type (re)set to DF.

*** tstart() called on atlantis
*** at Tue Apr 19 02:19:03 2022

   => Loading Basis Set <=

    Name: 6-31+G*
    Role: ORBITAL
    Keyword: BASIS
    atoms 1-3 entry C          line   119 file /home/akrom/software/anaconda3/envs/ffpenv/share/psi4/basis/6-31pgs.gbs 
    atoms 4-9 entry H          line    46 file /home/akrom/software/anaconda3/envs/ffpenv/share/psi4/basis/6-31pgs.gbs 


         ---------------------------------------------------------
                                   SCF
               by Justin Turney, Rob Parrish, Andy Simmonett
                          and Daniel G. A. Smith
                              RHF Reference
                        1 Threads,    500 MiB Core
         ---------------------------------------------------------

  ==> Geometry <==

    Molecular point group: cs
    Full point group: Cs

    Geometry (in Angstrom), charge = 0, multiplicity = 1:

       Center              X                  Y                   Z               Mass       
    ------------   -----------------  -----------------  -----------------  -----------------
         C            0.322081944250     0.813343688021     0.000000000000    12.000000000000
         C           -0.865318003082    -0.128389764139     0.000000000000    12.000000000000
         C            0.543404419293    -0.684939538412     0.000000000000    12.000000000000
         H            0.537301240642     1.360829034576    -0.920390000000     1.007825032230
         H            0.537301240642     1.360829034576     0.920390000000     1.007825032230
         H           -1.447665927882    -0.214858697572     0.920340000000     1.007825032230
         H           -1.447665927882    -0.214858697572    -0.920340000000     1.007825032230
         H            0.909362367658    -1.146055979665    -0.920370000000     1.007825032230
         H            0.909362367658    -1.146055979665     0.920370000000     1.007825032230

  Running in cs symmetry.

  Rotational constants: A =      0.66489  B =      0.66431  C =      0.41639 [cm^-1]
  Rotational constants: A =  19932.94970  B =  19915.53021  C =  12482.92073 [MHz]
  Nuclear repulsion =   75.276267816162189

  Charge       = 0
  Multiplicity = 1
  Electrons    = 24
  Nalpha       = 12
  Nbeta        = 12

  ==> Algorithm <==

  SCF Algorithm Type is DF.
  DIIS enabled.
  MOM disabled.
  Fractional occupation disabled.
  Guess Type is SAD.
  Energy threshold   = 1.00e-10
  Density threshold  = 1.00e-10
  Integral threshold = 0.00e+00

  ==> Primary Basis <==

  Basis Set: 6-31+G*
    Blend: 6-31+G*
    Number of shells: 36
    Number of basis function: 69
    Number of Cartesian functions: 69
    Spherical Harmonics?: false
    Max angular momentum: 2

   => Loading Basis Set <=

    Name: (6-31+G* AUX)
    Role: JKFIT
    Keyword: DF_BASIS_SCF
    atoms 1-3 entry C          line   194 file /home/akrom/software/anaconda3/envs/ffpenv/share/psi4/basis/heavy-aug-cc-pvdz-jkfit.gbs 
    atoms 4-9 entry H          line   116 file /home/akrom/software/anaconda3/envs/ffpenv/share/psi4/basis/heavy-aug-cc-pvdz-jkfit.gbs 

  ==> Pre-Iterations <==

   -------------------------------------------------------
    Irrep   Nso     Nmo     Nalpha   Nbeta   Ndocc  Nsocc
   -------------------------------------------------------
     A'        48      48       0       0       0       0
     A"        21      21       0       0       0       0
   -------------------------------------------------------
    Total      69      69      12      12      12       0
   -------------------------------------------------------

  ==> Integral Setup <==

  DFHelper Memory: AOs need 0.019 GiB; user supplied 0.366 GiB. Using in-core AOs.

  ==> MemDFJK: Density-Fitted J/K Matrices <==

    J tasked:                   Yes
    K tasked:                   Yes
    wK tasked:                   No
    OpenMP threads:               1
    Memory [MiB]:               375
    Algorithm:                 Core
    Schwarz Cutoff:           1E-12
    Mask sparsity (%):       0.0000
    Fitting Condition:        1E-10

   => Auxiliary Basis Set <=

  Basis Set: (6-31+G* AUX)
    Blend: HEAVY-AUG-CC-PVDZ-JKFIT
    Number of shells: 138
    Number of basis function: 453
    Number of Cartesian functions: 453
    Spherical Harmonics?: false
    Max angular momentum: 3

  Minimum eigenvalue in the overlap matrix is 1.9494032464E-04.
  Using Symmetric Orthogonalization.

  SCF Guess: Superposition of Atomic Densities via on-the-fly atomic UHF.

  ==> Iterations <==

                           Total Energy        Delta E     RMS |[F,P]|

   @DF-RHF iter SAD:  -116.52988842721226   -1.16530e+02   0.00000e+00 
   @DF-RHF iter   1:  -116.95642366483582   -4.26535e-01   7.97245e-03 DIIS
   @DF-RHF iter   2:  -117.03745908137228   -8.10354e-02   3.88263e-03 DIIS
   @DF-RHF iter   3:  -117.05848738159634   -2.10283e-02   5.36227e-04 DIIS
   @DF-RHF iter   4:  -117.05923771026295   -7.50329e-04   6.21399e-05 DIIS
   @DF-RHF iter   5:  -117.05925354368603   -1.58334e-05   1.31351e-05 DIIS
   @DF-RHF iter   6:  -117.05925432023881   -7.76553e-07   2.45547e-06 DIIS
   @DF-RHF iter   7:  -117.05925434902659   -2.87878e-08   2.87498e-07 DIIS
   @DF-RHF iter   8:  -117.05925434933451   -3.07921e-10   7.07354e-08 DIIS
   @DF-RHF iter   9:  -117.05925434934358   -9.06653e-12   1.65922e-08 DIIS
   @DF-RHF iter  10:  -117.05925434934423   -6.53699e-13   2.76590e-09 DIIS
   @DF-RHF iter  11:  -117.05925434934430   -7.10543e-14   3.64513e-10 DIIS
   @DF-RHF iter  12:  -117.05925434934416    1.42109e-13   3.81164e-11 DIIS
  Energy and wave function converged.


  ==> Post-Iterations <==

    Orbital Energies [Eh]
    ---------------------

    Doubly Occupied:                                                      

       1Ap   -11.230215     2Ap   -11.229274     3Ap   -11.229250  
       4Ap    -1.127065     5Ap    -0.815331     6Ap    -0.815221  
       1App   -0.664524     7Ap    -0.623426     2App   -0.512107  
       3App   -0.511960     8Ap    -0.417483     9Ap    -0.416985  

    Virtual:                                                              

      10Ap     0.086307    11Ap     0.086312    12Ap     0.096020  
       4App    0.114110     5App    0.146687     6App    0.146702  
      13Ap     0.152203    14Ap     0.152234    15Ap     0.172027  
      16Ap     0.175916    17Ap     0.233735    18Ap     0.233743  
       7App    0.323529    19Ap     0.352393    20Ap     0.367528  
      21Ap     0.435408    22Ap     0.435602     8App    0.449105  
       9App    0.449356    23Ap     0.493000    24Ap     0.493097  
      25Ap     0.779399    10App    0.856656    26Ap     0.861757  
      27Ap     0.862062    28Ap     0.988579    29Ap     0.988884  
      30Ap     1.015544    11App    1.027962    12App    1.028558  
      31Ap     1.050556    13App    1.180771    32Ap     1.275815  
      14App    1.289893    15App    1.290255    33Ap     1.348566  
      34Ap     1.348621    35Ap     1.530724    36Ap     1.530772  
      37Ap     1.837279    16App    2.108589    17App    2.108672  
      38Ap     2.198351    39Ap     2.198635    18App    2.241061  
      19App    2.316707    40Ap     2.480676    41Ap     2.615653  
      42Ap     2.616590    20App    2.852234    21App    2.853201  
      43Ap     2.880848    44Ap     2.881015    45Ap     3.145381  
      46Ap     4.536866    47Ap     4.824999    48Ap     4.825293  

    Final Occupation by Irrep:
             Ap   App 
    DOCC [     9,    3 ]

  @DF-RHF Final Energy:  -117.05925434934416

   => Energetics <=

    Nuclear Repulsion Energy =             75.2762678161621892
    One-Electron Energy =                -305.4853609354268542
    Two-Electron Energy =                 113.1498387699204926
    Total Energy =                       -117.0592543493441582

Computation Completed


Properties will be evaluated at   0.000000,   0.000000,   0.000000 [a0]

Properties computed using the SCF density matrix

  Nuclear Dipole Moment: [e a0]
     X:    -0.0019      Y:    -0.0002      Z:     0.0000

  Electronic Dipole Moment: [e a0]
     X:     0.0021      Y:    -0.0001      Z:     0.0000

  Dipole Moment: [e a0]
     X:     0.0003      Y:    -0.0003      Z:     0.0000     Total:     0.0004

  Dipole Moment: [D]
     X:     0.0007      Y:    -0.0007      Z:     0.0000     Total:     0.0010


*** tstop() called on atlantis at Tue Apr 19 02:19:03 2022
Module time:
	user time   =       0.58 seconds =       0.01 minutes
	system time =       0.00 seconds =       0.00 minutes
	total time  =          0 seconds =       0.00 minutes
Total time:
	user time   =       6.80 seconds =       0.11 minutes
	system time =       0.08 seconds =       0.00 minutes
	total time  =          7 seconds =       0.12 minutes

*** tstart() called on atlantis
*** at Tue Apr 19 02:19:03 2022


  //>>>>>>>>>>>>>>>>>>>>>>>>>>>>>>>>>>>//
  //               DFMP2               //
  //<<<<<<<<<<<<<<<<<<<<<<<<<<<<<<<<<<<//

   => Loading Basis Set <=

    Name: (6-31+G* AUX)
    Role: RIFIT
    Keyword: DF_BASIS_MP2
    atoms 1-3 entry C          line   116 file /home/akrom/software/anaconda3/envs/ffpenv/share/psi4/basis/heavy-aug-cc-pvdz-ri.gbs 
    atoms 4-9 entry H          line    44 file /home/akrom/software/anaconda3/envs/ffpenv/share/psi4/basis/heavy-aug-cc-pvdz-ri.gbs 

	 --------------------------------------------------------
	                          DF-MP2                         
	      2nd-Order Density-Fitted Moller-Plesset Theory     
	              RMP2 Wavefunction,   1 Threads             
	                                                         
	        Rob Parrish, Justin Turney, Andy Simmonett,      
	           Ed Hohenstein, and C. David Sherrill          
	 --------------------------------------------------------

   => Auxiliary Basis Set <=

  Basis Set: (6-31+G* AUX)
    Blend: HEAVY-AUG-CC-PVDZ-RI
    Number of shells: 102
    Number of basis function: 300
    Number of Cartesian functions: 348
    Spherical Harmonics?: true
    Max angular momentum: 3

	 --------------------------------------------------------
	                 NBF =    69, NAUX =   300
	 --------------------------------------------------------
	   CLASS    FOCC     OCC    AOCC    AVIR     VIR    FVIR
	   PAIRS       0      12      12      57      57       0
	 --------------------------------------------------------

  DFHelper Memory: AOs need 0.019 GiB; user supplied 0.366 GiB. Using in-core AOs.


         ------------------------------------------------------------
                                     CPHF                           
                                  Rob Parrish                       
         ------------------------------------------------------------

  ==> Geometry <==

    Molecular point group: cs
    Full point group: Cs

    Geometry (in Angstrom), charge = 0, multiplicity = 1:

       Center              X                  Y                   Z               Mass       
    ------------   -----------------  -----------------  -----------------  -----------------
         C            0.322081944250     0.813343688021     0.000000000000    12.000000000000
         C           -0.865318003082    -0.128389764139     0.000000000000    12.000000000000
         C            0.543404419293    -0.684939538412     0.000000000000    12.000000000000
         H            0.537301240642     1.360829034576    -0.920390000000     1.007825032230
         H            0.537301240642     1.360829034576     0.920390000000     1.007825032230
         H           -1.447665927882    -0.214858697572     0.920340000000     1.007825032230
         H           -1.447665927882    -0.214858697572    -0.920340000000     1.007825032230
         H            0.909362367658    -1.146055979665    -0.920370000000     1.007825032230
         H            0.909362367658    -1.146055979665     0.920370000000     1.007825032230

  Nuclear repulsion =   75.276267816162189
  Reference energy  = -117.059254349344158

  ==> Basis Set <==

  Basis Set: 6-31+G*
    Blend: 6-31+G*
    Number of shells: 36
    Number of basis function: 69
    Number of Cartesian functions: 69
    Spherical Harmonics?: false
    Max angular momentum: 2

  ==> CGRSolver (by Rob Parrish) <==

   Number of roots    =         1
   Preconditioning    =    JACOBI
   Convergence cutoff =     1E-06
   Maximum iterations =       100

  ==> CPHFRHamiltonian (by Rob Parrish) <== 

  ==> MemDFJK: Density-Fitted J/K Matrices <==

    J tasked:                   Yes
    K tasked:                   Yes
    wK tasked:                   No
    OpenMP threads:               1
    Memory [MiB]:               375
    Algorithm:                 Core
    Schwarz Cutoff:           1E-12
    Mask sparsity (%):       0.0000
    Fitting Condition:        1E-10

   => Auxiliary Basis Set <=

  Basis Set: (6-31+G* AUX)
    Blend: HEAVY-AUG-CC-PVDZ-JKFIT
    Number of shells: 138
    Number of basis function: 453
    Number of Cartesian functions: 453
    Spherical Harmonics?: false
    Max angular momentum: 3

  ==> CPHF Iterations <==

  => Iterations <=

             Iter  Converged  Remaining    Residual
  CGR           1          0          1   8.574E-02
  CGR           2          0          1   1.189E-02
  CGR           3          0          1   2.501E-03
  CGR           4          0          1   3.818E-04
  CGR           5          0          1   4.435E-05
  CGR           6          0          1   6.653E-06
  CGR           7          0          1   2.158E-06
  CGR           8          1          0   2.819E-07

    CGRSolver converged.

  ==> DFCorrGrad: Density-Fitted Correlated Gradients <==

    OpenMP threads:              1
    Integrals threads:           1
    Memory [GiB]:            0.366
    Schwarz Cutoff:          0E+00
    Fitting Condition:       1E-10

   => Auxiliary Basis Set <=

  Basis Set: (6-31+G* AUX)
    Blend: HEAVY-AUG-CC-PVDZ-JKFIT
    Number of shells: 138
    Number of basis function: 453
    Number of Cartesian functions: 453
    Spherical Harmonics?: false
    Max angular momentum: 3

	-----------------------------------------------------------
	 ==================> DF-MP2 Energies <==================== 
	-----------------------------------------------------------
	 Reference Energy          =    -117.0592543493441582 [Eh]
	 Singles Energy            =      -0.0000000000000000 [Eh]
	 Same-Spin Energy          =      -0.0973332164935078 [Eh]
	 Opposite-Spin Energy      =      -0.3122804251092725 [Eh]
	 Correlation Energy        =      -0.4096136416027802 [Eh]
	 Total Energy              =    -117.4688679909469329 [Eh]
	-----------------------------------------------------------
	 ================> DF-SCS-MP2 Energies <================== 
	-----------------------------------------------------------
	 SCS Same-Spin Scale       =       0.3333333333333333 [-]
	 SCS Opposite-Spin Scale   =       1.2000000000000000 [-]
	 SCS Same-Spin Energy      =      -0.0324444054978359 [Eh]
	 SCS Opposite-Spin Energy  =      -0.3747365101311269 [Eh]
	 SCS Correlation Energy    =      -0.4071809156289629 [Eh]
	 SCS Total Energy          =    -117.4664352649731143 [Eh]
[...]
	 Opposite-Spin Energy      =      -0.3122785076903433 [Eh]
	 Correlation Energy        =      -0.4096137769275612 [Eh]
	 Total Energy              =    -117.4688686384214975 [Eh]
	-----------------------------------------------------------
	 ================> DF-SCS-MP2 Energies <================== 
	-----------------------------------------------------------
	 SCS Same-Spin Scale       =       0.3333333333333333 [-]
	 SCS Opposite-Spin Scale   =       1.2000000000000000 [-]
	 SCS Same-Spin Energy      =      -0.0324450897457393 [Eh]
	 SCS Opposite-Spin Energy  =      -0.3747342092284119 [Eh]
	 SCS Correlation Energy    =      -0.4071792989741512 [Eh]
	 SCS Total Energy          =    -117.4664341604680970 [Eh]
	-----------------------------------------------------------


  -Total Gradient:
     Atom            X                  Y                   Z
    ------   -----------------  -----------------  -----------------
       1        0.001353800989     0.003425678107     0.000004906414
       2       -0.003618245412    -0.000532923417     0.000457310650
       3        0.002287661473    -0.002875510753    -0.001273976766
       4        0.000963001354     0.002439223735    -0.004815077214
       5        0.000967749364     0.002451419433     0.004812438417
       6       -0.002429035022    -0.000386054157     0.004514660218
       7       -0.002789267535    -0.000392701150    -0.005092506025
       8        0.001258199916    -0.001695911445    -0.004111302090
       9        0.002006134873    -0.002433220353     0.005503546395


*** tstop() called on atlantis at Tue Apr 19 02:20:00 2022
Module time:
	user time   =       1.17 seconds =       0.02 minutes
	system time =       0.02 seconds =       0.00 minutes
	total time  =          1 seconds =       0.02 minutes
Total time:
	user time   =      62.04 seconds =       1.03 minutes
	system time =       0.68 seconds =       0.01 minutes
	total time  =         64 seconds =       1.07 minutes

         ----------------------------------------------------------
                                   FINDIF
                     R. A. King and Jonathon Misiewicz
         ---------------------------------------------------------

  Computing second-derivative from gradients using projected, 
  symmetry-adapted, cartesian coordinates.

  34 gradients passed in, including the reference geometry.
  Generating complete list of displacements from unique ones.

    Operation 2 takes plus displacements of irrep A" to minus ones.

-------------------------------------------------------------


  ==> Harmonic Vibrational Analysis <==

  non-mass-weighted Hessian:       Symmetric? True   Hermitian? True   Lin Dep Dim?  6 (0)
  projection of translations (True) and rotations (True) removed 6 degrees of freedom (6)
  total projector:                 Symmetric? True   Hermitian? True   Lin Dep Dim?  6 (6)
  mass-weighted Hessian:           Symmetric? True   Hermitian? True   Lin Dep Dim?  6 (0)
  pre-proj  low-frequency mode:    0.0000i [cm^-1]
  pre-proj  low-frequency mode:    0.0000i [cm^-1]
  pre-proj  low-frequency mode:    0.0000i [cm^-1]
  pre-proj  low-frequency mode:    0.0000  [cm^-1]
  pre-proj  low-frequency mode:    0.0000  [cm^-1]
  pre-proj  low-frequency mode:    0.0000  [cm^-1]
  pre-proj  all modes:['0.0000i' '0.0000i' '0.0000i' '0.0000' '0.0000' '0.0000' '811.0644'
 '811.0804' '898.9329' '898.9632' '919.5193' '1123.6754' '1123.7019'
 '1133.6732' '1206.8974' '1229.4681' '1256.3881' '1256.3890' '1527.1635'
 '1527.1872' '1576.2753' '3132.4985' '3132.5208' '3140.8359' '3219.0762'
 '3219.0851' '3237.4760']
  projected mass-weighted Hessian: Symmetric? True   Hermitian? True   Lin Dep Dim?  6 (6)
  post-proj low-frequency mode:    0.0000i [cm^-1] (TR)
  post-proj low-frequency mode:    0.0000  [cm^-1] (TR)
  post-proj low-frequency mode:    0.0000  [cm^-1] (TR)
  post-proj low-frequency mode:    0.0000  [cm^-1] (TR)
  post-proj low-frequency mode:    0.0000  [cm^-1] (TR)
  post-proj low-frequency mode:    0.0001  [cm^-1] (TR)
  post-proj  all modes:['0.0000i' '0.0000' '0.0000' '0.0000' '0.0000' '0.0001' '811.0644'
 '811.0804' '898.9329' '898.9632' '919.5193' '1123.6754' '1123.7019'
 '1133.6732' '1206.8974' '1229.4681' '1256.3881' '1256.3890' '1527.1635'
 '1527.1872' '1576.2753' '3132.4985' '3132.5208' '3140.8359' '3219.0762'
 '3219.0851' '3237.4760']

  Vibration                       7                   8                   9           
  Freq [cm^-1]                 811.0644            811.0804            898.9329       
  Irrep                          App                 App                  Ap          
  Reduced mass [u]              1.0210              1.0210              4.2183        
  Force const [mDyne/A]         0.3957              0.3957              2.0083        
  Turning point v=0 [a0]        0.3813              0.3813              0.1782        
  RMS dev v=0 [a0 u^1/2]        0.2724              0.2724              0.2588        
  Char temp [K]               1166.9411           1166.9642           1293.3643       
  ----------------------------------------------------------------------------------
      1   C               -0.00  0.00  0.03    0.00 -0.00 -0.01   -0.15  0.27 -0.00   
      2   C                0.00  0.00 -0.02   -0.00  0.00 -0.02    0.32  0.01  0.00   
      3   C                0.00  0.00 -0.01    0.00  0.00  0.03   -0.14 -0.27  0.00   
      4   H               -0.02 -0.33 -0.17    0.43 -0.09  0.04   -0.24  0.27 -0.02   
      5   H                0.02  0.33 -0.17   -0.43  0.09  0.04   -0.24  0.27  0.02   
      6   H                0.26 -0.29  0.12    0.19  0.34  0.13    0.27 -0.01 -0.03   
      7   H               -0.26  0.29  0.12   -0.19 -0.34  0.13    0.27 -0.01  0.03   
      8   H                0.39  0.19  0.05   -0.09  0.32 -0.17   -0.22 -0.31 -0.01   
      9   H               -0.39 -0.19  0.05    0.09 -0.32 -0.17   -0.22 -0.31  0.01   

  Vibration                       10                  11                  12          
  Freq [cm^-1]                 898.9632            919.5193           1123.6754       
  Irrep                           Ap                 App                  Ap          
  Reduced mass [u]              4.2187              1.0439              1.2156        
  Force const [mDyne/A]         2.0087              0.5200              0.9043        
  Turning point v=0 [a0]        0.1782              0.3542              0.2969        
  RMS dev v=0 [a0 u^1/2]        0.2588              0.2559              0.2315        
  Char temp [K]               1293.4078           1322.9835           1616.7187       
  ----------------------------------------------------------------------------------
      1   C               -0.26 -0.17 -0.00    0.00  0.00 -0.03    0.03  0.01 -0.00   
      2   C               -0.01  0.30  0.00    0.00 -0.00 -0.03    0.02 -0.10 -0.00   
      3   C                0.28 -0.16 -0.00   -0.00 -0.00 -0.03   -0.07 -0.04  0.00   
      4   H               -0.30 -0.11  0.03    0.13  0.33  0.20   -0.12  0.04 -0.02   
      5   H               -0.30 -0.11 -0.03   -0.13 -0.33  0.20   -0.12  0.04  0.02   
      6   H               -0.03  0.40 -0.00    0.35  0.05  0.20   -0.08  0.54 -0.00   
      7   H               -0.03  0.40  0.00   -0.35 -0.05  0.20   -0.08  0.54  0.00   
      8   H                0.28 -0.10 -0.03    0.22 -0.28  0.20    0.33  0.26  0.01   
      9   H                0.28 -0.10  0.03   -0.22  0.28  0.20    0.33  0.26 -0.01   

  Vibration                       13                  14                  15          
  Freq [cm^-1]                1123.7019           1133.6732           1206.8974       
  Irrep                           Ap                  Ap                 App          
  Reduced mass [u]              1.2157              1.4254              1.0078        
  Force const [mDyne/A]         0.9045              1.0794              0.8649        
  Turning point v=0 [a0]        0.2969              0.2730              0.3146        
  RMS dev v=0 [a0 u^1/2]        0.2315              0.2304              0.2233        
  Char temp [K]               1616.7568           1631.1034           1736.4567       
  ----------------------------------------------------------------------------------
      1   C               -0.10  0.04 -0.00   -0.10  0.04  0.00    0.00 -0.00 -0.00   
      2   C                0.01  0.03 -0.00    0.02 -0.11 -0.00    0.00 -0.00  0.00   
      3   C               -0.05 -0.06  0.00    0.09  0.07 -0.00    0.00  0.00  0.00   
      4   H                0.52 -0.21 -0.00    0.37 -0.15 -0.00   -0.38  0.15  0.00   
      5   H                0.52 -0.21  0.00    0.37 -0.15  0.00    0.38 -0.15  0.00   
      6   H                0.01 -0.17 -0.02   -0.06  0.40  0.00   -0.06  0.40  0.00   
      7   H                0.01 -0.17  0.02   -0.06  0.40 -0.00    0.06 -0.40  0.00   
      8   H                0.30  0.25 -0.01   -0.31 -0.25  0.00    0.32  0.25 -0.00   
      9   H                0.30  0.25  0.01   -0.31 -0.25 -0.00   -0.32 -0.25 -0.00   

  Vibration                       16                  17                  18          
  Freq [cm^-1]                1229.4681           1256.3881           1256.3890       
  Irrep                           Ap                 App                 App          
  Reduced mass [u]              2.8837              1.4506              1.4506        
  Force const [mDyne/A]         2.5682              1.3491              1.3491        
  Turning point v=0 [a0]        0.1843              0.2570              0.2570        
  RMS dev v=0 [a0 u^1/2]        0.2213              0.2189              0.2189        
  Char temp [K]               1768.9308           1807.6627           1807.6641       
  ----------------------------------------------------------------------------------
      1   C               -0.09 -0.22  0.00    0.00  0.00  0.14   -0.00  0.00 -0.08   
      2   C                0.24  0.03  0.00   -0.00 -0.00  0.00   -0.00 -0.00  0.16   
      3   C               -0.15  0.19 -0.00    0.00 -0.00 -0.14    0.00 -0.00 -0.08   
      4   H               -0.14 -0.34 -0.05    0.06 -0.40 -0.07    0.39  0.07  0.04   
      5   H               -0.14 -0.34  0.05   -0.06  0.40 -0.07   -0.39 -0.07  0.04   
      6   H                0.36  0.05  0.05   -0.06  0.38 -0.00   -0.40 -0.06 -0.09   
      7   H                0.36  0.05 -0.05    0.06 -0.38 -0.00    0.40  0.06 -0.09   
      8   H               -0.23  0.29 -0.05    0.07 -0.39  0.07    0.39  0.06  0.04   
      9   H               -0.23  0.29  0.05   -0.07  0.39  0.07   -0.39 -0.06  0.04   

  Vibration                       19                  20                  21          
  Freq [cm^-1]                1527.1635           1527.1872           1576.2753       
  Irrep                           Ap                  Ap                  Ap          
  Reduced mass [u]              1.0898              1.0898              1.2790        
  Force const [mDyne/A]         1.4975              1.4976              1.8724        
  Turning point v=0 [a0]        0.2690              0.2690              0.2444        
  RMS dev v=0 [a0 u^1/2]        0.1985              0.1985              0.1954        
  Char temp [K]               2197.2483           2197.2824           2267.9092       
  ----------------------------------------------------------------------------------
      1   C               -0.03 -0.06  0.00   -0.01  0.01 -0.00   -0.03 -0.08 -0.00   
      2   C               -0.04 -0.02  0.00   -0.06 -0.00  0.00    0.09  0.01 -0.00   
      3   C                0.01 -0.03 -0.00   -0.04  0.05 -0.00   -0.06  0.07  0.00   
      4   H                0.17  0.44  0.33    0.00 -0.03 -0.02    0.12  0.29  0.25   
      5   H                0.17  0.44 -0.33    0.00 -0.03  0.02    0.12  0.29 -0.25   
      6   H                0.25  0.05  0.18    0.39  0.05  0.27   -0.31 -0.05 -0.25   
      7   H                0.25  0.05 -0.18    0.39  0.05 -0.27   -0.31 -0.05  0.25   
      8   H               -0.12  0.17 -0.15    0.27 -0.33  0.29    0.20 -0.25  0.25   
      9   H               -0.12  0.17  0.15    0.27 -0.33 -0.29    0.20 -0.25 -0.25   

  Vibration                       22                  23                  24          
  Freq [cm^-1]                3132.4985           3132.5208           3140.8359       
  Irrep                           Ap                  Ap                  Ap          
  Reduced mass [u]              1.0503              1.0503              1.0648        
  Force const [mDyne/A]         6.0722              6.0723              6.1885        
  Turning point v=0 [a0]        0.1913              0.1913              0.1897        
  RMS dev v=0 [a0 u^1/2]        0.1386              0.1386              0.1384        
  Char temp [K]               4506.9679           4507.0000           4518.9635       
  ----------------------------------------------------------------------------------
      1   C                0.02  0.05  0.00   -0.00  0.00  0.00    0.02  0.04  0.00   
      2   C                0.02  0.00 -0.00    0.04  0.01 -0.00   -0.04 -0.01 -0.00   
      3   C               -0.02  0.02  0.00    0.03 -0.03 -0.00    0.03 -0.03 -0.00   
      4   H               -0.11 -0.28  0.49   -0.00 -0.00  0.01   -0.08 -0.19  0.35   
      5   H               -0.11 -0.28 -0.49   -0.00 -0.00 -0.01   -0.08 -0.19 -0.35   
      6   H               -0.15 -0.02  0.24   -0.26 -0.04  0.43    0.21  0.03 -0.35   
      7   H               -0.15 -0.02 -0.24   -0.26 -0.04 -0.43    0.21  0.03  0.35   
      8   H                0.09 -0.12 -0.25   -0.16  0.20  0.42   -0.13  0.16  0.35   
      9   H                0.09 -0.12  0.25   -0.16  0.20 -0.42   -0.13  0.16 -0.35   

  Vibration                       25                  26                  27          
  Freq [cm^-1]                3219.0762           3219.0851           3237.4760       
  Irrep                          App                 App                 App          
  Reduced mass [u]              1.1206              1.1206              1.1163        
  Force const [mDyne/A]         6.8417              6.8418              6.8935        
  Turning point v=0 [a0]        0.1827              0.1827              0.1825        
  RMS dev v=0 [a0 u^1/2]        0.1368              0.1368              0.1364        
  Char temp [K]               4631.5340           4631.5467           4658.0071       
  ----------------------------------------------------------------------------------
      1   C               -0.00 -0.00  0.02    0.00  0.00 -0.08    0.00  0.00 -0.06   
      2   C               -0.00 -0.00 -0.08    0.00 -0.00  0.02    0.00  0.00 -0.06   
      3   C                0.00 -0.00  0.06    0.00 -0.00  0.06   -0.00  0.00 -0.06   
      4   H                0.03  0.08 -0.13   -0.11 -0.28  0.47   -0.08 -0.20  0.34   
      5   H               -0.03 -0.08 -0.13    0.11  0.28  0.47    0.08  0.20  0.34   
      6   H               -0.29 -0.04  0.47    0.08  0.01 -0.12   -0.22 -0.03  0.34   
      7   H                0.29  0.04  0.47   -0.08 -0.01 -0.12    0.22  0.03  0.34   
      8   H                0.13 -0.17 -0.34    0.14 -0.17 -0.34   -0.14  0.17  0.34   
      9   H               -0.13  0.17 -0.34   -0.14  0.17 -0.34    0.14 -0.17  0.34   

  ==> Thermochemistry Components <==

  Entropy, S
    Electronic S            0.000 [cal/(mol K)]        0.000 [J/(mol K)]       0.00000000 [mEh/K] (multiplicity = 1)
    Translational S        37.135 [cal/(mol K)]      155.375 [J/(mol K)]       0.05917914 [mEh/K] (mol. weight = 42.0470 [u], P = 101325.00 [Pa])
    Rotational S           21.699 [cal/(mol K)]       90.789 [J/(mol K)]       0.03457982 [mEh/K] (symmetry no. = 1)
    Vibrational S           1.146 [cal/(mol K)]        4.794 [J/(mol K)]       0.00182609 [mEh/K]
  Total S                  59.981 [cal/(mol K)]      250.959 [J/(mol K)]       0.09558505 [mEh/K]
  Correction S              0.000 [cal/(mol K)]        0.000 [J/(mol K)]       0.00000000 [mEh/K]

  Constant volume heat capacity, Cv
    Electronic Cv           0.000 [cal/(mol K)]        0.000 [J/(mol K)]       0.00000000 [mEh/K]
    Translational Cv        2.981 [cal/(mol K)]       12.472 [J/(mol K)]       0.00475022 [mEh/K]
    Rotational Cv           2.981 [cal/(mol K)]       12.472 [J/(mol K)]       0.00475022 [mEh/K]
    Vibrational Cv          4.438 [cal/(mol K)]       18.567 [J/(mol K)]       0.00707196 [mEh/K]
  Total Cv                 10.399 [cal/(mol K)]       43.511 [J/(mol K)]       0.01657239 [mEh/K]
  Correction Cv             0.000 [cal/(mol K)]        0.000 [J/(mol K)]       0.00000000 [mEh/K]

  Constant pressure heat capacity, Cp
    Electronic Cp           0.000 [cal/(mol K)]        0.000 [J/(mol K)]       0.00000000 [mEh/K]
    Translational Cp        4.968 [cal/(mol K)]       20.786 [J/(mol K)]       0.00791703 [mEh/K]
    Rotational Cp           2.981 [cal/(mol K)]       12.472 [J/(mol K)]       0.00475022 [mEh/K]
    Vibrational Cp          4.438 [cal/(mol K)]       18.567 [J/(mol K)]       0.00707196 [mEh/K]
  Total Cp                 12.387 [cal/(mol K)]       51.825 [J/(mol K)]       0.01973920 [mEh/K]
  Correction Cp             0.000 [cal/(mol K)]        0.000 [J/(mol K)]       0.00000000 [mEh/K]

  ==> Thermochemistry Energy Analysis <==

  Raw electronic energy, E0
  Total E0, Electronic energy at well bottom at 0 [K]                 -117.46887127 [Eh]

  Zero-point energy, ZPE_vib = Sum_i nu_i / 2
    Electronic ZPE          0.000 [kcal/mol]        0.000 [kJ/mol]       0.00000000 [Eh]
    Translational ZPE       0.000 [kcal/mol]        0.000 [kJ/mol]       0.00000000 [Eh]
    Rotational ZPE          0.000 [kcal/mol]        0.000 [kJ/mol]       0.00000000 [Eh]
    Vibrational ZPE        52.010 [kcal/mol]      217.612 [kJ/mol]       0.08288400 [Eh]       18190.936 [cm^-1]
  Correction ZPE           52.010 [kcal/mol]      217.612 [kJ/mol]       0.08288400 [Eh]       18190.936 [cm^-1]
  Total ZPE, Electronic energy at 0 [K]                               -117.38598727 [Eh]

  Thermal Energy, E (includes ZPE)
    Electronic E            0.000 [kcal/mol]        0.000 [kJ/mol]       0.00000000 [Eh]
    Translational E         0.889 [kcal/mol]        3.718 [kJ/mol]       0.00141628 [Eh]
    Rotational E            0.889 [kcal/mol]        3.718 [kJ/mol]       0.00141628 [Eh]
    Vibrational E          52.291 [kcal/mol]      218.784 [kJ/mol]       0.08333061 [Eh]
  Correction E             54.068 [kcal/mol]      226.221 [kJ/mol]       0.08616317 [Eh]
  Total E, Electronic energy at  298.15 [K]                           -117.38270811 [Eh]

  Enthalpy, H_trans = E_trans + k_B * T
    Electronic H            0.000 [kcal/mol]        0.000 [kJ/mol]       0.00000000 [Eh]
    Translational H         1.481 [kcal/mol]        6.197 [kJ/mol]       0.00236046 [Eh]
    Rotational H            0.889 [kcal/mol]        3.718 [kJ/mol]       0.00141628 [Eh]
    Vibrational H          52.291 [kcal/mol]      218.784 [kJ/mol]       0.08333061 [Eh]
  Correction H             54.661 [kcal/mol]      228.700 [kJ/mol]       0.08710735 [Eh]
  Total H, Enthalpy at  298.15 [K]                                    -117.38176392 [Eh]

  Gibbs free energy, G = H - T * S
    Electronic G            0.000 [kcal/mol]        0.000 [kJ/mol]       0.00000000 [Eh]
    Translational G        -9.591 [kcal/mol]      -40.128 [kJ/mol]      -0.01528380 [Eh]
    Rotational G           -5.581 [kcal/mol]      -23.350 [kJ/mol]      -0.00889370 [Eh]
    Vibrational G          51.949 [kcal/mol]      217.355 [kJ/mol]       0.08278616 [Eh]
  Correction G             36.777 [kcal/mol]      153.877 [kJ/mol]       0.05860867 [Eh]
  Total G, Free enthalpy at  298.15 [K]                               -117.41026261 [Eh]

    Psi4 stopped on: Tuesday, 19 April 2022 02:20AM
    Psi4 wall time for execution: 0:01:03.54

*** Psi4 exiting successfully. Buy a developer a beer!
