
    -----------------------------------------------------------------------
          Psi4: An Open-Source Ab Initio Electronic Structure Package
                               Psi4 1.3.2 release

                         Git: Rev {HEAD} ecbda83 


    R. M. Parrish, L. A. Burns, D. G. A. Smith, A. C. Simmonett,
    A. E. DePrince III, E. G. Hohenstein, U. Bozkaya, A. Yu. Sokolov,
    R. Di Remigio, R. M. Richard, J. F. Gonthier, A. M. James,
    H. R. McAlexander, A. Kumar, M. Saitow, X. Wang, B. P. Pritchard,
    P. Verma, H. F. Schaefer III, K. Patkowski, R. A. King, E. F. Valeev,
    F. A. Evangelista, J. M. Turney, T. D. Crawford, and C. D. Sherrill,
    J. Chem. Theory Comput. 13(7) pp 3185--3197 (2017).
    (doi: 10.1021/acs.jctc.7b00174)


                         Additional Contributions by
    P. Kraus, H. Kruse, M. H. Lechner, M. C. Schieber, R. A. Shaw,
    A. Alenaizan, R. Galvelis, Z. L. Glick, S. Lehtola, and J. P. Misiewicz

    -----------------------------------------------------------------------


    Psi4 started on: Tuesday, 19 April 2022 12:04AM

    Process ID: 24934
    Host:       atlantis
    PSIDATADIR: /home/akrom/software/anaconda3/envs/ffpenv/share/psi4
    Memory:     500.0 MiB
    Threads:    1
    
  ==> Input File <==

--------------------------------------------------------------------------
set basis  6-31++G**
molecule {
0 1
   O        0.00000        0.00000       -0.06797
   H        0.74903        0.00000        0.53936
   H       -0.74903        0.00000        0.53936
}
energy('scf')
frequencies('scf')


--------------------------------------------------------------------------

*** tstart() called on atlantis
*** at Tue Apr 19 00:04:26 2022

   => Loading Basis Set <=

    Name: 6-31++G**
    Role: ORBITAL
    Keyword: BASIS
    atoms 1   entry O          line   153 file /home/akrom/software/anaconda3/envs/ffpenv/share/psi4/basis/6-31ppgss.gbs 
    atoms 2-3 entry H          line    46 file /home/akrom/software/anaconda3/envs/ffpenv/share/psi4/basis/6-31ppgss.gbs 


         ---------------------------------------------------------
                                   SCF
               by Justin Turney, Rob Parrish, Andy Simmonett
                          and Daniel G. A. Smith
                              RHF Reference
                        1 Threads,    500 MiB Core
         ---------------------------------------------------------

  ==> Geometry <==

    Molecular point group: c2v
    Full point group: C2v

    Geometry (in Angstrom), charge = 0, multiplicity = 1:

       Center              X                  Y                   Z               Mass       
    ------------   -----------------  -----------------  -----------------  -----------------
         O            0.000000000000     0.000000000000    -0.067969259994    15.994914619570
         H            0.749030000000     0.000000000000     0.539360740006     1.007825032230
         H           -0.749030000000    -0.000000000000     0.539360740006     1.007825032230

  Running in c2v symmetry.

  Rotational constants: A =     25.53156  B =     14.90675  C =      9.41168 [cm^-1]
  Rotational constants: A = 765416.81232  B = 446893.08836  C = 282155.15104 [MHz]
  Nuclear repulsion =    9.133433460995141

  Charge       = 0
  Multiplicity = 1
  Electrons    = 10
  Nalpha       = 5
  Nbeta        = 5

  ==> Algorithm <==

  SCF Algorithm Type is DF.
  DIIS enabled.
  MOM disabled.
  Fractional occupation disabled.
  Guess Type is SAD.
  Energy threshold   = 1.00e-06
  Density threshold  = 1.00e-06
  Integral threshold = 0.00e+00

  ==> Primary Basis <==

  Basis Set: 6-31++G**
    Blend: 6-31++G**
    Number of shells: 16
    Number of basis function: 31
    Number of Cartesian functions: 31
    Spherical Harmonics?: false
    Max angular momentum: 2

   => Loading Basis Set <=

    Name: (6-31++G** AUX)
    Role: JKFIT
    Keyword: DF_BASIS_SCF
    atoms 1   entry O          line   270 file /home/akrom/software/anaconda3/envs/ffpenv/share/psi4/basis/aug-cc-pvdz-jkfit.gbs 
    atoms 2-3 entry H          line    70 file /home/akrom/software/anaconda3/envs/ffpenv/share/psi4/basis/aug-cc-pvdz-jkfit.gbs 

  ==> Pre-Iterations <==

   -------------------------------------------------------
    Irrep   Nso     Nmo     Nalpha   Nbeta   Ndocc  Nsocc
   -------------------------------------------------------
     A1        15      15       0       0       0       0
     A2         2       2       0       0       0       0
     B1         9       9       0       0       0       0
     B2         5       5       0       0       0       0
   -------------------------------------------------------
    Total      31      31       5       5       5       0
   -------------------------------------------------------

  ==> Integral Setup <==

  DFHelper Memory: AOs need 0.002 GiB; user supplied 0.366 GiB. Using in-core AOs.

  ==> MemDFJK: Density-Fitted J/K Matrices <==

    J tasked:                   Yes
    K tasked:                   Yes
    wK tasked:                   No
    OpenMP threads:               1
    Memory [MiB]:               375
    Algorithm:                 Core
    Schwarz Cutoff:           1E-12
    Mask sparsity (%):       0.0000
    Fitting Condition:        1E-10

   => Auxiliary Basis Set <=

  Basis Set: (6-31++G** AUX)
    Blend: AUG-CC-PVDZ-JKFIT
    Number of shells: 52
    Number of basis function: 171
    Number of Cartesian functions: 171
    Spherical Harmonics?: false
    Max angular momentum: 3

  Minimum eigenvalue in the overlap matrix is 1.2582576837E-02.
  Using Symmetric Orthogonalization.

  SCF Guess: Superposition of Atomic Densities via on-the-fly atomic UHF.

  ==> Iterations <==

                           Total Energy        Delta E     RMS |[F,P]|

   @DF-RHF iter SAD:   -75.44657903415528   -7.54466e+01   0.00000e+00 
   @DF-RHF iter   1:   -75.94407201898859   -4.97493e-01   2.50118e-02 DIIS
   @DF-RHF iter   2:   -75.99963183735881   -5.55598e-02   1.62032e-02 DIIS
   @DF-RHF iter   3:   -76.02942676081233   -2.97949e-02   1.18728e-03 DIIS
   @DF-RHF iter   4:   -76.02980228517987   -3.75524e-04   2.60897e-04 DIIS
   @DF-RHF iter   5:   -76.02982138812627   -1.91029e-05   4.95725e-05 DIIS
   @DF-RHF iter   6:   -76.02982249646095   -1.10833e-06   1.13215e-05 DIIS
   @DF-RHF iter   7:   -76.02982256124055   -6.47796e-08   1.41276e-06 DIIS
   @DF-RHF iter   8:   -76.02982256212047   -8.79922e-10   2.43350e-07 DIIS
  Energy and wave function converged.


  ==> Post-Iterations <==

    Orbital Energies [Eh]
    ---------------------

    Doubly Occupied:                                                      

       1A1   -20.584860     2A1    -1.355050     1B1    -0.711111  
       3A1    -0.587358     1B2    -0.509572  

    Virtual:                                                              

       4A1     0.041362     2B1     0.072109     5A1     0.239478  
       2B2     0.252277     6A1     0.280042     3B1     0.314508  
       4B1     0.352849     7A1     0.411112     5B1     1.162061  
       8A1     1.274464     3B2     1.404044     9A1     1.404881  
       6B1     1.429415    10A1     1.606742     1A2     1.795075  
      11A1     1.801585     4B2     1.905441    12A1     2.574536  
       7B1     2.575322     8B1     2.857327     2A2     2.943476  
       5B2     2.999265    13A1     3.352640    14A1     3.735890  
       9B1     3.966679    15A1     4.427387  

    Final Occupation by Irrep:
             A1    A2    B1    B2 
    DOCC [     3,    0,    1,    1 ]

  @DF-RHF Final Energy:   -76.02982256212047

   => Energetics <=

    Nuclear Repulsion Energy =              9.1334334609951409
    One-Electron Energy =                -122.8306132915680138
    Two-Electron Energy =                  37.6673572684523918
    Total Energy =                        -76.0298225621204864

Computation Completed


Properties will be evaluated at   0.000000,   0.000000,   0.000000 [a0]

Properties computed using the SCF density matrix

  Nuclear Dipole Moment: [e a0]
     X:     0.0000      Y:     0.0000      Z:     1.0109

  Electronic Dipole Moment: [e a0]
     X:     0.0000      Y:     0.0000      Z:    -0.0914

  Dipole Moment: [e a0]
     X:     0.0000      Y:     0.0000      Z:     0.9195     Total:     0.9195

  Dipole Moment: [D]
     X:     0.0000      Y:     0.0000      Z:     2.3372     Total:     2.3372


*** tstop() called on atlantis at Tue Apr 19 00:04:26 2022
Module time:
	user time   =       0.26 seconds =       0.00 minutes
	system time =       0.02 seconds =       0.00 minutes
	total time  =          0 seconds =       0.00 minutes
Total time:
	user time   =       0.26 seconds =       0.00 minutes
	system time =       0.02 seconds =       0.00 minutes
	total time  =          0 seconds =       0.00 minutes
gradient() will perform analytic gradient computation.

*** tstart() called on atlantis
*** at Tue Apr 19 00:04:26 2022

   => Loading Basis Set <=

    Name: 6-31++G**
    Role: ORBITAL
    Keyword: BASIS
    atoms 1   entry O          line   153 file /home/akrom/software/anaconda3/envs/ffpenv/share/psi4/basis/6-31ppgss.gbs 
    atoms 2-3 entry H          line    46 file /home/akrom/software/anaconda3/envs/ffpenv/share/psi4/basis/6-31ppgss.gbs 


         ---------------------------------------------------------
                                   SCF
               by Justin Turney, Rob Parrish, Andy Simmonett
                          and Daniel G. A. Smith
                              RHF Reference
                        1 Threads,    500 MiB Core
         ---------------------------------------------------------

  ==> Geometry <==

    Molecular point group: c2v
    Full point group: C2v

    Geometry (in Angstrom), charge = 0, multiplicity = 1:

       Center              X                  Y                   Z               Mass       
    ------------   -----------------  -----------------  -----------------  -----------------
         O            0.000000000000     0.000000000000    -0.067969259994    15.994914619570
         H            0.749030000000     0.000000000000     0.539360740006     1.007825032230
         H           -0.749030000000    -0.000000000000     0.539360740006     1.007825032230

  Running in c2v symmetry.

  Rotational constants: A =     25.53156  B =     14.90675  C =      9.41168 [cm^-1]
  Rotational constants: A = 765416.81232  B = 446893.08836  C = 282155.15104 [MHz]
  Nuclear repulsion =    9.133433460995141

  Charge       = 0
  Multiplicity = 1
  Electrons    = 10
  Nalpha       = 5
  Nbeta        = 5

  ==> Algorithm <==

  SCF Algorithm Type is DF.
  DIIS enabled.
  MOM disabled.
  Fractional occupation disabled.
  Guess Type is SAD.
  Energy threshold   = 1.00e-08
  Density threshold  = 1.00e-08
  Integral threshold = 0.00e+00

  ==> Primary Basis <==

  Basis Set: 6-31++G**
    Blend: 6-31++G**
    Number of shells: 16
    Number of basis function: 31
    Number of Cartesian functions: 31
    Spherical Harmonics?: false
    Max angular momentum: 2

   => Loading Basis Set <=

    Name: (6-31++G** AUX)
    Role: JKFIT
    Keyword: DF_BASIS_SCF
    atoms 1   entry O          line   270 file /home/akrom/software/anaconda3/envs/ffpenv/share/psi4/basis/aug-cc-pvdz-jkfit.gbs 
    atoms 2-3 entry H          line    70 file /home/akrom/software/anaconda3/envs/ffpenv/share/psi4/basis/aug-cc-pvdz-jkfit.gbs 

  ==> Pre-Iterations <==

   -------------------------------------------------------
    Irrep   Nso     Nmo     Nalpha   Nbeta   Ndocc  Nsocc
   -------------------------------------------------------
     A1        15      15       0       0       0       0
     A2         2       2       0       0       0       0
     B1         9       9       0       0       0       0
     B2         5       5       0       0       0       0
   -------------------------------------------------------
    Total      31      31       5       5       5       0
   -------------------------------------------------------

  ==> Integral Setup <==

  DFHelper Memory: AOs need 0.002 GiB; user supplied 0.366 GiB. Using in-core AOs.

  ==> MemDFJK: Density-Fitted J/K Matrices <==

    J tasked:                   Yes
    K tasked:                   Yes
    wK tasked:                   No
    OpenMP threads:               1
    Memory [MiB]:               375
    Algorithm:                 Core
    Schwarz Cutoff:           1E-12
    Mask sparsity (%):       0.0000
    Fitting Condition:        1E-10

   => Auxiliary Basis Set <=

  Basis Set: (6-31++G** AUX)
    Blend: AUG-CC-PVDZ-JKFIT
    Number of shells: 52
    Number of basis function: 171
    Number of Cartesian functions: 171
    Spherical Harmonics?: false
    Max angular momentum: 3

  Minimum eigenvalue in the overlap matrix is 1.2582576837E-02.
  Using Symmetric Orthogonalization.

  SCF Guess: Superposition of Atomic Densities via on-the-fly atomic UHF.

  ==> Iterations <==

                           Total Energy        Delta E     RMS |[F,P]|

   @DF-RHF iter SAD:   -75.44657903415528   -7.54466e+01   0.00000e+00 
   @DF-RHF iter   1:   -75.94407201898859   -4.97493e-01   2.50118e-02 DIIS
   @DF-RHF iter   2:   -75.99963183735881   -5.55598e-02   1.62032e-02 DIIS
   @DF-RHF iter   3:   -76.02942676081233   -2.97949e-02   1.18728e-03 DIIS
   @DF-RHF iter   4:   -76.02980228517987   -3.75524e-04   2.60897e-04 DIIS
   @DF-RHF iter   5:   -76.02982138812627   -1.91029e-05   4.95725e-05 DIIS
   @DF-RHF iter   6:   -76.02982249646095   -1.10833e-06   1.13215e-05 DIIS
   @DF-RHF iter   7:   -76.02982256124055   -6.47796e-08   1.41276e-06 DIIS
   @DF-RHF iter   8:   -76.02982256212047   -8.79922e-10   2.43350e-07 DIIS
   @DF-RHF iter   9:   -76.02982256214574   -2.52669e-11   6.81589e-08 DIIS
   @DF-RHF iter  10:   -76.02982256214774   -2.00373e-12   7.28972e-09 DIIS
  Energy and wave function converged.


  ==> Post-Iterations <==

    Orbital Energies [Eh]
    ---------------------

    Doubly Occupied:                                                      

       1A1   -20.584860     2A1    -1.355051     1B1    -0.711111  
       3A1    -0.587358     1B2    -0.509572  

    Virtual:                                                              

       4A1     0.041362     2B1     0.072109     5A1     0.239478  
       2B2     0.252277     6A1     0.280042     3B1     0.314507  
       4B1     0.352848     7A1     0.411112     5B1     1.162061  
       8A1     1.274464     3B2     1.404044     9A1     1.404881  
       6B1     1.429415    10A1     1.606742     1A2     1.795074  
      11A1     1.801585     4B2     1.905441    12A1     2.574536  
       7B1     2.575322     8B1     2.857327     2A2     2.943476  
       5B2     2.999265    13A1     3.352640    14A1     3.735890  
       9B1     3.966678    15A1     4.427387  

    Final Occupation by Irrep:
             A1    A2    B1    B2 
    DOCC [     3,    0,    1,    1 ]

  @DF-RHF Final Energy:   -76.02982256214774

   => Energetics <=

    Nuclear Repulsion Energy =              9.1334334609951409
    One-Electron Energy =                -122.8306073343160136
    Two-Electron Energy =                  37.6673513111731353
    Total Energy =                        -76.0298225621477428

Computation Completed


Properties will be evaluated at   0.000000,   0.000000,   0.000000 [a0]

Properties computed using the SCF density matrix

  Nuclear Dipole Moment: [e a0]
     X:     0.0000      Y:     0.0000      Z:     1.0109

  Electronic Dipole Moment: [e a0]
     X:     0.0000      Y:     0.0000      Z:    -0.0914

  Dipole Moment: [e a0]
     X:     0.0000      Y:     0.0000      Z:     0.9195     Total:     0.9195

  Dipole Moment: [D]
     X:     0.0000      Y:     0.0000      Z:     2.3372     Total:     2.3372


*** tstop() called on atlantis at Tue Apr 19 00:04:26 2022
Module time:
	user time   =       0.25 seconds =       0.00 minutes
	system time =       0.00 seconds =       0.00 minutes
	total time  =          0 seconds =       0.00 minutes
Total time:
	user time   =       0.52 seconds =       0.01 minutes
	system time =       0.02 seconds =       0.00 minutes
	total time  =          0 seconds =       0.00 minutes

*** tstart() called on atlantis
*** at Tue Apr 19 00:04:26 2022


         ------------------------------------------------------------
                                   SCF GRAD                          
                          Rob Parrish, Justin Turney,                
                       Andy Simmonett, and Alex Sokolov              
         ------------------------------------------------------------

  ==> Geometry <==

    Molecular point group: c2v
    Full point group: C2v

    Geometry (in Angstrom), charge = 0, multiplicity = 1:

       Center              X                  Y                   Z               Mass       
    ------------   -----------------  -----------------  -----------------  -----------------
         O            0.000000000000     0.000000000000    -0.067969259994    15.994914619570
         H            0.749030000000     0.000000000000     0.539360740006     1.007825032230
         H           -0.749030000000    -0.000000000000     0.539360740006     1.007825032230

  Nuclear repulsion =    9.133433460995141

  ==> Basis Set <==

  Basis Set: 6-31++G**
    Blend: 6-31++G**
    Number of shells: 16
    Number of basis function: 31
    Number of Cartesian functions: 31
    Spherical Harmonics?: false
    Max angular momentum: 2

  ==> DFJKGrad: Density-Fitted SCF Gradients <==

    Gradient:                    1
    J tasked:                  Yes
    K tasked:                  Yes
    wK tasked:                  No
    OpenMP threads:              1
    Integrals threads:           1
    Memory [MiB]:              375
    Schwarz Cutoff:          0E+00
    Fitting Condition:       1E-10

   => Auxiliary Basis Set <=

  Basis Set: (6-31++G** AUX)
    Blend: AUG-CC-PVDZ-JKFIT
    Number of shells: 52
    Number of basis function: 171
    Number of Cartesian functions: 171
    Spherical Harmonics?: false
    Max angular momentum: 3


  -Total Gradient:
     Atom            X                  Y                   Z
    ------   -----------------  -----------------  -----------------
       1        0.000000000000    -0.000000000000    -0.037785885359
       2        0.011516727447     0.000000000000     0.018892942679
       3       -0.011516727447    -0.000000000000     0.018892942679


*** tstop() called on atlantis at Tue Apr 19 00:04:27 2022
Module time:
	user time   =       0.08 seconds =       0.00 minutes
	system time =       0.01 seconds =       0.00 minutes
	total time  =          1 seconds =       0.02 minutes
Total time:
	user time   =       0.60 seconds =       0.01 minutes
	system time =       0.03 seconds =       0.00 minutes
	total time  =          1 seconds =       0.02 minutes

  Based on options and gradient (rms=1.64E-02), recommend projecting translations and not projecting rotations.
hessian() will perform analytic frequency computation.

*** tstart() called on atlantis
*** at Tue Apr 19 00:04:27 2022

   => Loading Basis Set <=

    Name: 6-31++G**
    Role: ORBITAL
    Keyword: BASIS
    atoms 1   entry O          line   153 file /home/akrom/software/anaconda3/envs/ffpenv/share/psi4/basis/6-31ppgss.gbs 
    atoms 2-3 entry H          line    46 file /home/akrom/software/anaconda3/envs/ffpenv/share/psi4/basis/6-31ppgss.gbs 


         ---------------------------------------------------------
                                   SCF
               by Justin Turney, Rob Parrish, Andy Simmonett
                          and Daniel G. A. Smith
                              RHF Reference
                        1 Threads,    500 MiB Core
         ---------------------------------------------------------

  ==> Geometry <==

    Molecular point group: c2v
    Full point group: C2v

    Geometry (in Angstrom), charge = 0, multiplicity = 1:

       Center              X                  Y                   Z               Mass       
    ------------   -----------------  -----------------  -----------------  -----------------
         O            0.000000000000     0.000000000000    -0.067969259994    15.994914619570
         H            0.749030000000     0.000000000000     0.539360740006     1.007825032230
         H           -0.749030000000    -0.000000000000     0.539360740006     1.007825032230

  Running in c2v symmetry.

  Rotational constants: A =     25.53156  B =     14.90675  C =      9.41168 [cm^-1]
  Rotational constants: A = 765416.81232  B = 446893.08836  C = 282155.15104 [MHz]
  Nuclear repulsion =    9.133433460995141

  Charge       = 0
  Multiplicity = 1
  Electrons    = 10
  Nalpha       = 5
  Nbeta        = 5

  ==> Algorithm <==

  SCF Algorithm Type is DF.
  DIIS enabled.
  MOM disabled.
  Fractional occupation disabled.
  Guess Type is SAD.
  Energy threshold   = 1.00e-08
  Density threshold  = 1.00e-08
  Integral threshold = 0.00e+00

  ==> Primary Basis <==

  Basis Set: 6-31++G**
    Blend: 6-31++G**
    Number of shells: 16
    Number of basis function: 31
    Number of Cartesian functions: 31
    Spherical Harmonics?: false
    Max angular momentum: 2

   => Loading Basis Set <=

    Name: (6-31++G** AUX)
    Role: JKFIT
    Keyword: DF_BASIS_SCF
    atoms 1   entry O          line   270 file /home/akrom/software/anaconda3/envs/ffpenv/share/psi4/basis/aug-cc-pvdz-jkfit.gbs 
    atoms 2-3 entry H          line    70 file /home/akrom/software/anaconda3/envs/ffpenv/share/psi4/basis/aug-cc-pvdz-jkfit.gbs 

  ==> Pre-Iterations <==

   -------------------------------------------------------
    Irrep   Nso     Nmo     Nalpha   Nbeta   Ndocc  Nsocc
   -------------------------------------------------------
     A1        15      15       0       0       0       0
     A2         2       2       0       0       0       0
     B1         9       9       0       0       0       0
     B2         5       5       0       0       0       0
   -------------------------------------------------------
    Total      31      31       5       5       5       0
   -------------------------------------------------------

  ==> Integral Setup <==

  DFHelper Memory: AOs need 0.002 GiB; user supplied 0.366 GiB. Using in-core AOs.

  ==> MemDFJK: Density-Fitted J/K Matrices <==

    J tasked:                   Yes
    K tasked:                   Yes
    wK tasked:                   No
    OpenMP threads:               1
    Memory [MiB]:               375
    Algorithm:                 Core
    Schwarz Cutoff:           1E-12
    Mask sparsity (%):       0.0000
    Fitting Condition:        1E-10

   => Auxiliary Basis Set <=

  Basis Set: (6-31++G** AUX)
    Blend: AUG-CC-PVDZ-JKFIT
    Number of shells: 52
    Number of basis function: 171
    Number of Cartesian functions: 171
    Spherical Harmonics?: false
    Max angular momentum: 3

  Minimum eigenvalue in the overlap matrix is 1.2582576837E-02.
  Using Symmetric Orthogonalization.

  SCF Guess: Superposition of Atomic Densities via on-the-fly atomic UHF.

  ==> Iterations <==

                           Total Energy        Delta E     RMS |[F,P]|

   @DF-RHF iter SAD:   -75.44657903415528   -7.54466e+01   0.00000e+00 
   @DF-RHF iter   1:   -75.94407201898859   -4.97493e-01   2.50118e-02 DIIS
   @DF-RHF iter   2:   -75.99963183735881   -5.55598e-02   1.62032e-02 DIIS
   @DF-RHF iter   3:   -76.02942676081233   -2.97949e-02   1.18728e-03 DIIS
   @DF-RHF iter   4:   -76.02980228517987   -3.75524e-04   2.60897e-04 DIIS
   @DF-RHF iter   5:   -76.02982138812627   -1.91029e-05   4.95725e-05 DIIS
   @DF-RHF iter   6:   -76.02982249646095   -1.10833e-06   1.13215e-05 DIIS
   @DF-RHF iter   7:   -76.02982256124055   -6.47796e-08   1.41276e-06 DIIS
   @DF-RHF iter   8:   -76.02982256212047   -8.79922e-10   2.43350e-07 DIIS
   @DF-RHF iter   9:   -76.02982256214574   -2.52669e-11   6.81589e-08 DIIS
   @DF-RHF iter  10:   -76.02982256214774   -2.00373e-12   7.28972e-09 DIIS
  Energy and wave function converged.


  ==> Post-Iterations <==

    Orbital Energies [Eh]
    ---------------------

    Doubly Occupied:                                                      

       1A1   -20.584860     2A1    -1.355051     1B1    -0.711111  
       3A1    -0.587358     1B2    -0.509572  

    Virtual:                                                              

       4A1     0.041362     2B1     0.072109     5A1     0.239478  
       2B2     0.252277     6A1     0.280042     3B1     0.314507  
       4B1     0.352848     7A1     0.411112     5B1     1.162061  
       8A1     1.274464     3B2     1.404044     9A1     1.404881  
       6B1     1.429415    10A1     1.606742     1A2     1.795074  
      11A1     1.801585     4B2     1.905441    12A1     2.574536  
       7B1     2.575322     8B1     2.857327     2A2     2.943476  
       5B2     2.999265    13A1     3.352640    14A1     3.735890  
       9B1     3.966678    15A1     4.427387  

    Final Occupation by Irrep:
             A1    A2    B1    B2 
    DOCC [     3,    0,    1,    1 ]

  @DF-RHF Final Energy:   -76.02982256214774

   => Energetics <=

    Nuclear Repulsion Energy =              9.1334334609951409
    One-Electron Energy =                -122.8306073343160136
    Two-Electron Energy =                  37.6673513111731353
    Total Energy =                        -76.0298225621477428

Computation Completed


Properties will be evaluated at   0.000000,   0.000000,   0.000000 [a0]

Properties computed using the SCF density matrix

  Nuclear Dipole Moment: [e a0]
     X:     0.0000      Y:     0.0000      Z:     1.0109

  Electronic Dipole Moment: [e a0]
     X:     0.0000      Y:     0.0000      Z:    -0.0914

  Dipole Moment: [e a0]
     X:     0.0000      Y:     0.0000      Z:     0.9195     Total:     0.9195

  Dipole Moment: [D]
     X:     0.0000      Y:     0.0000      Z:     2.3372     Total:     2.3372


*** tstop() called on atlantis at Tue Apr 19 00:04:27 2022
Module time:
	user time   =       0.26 seconds =       0.00 minutes
	system time =       0.00 seconds =       0.00 minutes
	total time  =          0 seconds =       0.00 minutes
Total time:
	user time   =       0.86 seconds =       0.01 minutes
	system time =       0.03 seconds =       0.00 minutes
	total time  =          1 seconds =       0.02 minutes

*** tstart() called on atlantis
*** at Tue Apr 19 00:04:27 2022


         ------------------------------------------------------------
                                   SCF HESS                          
                          Rob Parrish, Justin Turney,                
                       Andy Simmonett, and Alex Sokolov              
         ------------------------------------------------------------

  ==> Geometry <==

    Molecular point group: c2v
    Full point group: C2v

    Geometry (in Angstrom), charge = 0, multiplicity = 1:

       Center              X                  Y                   Z               Mass       
    ------------   -----------------  -----------------  -----------------  -----------------
         O            0.000000000000     0.000000000000    -0.067969259994    15.994914619570
         H            0.749030000000     0.000000000000     0.539360740006     1.007825032230
         H           -0.749030000000    -0.000000000000     0.539360740006     1.007825032230

  Nuclear repulsion =    9.133433460995141

  ==> Basis Set <==

  Basis Set: 6-31++G**
    Blend: 6-31++G**
    Number of shells: 16
    Number of basis function: 31
    Number of Cartesian functions: 31
    Spherical Harmonics?: false
    Max angular momentum: 2

  ==> DFJKGrad: Density-Fitted SCF Gradients <==

    Gradient:                    2
    J tasked:                  Yes
    K tasked:                  Yes
    wK tasked:                  No
    OpenMP threads:              1
    Integrals threads:           1
    Memory [MiB]:              375
    Schwarz Cutoff:          0E+00
    Fitting Condition:       1E-10

   => Auxiliary Basis Set <=

  Basis Set: (6-31++G** AUX)
    Blend: AUG-CC-PVDZ-JKFIT
    Number of shells: 52
    Number of basis function: 171
    Number of Cartesian functions: 171
    Spherical Harmonics?: false
    Max angular momentum: 3

  DFHelper Memory: AOs need 0.002 GiB; user supplied 0.439 GiB. Using in-core AOs.

  ==> MemDFJK: Density-Fitted J/K Matrices <==

    J tasked:                   Yes
    K tasked:                   Yes
    wK tasked:                   No
    OpenMP threads:               1
    Memory [MiB]:               450
    Algorithm:                 Core
    Schwarz Cutoff:           1E-12
    Mask sparsity (%):       0.0000
    Fitting Condition:        1E-10

   => Auxiliary Basis Set <=

  Basis Set: (6-31++G** AUX)
    Blend: AUG-CC-PVDZ-JKFIT
    Number of shells: 52
    Number of basis function: 171
    Number of Cartesian functions: 171
    Spherical Harmonics?: false
    Max angular momentum: 3


         ------------------------------------------------------------
                                     CPHF                           
                                  Rob Parrish                       
         ------------------------------------------------------------

  ==> Geometry <==

    Molecular point group: c2v
    Full point group: C2v

    Geometry (in Angstrom), charge = 0, multiplicity = 1:

       Center              X                  Y                   Z               Mass       
    ------------   -----------------  -----------------  -----------------  -----------------
         O            0.000000000000     0.000000000000    -0.067969259994    15.994914619570
         H            0.749030000000     0.000000000000     0.539360740006     1.007825032230
         H           -0.749030000000    -0.000000000000     0.539360740006     1.007825032230

  Nuclear repulsion =    9.133433460995141
  Reference energy  =  -76.029822562147743

  ==> Basis Set <==

  Basis Set: 6-31++G**
    Blend: 6-31++G**
    Number of shells: 16
    Number of basis function: 31
    Number of Cartesian functions: 31
    Spherical Harmonics?: false
    Max angular momentum: 2

  ==> CGRSolver (by Rob Parrish) <==

   Number of roots    =         9
   Preconditioning    =    JACOBI
   Convergence cutoff =     1E-06
   Maximum iterations =       100

  ==> CPHFRHamiltonian (by Rob Parrish) <== 

  ==> MemDFJK: Density-Fitted J/K Matrices <==

    J tasked:                   Yes
    K tasked:                   Yes
    wK tasked:                   No
    OpenMP threads:               1
    Memory [MiB]:               450
    Algorithm:                 Core
    Schwarz Cutoff:           1E-12
    Mask sparsity (%):       0.0000
    Fitting Condition:        1E-10

   => Auxiliary Basis Set <=

  Basis Set: (6-31++G** AUX)
    Blend: AUG-CC-PVDZ-JKFIT
    Number of shells: 52
    Number of basis function: 171
    Number of Cartesian functions: 171
    Spherical Harmonics?: false
    Max angular momentum: 3

  ==> CPHF Iterations <==

  => Iterations <=

             Iter  Converged  Remaining    Residual
  CGR           1          0          9   1.209E-01
  CGR           2          0          9   2.382E-02
  CGR           3          0          9   4.856E-03
  CGR           4          0          9   1.004E-03
  CGR           5          0          9   1.592E-04
  CGR           6          0          9   2.775E-05
  CGR           7          2          7   5.772E-06
  CGR           8          5          4   1.168E-06
  CGR           9          9          0   1.342E-07

    CGRSolver converged.


*** tstop() called on atlantis at Tue Apr 19 00:04:37 2022
Module time:
	user time   =      10.48 seconds =       0.17 minutes
	system time =       0.07 seconds =       0.00 minutes
	total time  =         10 seconds =       0.17 minutes
Total time:
	user time   =      11.34 seconds =       0.19 minutes
	system time =       0.10 seconds =       0.00 minutes
	total time  =         11 seconds =       0.18 minutes


  ==> Harmonic Vibrational Analysis <==

  non-mass-weighted Hessian:       Symmetric? True   Hermitian? True   Lin Dep Dim?  0 (0)
  projection of translations (True) and rotations (False) removed 3 degrees of freedom (6)
  total projector:                 Symmetric? True   Hermitian? True   Lin Dep Dim?  3 (3)
  mass-weighted Hessian:           Symmetric? True   Hermitian? True   Lin Dep Dim?  0 (0)
  pre-proj  low-frequency mode:    0.0000i [cm^-1]
  pre-proj  low-frequency mode:    0.0000i [cm^-1]
  pre-proj  low-frequency mode:    0.0138  [cm^-1]
  pre-proj  low-frequency mode:  461.8779  [cm^-1]
  pre-proj  low-frequency mode:  559.2120  [cm^-1]
  pre-proj  low-frequency mode:  697.1437  [cm^-1]
  pre-proj  all modes:['0.0381i' '0.0168i' '0.0138' '461.8779' '559.2120' '697.1437' '1822.2747'
 '3875.1757' '3952.5082']
  projected mass-weighted Hessian: Symmetric? True   Hermitian? True   Lin Dep Dim?  3 (3)
  post-proj low-frequency mode:    0.0001i [cm^-1] (TR)
  post-proj low-frequency mode:    0.0000  [cm^-1] (TR)
  post-proj low-frequency mode:    0.0001  [cm^-1] (TR)
  post-proj low-frequency mode:  461.8779  [cm^-1] (V)
  post-proj low-frequency mode:  559.2120  [cm^-1] (V)
  post-proj low-frequency mode:  697.1437  [cm^-1] (V)
  post-proj  all modes:['0.0001i' '0.0000' '0.0001' '461.8779' '559.2120' '697.1437' '1822.2747'
 '3875.1757' '3952.5082']

  Note that "Vibration"s include 3 un-projected rotation-like modes.
  Vibration                       4                   5                   6           
  Freq [cm^-1]                 461.8779            559.2120            697.1437       
  Irrep                           A2                  B1                  B2          
  Reduced mass [u]              1.0078              1.0474              1.1259        
  Force const [mDyne/A]         0.1267              0.1930              0.3224        
  Turning point v=0 [a0]        0.5086              0.4534              0.3917        
  RMS dev v=0 [a0 u^1/2]        0.3610              0.3281              0.2939        
  IR activ [km/mol]             0.0000             127.3521            349.5914       
  Char temp [K]                664.5395            804.5815           1003.0346       
  ----------------------------------------------------------------------------------
      1   O                0.00 -0.00 -0.00    0.05 -0.00  0.00    0.00 -0.09 -0.00   
      2   H               -0.00  0.71  0.00   -0.41 -0.00  0.58   -0.00  0.70  0.00   
      3   H               -0.00 -0.71 -0.00   -0.41  0.00 -0.58    0.00  0.70  0.00   

  Vibration                       7                   8                   9           
  Freq [cm^-1]                1822.2747           3875.1757           3952.5082       
  Irrep                           A1                  A1                  B1          
  Reduced mass [u]              1.0807              1.0470              1.0803        
  Force const [mDyne/A]         2.1145              9.2633              9.9434        
  Turning point v=0 [a0]        0.2473              0.1723              0.1679        
  RMS dev v=0 [a0 u^1/2]        0.1818              0.1246              0.1234        
  IR activ [km/mol]            95.4061             18.6816             61.6257        
  Char temp [K]               2621.8476           5575.5150           5686.7793       
  ----------------------------------------------------------------------------------
      1   O                0.00  0.00 -0.07    0.00  0.00 -0.05   -0.07 -0.00 -0.00   
      2   H               -0.44 -0.00  0.55    0.58  0.00  0.41    0.55  0.00  0.44   
      3   H                0.44  0.00  0.55   -0.58 -0.00  0.41    0.55  0.00 -0.44   

  ==> Thermochemistry Components <==

  Entropy, S
    Electronic S            0.000 [cal/(mol K)]        0.000 [J/(mol K)]       0.00000000 [mEh/K] (multiplicity = 1)
    Translational S        34.608 [cal/(mol K)]      144.801 [J/(mol K)]       0.05515177 [mEh/K] (mol. weight = 18.0106 [u], P = 101325.00 [Pa])
    Rotational S           10.508 [cal/(mol K)]       43.968 [J/(mol K)]       0.01674635 [mEh/K] (symmetry no. = 2)
    Vibrational S           1.599 [cal/(mol K)]        6.688 [J/(mol K)]       0.00254737 [mEh/K]
  Total S                  46.715 [cal/(mol K)]      195.457 [J/(mol K)]       0.07444550 [mEh/K]
  Correction S              0.000 [cal/(mol K)]        0.000 [J/(mol K)]       0.00000000 [mEh/K]

  Constant volume heat capacity, Cv
    Electronic Cv           0.000 [cal/(mol K)]        0.000 [J/(mol K)]       0.00000000 [mEh/K]
    Translational Cv        2.981 [cal/(mol K)]       12.472 [J/(mol K)]       0.00475022 [mEh/K]
    Rotational Cv           2.981 [cal/(mol K)]       12.472 [J/(mol K)]       0.00475022 [mEh/K]
    Vibrational Cv          3.312 [cal/(mol K)]       13.858 [J/(mol K)]       0.00527833 [mEh/K]
  Total Cv                  9.274 [cal/(mol K)]       38.802 [J/(mol K)]       0.01477877 [mEh/K]
  Correction Cv             0.000 [cal/(mol K)]        0.000 [J/(mol K)]       0.00000000 [mEh/K]

  Constant pressure heat capacity, Cp
    Electronic Cp           0.000 [cal/(mol K)]        0.000 [J/(mol K)]       0.00000000 [mEh/K]
    Translational Cp        4.968 [cal/(mol K)]       20.786 [J/(mol K)]       0.00791703 [mEh/K]
    Rotational Cp           2.981 [cal/(mol K)]       12.472 [J/(mol K)]       0.00475022 [mEh/K]
    Vibrational Cp          3.312 [cal/(mol K)]       13.858 [J/(mol K)]       0.00527833 [mEh/K]
  Total Cp                 11.261 [cal/(mol K)]       47.116 [J/(mol K)]       0.01794558 [mEh/K]
  Correction Cp             0.000 [cal/(mol K)]        0.000 [J/(mol K)]       0.00000000 [mEh/K]

  ==> Thermochemistry Energy Analysis <==

  Raw electronic energy, E0
  Total E0, Electronic energy at well bottom at 0 [K]                  -76.02982256 [Eh]

  Zero-point energy, ZPE_vib = Sum_i nu_i / 2
    Electronic ZPE          0.000 [kcal/mol]        0.000 [kJ/mol]       0.00000000 [Eh]
    Translational ZPE       0.000 [kcal/mol]        0.000 [kJ/mol]       0.00000000 [Eh]
    Rotational ZPE          0.000 [kcal/mol]        0.000 [kJ/mol]       0.00000000 [Eh]
    Vibrational ZPE        16.252 [kcal/mol]       67.997 [kJ/mol]       0.02589865 [Eh]        5684.096 [cm^-1]
  Correction ZPE           16.252 [kcal/mol]       67.997 [kJ/mol]       0.02589865 [Eh]        5684.096 [cm^-1]
  Total ZPE, Electronic energy at 0 [K]                                -76.00392391 [Eh]

  Thermal Energy, E (includes ZPE)
    Electronic E            0.000 [kcal/mol]        0.000 [kJ/mol]       0.00000000 [Eh]
    Translational E         0.889 [kcal/mol]        3.718 [kJ/mol]       0.00141628 [Eh]
    Rotational E            0.889 [kcal/mol]        3.718 [kJ/mol]       0.00141628 [Eh]
    Vibrational E          16.599 [kcal/mol]       69.448 [kJ/mol]       0.02645144 [Eh]
  Correction E             18.376 [kcal/mol]       76.885 [kJ/mol]       0.02928400 [Eh]
  Total E, Electronic energy at  298.15 [K]                            -76.00053856 [Eh]

  Enthalpy, H_trans = E_trans + k_B * T
    Electronic H            0.000 [kcal/mol]        0.000 [kJ/mol]       0.00000000 [Eh]
    Translational H         1.481 [kcal/mol]        6.197 [kJ/mol]       0.00236046 [Eh]
    Rotational H            0.889 [kcal/mol]        3.718 [kJ/mol]       0.00141628 [Eh]
    Vibrational H          16.599 [kcal/mol]       69.448 [kJ/mol]       0.02645144 [Eh]
  Correction H             18.968 [kcal/mol]       79.364 [kJ/mol]       0.03022818 [Eh]
  Total H, Enthalpy at  298.15 [K]                                     -75.99959438 [Eh]

  Gibbs free energy, G = H - T * S
    Electronic G            0.000 [kcal/mol]        0.000 [kJ/mol]       0.00000000 [Eh]
    Translational G        -8.837 [kcal/mol]      -36.975 [kJ/mol]      -0.01408304 [Eh]
    Rotational G           -2.244 [kcal/mol]       -9.390 [kJ/mol]      -0.00357665 [Eh]
    Vibrational G          16.122 [kcal/mol]       67.454 [kJ/mol]       0.02569194 [Eh]
  Correction G              5.040 [kcal/mol]       21.089 [kJ/mol]       0.00803226 [Eh]
  Total G, Free enthalpy at  298.15 [K]                                -76.02179031 [Eh]

    Psi4 stopped on: Tuesday, 19 April 2022 12:04AM
    Psi4 wall time for execution: 0:00:11.52

*** Psi4 exiting successfully. Buy a developer a beer!
