
    -----------------------------------------------------------------------
          Psi4: An Open-Source Ab Initio Electronic Structure Package
                               Psi4 1.3.2 release

                         Git: Rev {HEAD} ecbda83 


    R. M. Parrish, L. A. Burns, D. G. A. Smith, A. C. Simmonett,
    A. E. DePrince III, E. G. Hohenstein, U. Bozkaya, A. Yu. Sokolov,
    R. Di Remigio, R. M. Richard, J. F. Gonthier, A. M. James,
    H. R. McAlexander, A. Kumar, M. Saitow, X. Wang, B. P. Pritchard,
    P. Verma, H. F. Schaefer III, K. Patkowski, R. A. King, E. F. Valeev,
    F. A. Evangelista, J. M. Turney, T. D. Crawford, and C. D. Sherrill,
    J. Chem. Theory Comput. 13(7) pp 3185--3197 (2017).
    (doi: 10.1021/acs.jctc.7b00174)


                         Additional Contributions by
    P. Kraus, H. Kruse, M. H. Lechner, M. C. Schieber, R. A. Shaw,
    A. Alenaizan, R. Galvelis, Z. L. Glick, S. Lehtola, and J. P. Misiewicz

    -----------------------------------------------------------------------


    Psi4 started on: Tuesday, 19 April 2022 09:57PM

    Process ID: 9963
    Host:       atlantis
    PSIDATADIR: /home/akrom/software/anaconda3/envs/ffpenv/share/psi4
    Memory:     500.0 MiB
    Threads:    1
    
  ==> Input File <==

--------------------------------------------------------------------------
set basis  6-31G
molecule {
0 1
   C        0.32153        0.81326        0.00000
   C       -0.86505       -0.12817        0.00000
   C        0.54353       -0.68508        0.00000
   H        0.53795        1.36069       -0.92039
   H        0.53795        1.36069        0.92039
   H       -1.44742       -0.21449        0.92034
   H       -1.44742       -0.21449       -0.92034
   H        0.90937       -1.14629       -0.92037
   H        0.90937       -1.14629        0.92037
}
energy('scf')
frequencies('scf')
--------------------------------------------------------------------------

*** tstart() called on atlantis
*** at Tue Apr 19 21:57:06 2022

   => Loading Basis Set <=

    Name: 6-31G
    Role: ORBITAL
    Keyword: BASIS
    atoms 1-3 entry C          line    87 file /home/akrom/software/anaconda3/envs/ffpenv/share/psi4/basis/6-31g.gbs 
    atoms 4-9 entry H          line    26 file /home/akrom/software/anaconda3/envs/ffpenv/share/psi4/basis/6-31g.gbs 


         ---------------------------------------------------------
                                   SCF
               by Justin Turney, Rob Parrish, Andy Simmonett
                          and Daniel G. A. Smith
                              RHF Reference
                        1 Threads,    500 MiB Core
         ---------------------------------------------------------

  ==> Geometry <==

    Molecular point group: cs
    Full point group: Cs

    Geometry (in Angstrom), charge = 0, multiplicity = 1:

       Center              X                  Y                   Z               Mass       
    ------------   -----------------  -----------------  -----------------  -----------------
         C            0.321531939855     0.813261460475     0.000000000000    12.000000000000
         C           -0.865048060145    -0.128168539525     0.000000000000    12.000000000000
         C            0.543531939855    -0.685078539525     0.000000000000    12.000000000000
         H            0.537951939855     1.360691460475    -0.920390000000     1.007825032230
         H            0.537951939855     1.360691460475     0.920390000000     1.007825032230
         H           -1.447418060145    -0.214488539525     0.920340000000     1.007825032230
         H           -1.447418060145    -0.214488539525    -0.920340000000     1.007825032230
         H            0.909371939855    -1.146288539525    -0.920370000000     1.007825032230
         H            0.909371939855    -1.146288539525     0.920370000000     1.007825032230

  Running in cs symmetry.

  Rotational constants: A =      0.66472  B =      0.66470  C =      0.41647 [cm^-1]
  Rotational constants: A =  19927.70596  B =  19927.20236  C =  12485.44714 [MHz]
  Nuclear repulsion =   75.281464809014025

  Charge       = 0
  Multiplicity = 1
  Electrons    = 24
  Nalpha       = 12
  Nbeta        = 12

  ==> Algorithm <==

  SCF Algorithm Type is DF.
  DIIS enabled.
  MOM disabled.
  Fractional occupation disabled.
  Guess Type is SAD.
  Energy threshold   = 1.00e-06
  Density threshold  = 1.00e-06
  Integral threshold = 0.00e+00

  ==> Primary Basis <==

  Basis Set: 6-31G
    Blend: 6-31G
    Number of shells: 27
    Number of basis function: 39
    Number of Cartesian functions: 39
    Spherical Harmonics?: false
    Max angular momentum: 1

   => Loading Basis Set <=

    Name: (6-31G AUX)
    Role: JKFIT
    Keyword: DF_BASIS_SCF
    atoms 1-3 entry C          line   121 file /home/akrom/software/anaconda3/envs/ffpenv/share/psi4/basis/cc-pvdz-jkfit.gbs 
    atoms 4-9 entry H          line    51 file /home/akrom/software/anaconda3/envs/ffpenv/share/psi4/basis/cc-pvdz-jkfit.gbs 

  ==> Pre-Iterations <==

   -------------------------------------------------------
    Irrep   Nso     Nmo     Nalpha   Nbeta   Ndocc  Nsocc
   -------------------------------------------------------
     A'        27      27       0       0       0       0
     A"        12      12       0       0       0       0
   -------------------------------------------------------
    Total      39      39      12      12      12       0
   -------------------------------------------------------

  ==> Integral Setup <==

  DFHelper Memory: AOs need 0.006 GiB; user supplied 0.366 GiB. Using in-core AOs.

  ==> MemDFJK: Density-Fitted J/K Matrices <==

    J tasked:                   Yes
    K tasked:                   Yes
    wK tasked:                   No
    OpenMP threads:               1
    Memory [MiB]:               375
    Algorithm:                 Core
    Schwarz Cutoff:           1E-12
    Mask sparsity (%):       0.0000
    Fitting Condition:        1E-10

   => Auxiliary Basis Set <=

  Basis Set: (6-31G AUX)
    Blend: CC-PVDZ-JKFIT
    Number of shells: 126
    Number of basis function: 393
    Number of Cartesian functions: 393
    Spherical Harmonics?: false
    Max angular momentum: 3

  Minimum eigenvalue in the overlap matrix is 9.9475880981E-03.
  Using Symmetric Orthogonalization.

  SCF Guess: Superposition of Atomic Densities via on-the-fly atomic UHF.

  ==> Iterations <==

                           Total Energy        Delta E     RMS |[F,P]|

   @DF-RHF iter SAD:  -116.54531314639260   -1.16545e+02   0.00000e+00 
   @DF-RHF iter   1:  -116.95968769113043   -4.14375e-01   9.01850e-03 DIIS
   @DF-RHF iter   2:  -116.99997354935283   -4.02859e-02   3.46645e-03 DIIS
   @DF-RHF iter   3:  -117.00575701104104   -5.78346e-03   6.45081e-04 DIIS
   @DF-RHF iter   4:  -117.00609078506605   -3.33774e-04   6.70515e-05 DIIS
   @DF-RHF iter   5:  -117.00609555430778   -4.76924e-06   6.01494e-06 DIIS
   @DF-RHF iter   6:  -117.00609560115183   -4.68441e-08   8.87458e-07 DIIS
  Energy and wave function converged.


  ==> Post-Iterations <==

    Orbital Energies [Eh]
    ---------------------

    Doubly Occupied:                                                      

       1Ap   -11.229674     2Ap   -11.228757     3Ap   -11.228752  
       4Ap    -1.134539     5Ap    -0.813738     6Ap    -0.813732  
       1App   -0.666962     7Ap    -0.620050     2App   -0.507778  
       3App   -0.507763     8Ap    -0.416177     9Ap    -0.416170  

    Virtual:                                                              

      10Ap     0.240932     4App    0.253331    11Ap     0.299825  
      12Ap     0.299831    13Ap     0.316112     5App    0.378292  
       6App    0.378297    14Ap     0.419361    15Ap     0.419371  
      16Ap     0.700441     7App    0.783613    17Ap     0.795702  
      18Ap     0.795724    19Ap     0.916538    20Ap     0.916552  
      21Ap     0.959035    22Ap     1.009981     8App    1.046821  
       9App    1.046883    10App    1.203408    23Ap     1.243038  
      24Ap     1.243049    25Ap     1.271190    11App    1.286353  
      12App    1.286402    26Ap     1.540405    27Ap     1.540412  

    Final Occupation by Irrep:
             Ap   App 
    DOCC [     9,    3 ]

  @DF-RHF Final Energy:  -117.00609560115183

   => Energetics <=

    Nuclear Repulsion Energy =             75.2814648090140253
    One-Electron Energy =                -305.4069428273420499
    Two-Electron Energy =                 113.1193824171761833
    Total Energy =                       -117.0060956011518272

Computation Completed


Properties will be evaluated at   0.000000,   0.000000,   0.000000 [a0]

Properties computed using the SCF density matrix

  Nuclear Dipole Moment: [e a0]
     X:    -0.0002      Y:    -0.0002      Z:     0.0000

  Electronic Dipole Moment: [e a0]
     X:     0.0001      Y:     0.0001      Z:     0.0000

  Dipole Moment: [e a0]
     X:    -0.0000      Y:    -0.0000      Z:     0.0000     Total:     0.0000

  Dipole Moment: [D]
     X:    -0.0001      Y:    -0.0001      Z:     0.0000     Total:     0.0001


*** tstop() called on atlantis at Tue Apr 19 21:57:06 2022
Module time:
	user time   =       0.45 seconds =       0.01 minutes
	system time =       0.00 seconds =       0.00 minutes
	total time  =          0 seconds =       0.00 minutes
Total time:
	user time   =       0.45 seconds =       0.01 minutes
	system time =       0.00 seconds =       0.00 minutes
	total time  =          0 seconds =       0.00 minutes
gradient() will perform analytic gradient computation.

*** tstart() called on atlantis
*** at Tue Apr 19 21:57:06 2022

   => Loading Basis Set <=

    Name: 6-31G
    Role: ORBITAL
    Keyword: BASIS
    atoms 1-3 entry C          line    87 file /home/akrom/software/anaconda3/envs/ffpenv/share/psi4/basis/6-31g.gbs 
    atoms 4-9 entry H          line    26 file /home/akrom/software/anaconda3/envs/ffpenv/share/psi4/basis/6-31g.gbs 


         ---------------------------------------------------------
                                   SCF
               by Justin Turney, Rob Parrish, Andy Simmonett
                          and Daniel G. A. Smith
                              RHF Reference
                        1 Threads,    500 MiB Core
         ---------------------------------------------------------

  ==> Geometry <==

    Molecular point group: cs
    Full point group: Cs

    Geometry (in Angstrom), charge = 0, multiplicity = 1:

       Center              X                  Y                   Z               Mass       
    ------------   -----------------  -----------------  -----------------  -----------------
         C            0.321531939855     0.813261460475     0.000000000000    12.000000000000
         C           -0.865048060145    -0.128168539525     0.000000000000    12.000000000000
         C            0.543531939855    -0.685078539525     0.000000000000    12.000000000000
         H            0.537951939855     1.360691460475    -0.920390000000     1.007825032230
         H            0.537951939855     1.360691460475     0.920390000000     1.007825032230
         H           -1.447418060145    -0.214488539525     0.920340000000     1.007825032230
         H           -1.447418060145    -0.214488539525    -0.920340000000     1.007825032230
         H            0.909371939855    -1.146288539525    -0.920370000000     1.007825032230
         H            0.909371939855    -1.146288539525     0.920370000000     1.007825032230

  Running in cs symmetry.

  Rotational constants: A =      0.66472  B =      0.66470  C =      0.41647 [cm^-1]
  Rotational constants: A =  19927.70596  B =  19927.20236  C =  12485.44714 [MHz]
  Nuclear repulsion =   75.281464809014025

  Charge       = 0
  Multiplicity = 1
  Electrons    = 24
  Nalpha       = 12
  Nbeta        = 12

  ==> Algorithm <==

  SCF Algorithm Type is DF.
  DIIS enabled.
  MOM disabled.
  Fractional occupation disabled.
  Guess Type is SAD.
  Energy threshold   = 1.00e-08
  Density threshold  = 1.00e-08
  Integral threshold = 0.00e+00

  ==> Primary Basis <==

  Basis Set: 6-31G
    Blend: 6-31G
    Number of shells: 27
    Number of basis function: 39
    Number of Cartesian functions: 39
    Spherical Harmonics?: false
    Max angular momentum: 1

   => Loading Basis Set <=

    Name: (6-31G AUX)
    Role: JKFIT
    Keyword: DF_BASIS_SCF
    atoms 1-3 entry C          line   121 file /home/akrom/software/anaconda3/envs/ffpenv/share/psi4/basis/cc-pvdz-jkfit.gbs 
    atoms 4-9 entry H          line    51 file /home/akrom/software/anaconda3/envs/ffpenv/share/psi4/basis/cc-pvdz-jkfit.gbs 

  ==> Pre-Iterations <==

   -------------------------------------------------------
    Irrep   Nso     Nmo     Nalpha   Nbeta   Ndocc  Nsocc
   -------------------------------------------------------
     A'        27      27       0       0       0       0
     A"        12      12       0       0       0       0
   -------------------------------------------------------
    Total      39      39      12      12      12       0
   -------------------------------------------------------

  ==> Integral Setup <==

  DFHelper Memory: AOs need 0.006 GiB; user supplied 0.366 GiB. Using in-core AOs.

  ==> MemDFJK: Density-Fitted J/K Matrices <==

    J tasked:                   Yes
    K tasked:                   Yes
    wK tasked:                   No
    OpenMP threads:               1
    Memory [MiB]:               375
    Algorithm:                 Core
    Schwarz Cutoff:           1E-12
    Mask sparsity (%):       0.0000
    Fitting Condition:        1E-10

   => Auxiliary Basis Set <=

  Basis Set: (6-31G AUX)
    Blend: CC-PVDZ-JKFIT
    Number of shells: 126
    Number of basis function: 393
    Number of Cartesian functions: 393
    Spherical Harmonics?: false
    Max angular momentum: 3

  Minimum eigenvalue in the overlap matrix is 9.9475880981E-03.
  Using Symmetric Orthogonalization.

  SCF Guess: Superposition of Atomic Densities via on-the-fly atomic UHF.

  ==> Iterations <==

                           Total Energy        Delta E     RMS |[F,P]|

   @DF-RHF iter SAD:  -116.54531314633634   -1.16545e+02   0.00000e+00 
   @DF-RHF iter   1:  -116.95968769106918   -4.14375e-01   9.01850e-03 DIIS
   @DF-RHF iter   2:  -116.99997354929127   -4.02859e-02   3.46645e-03 DIIS
   @DF-RHF iter   3:  -117.00575701097955   -5.78346e-03   6.45081e-04 DIIS
   @DF-RHF iter   4:  -117.00609078500435   -3.33774e-04   6.70515e-05 DIIS
   @DF-RHF iter   5:  -117.00609555424612   -4.76924e-06   6.01494e-06 DIIS
   @DF-RHF iter   6:  -117.00609560109017   -4.68441e-08   8.87458e-07 DIIS
   @DF-RHF iter   7:  -117.00609560204651   -9.56348e-10   1.15832e-07 DIIS
   @DF-RHF iter   8:  -117.00609560205800   -1.14824e-11   1.46495e-08 DIIS
   @DF-RHF iter   9:  -117.00609560205817   -1.70530e-13   2.29888e-09 DIIS
  Energy and wave function converged.


  ==> Post-Iterations <==

    Orbital Energies [Eh]
    ---------------------

    Doubly Occupied:                                                      

       1Ap   -11.229673     2Ap   -11.228756     3Ap   -11.228751  
       4Ap    -1.134538     5Ap    -0.813738     6Ap    -0.813732  
       1App   -0.666963     7Ap    -0.620050     2App   -0.507779  
       3App   -0.507764     8Ap    -0.416177     9Ap    -0.416169  

    Virtual:                                                              

      10Ap     0.240932     4App    0.253332    11Ap     0.299826  
      12Ap     0.299832    13Ap     0.316113     5App    0.378292  
       6App    0.378298    14Ap     0.419362    15Ap     0.419372  
      16Ap     0.700441     7App    0.783614    17Ap     0.795703  
      18Ap     0.795725    19Ap     0.916539    20Ap     0.916553  
      21Ap     0.959036    22Ap     1.009982     8App    1.046822  
       9App    1.046884    10App    1.203409    23Ap     1.243039  
      24Ap     1.243050    25Ap     1.271191    11App    1.286354  
      12App    1.286403    26Ap     1.540406    27Ap     1.540413  

    Final Occupation by Irrep:
             Ap   App 
    DOCC [     9,    3 ]

  @DF-RHF Final Energy:  -117.00609560205817

   => Energetics <=

    Nuclear Repulsion Energy =             75.2814648090140253
    One-Electron Energy =                -305.4069393047884091
    Two-Electron Energy =                 113.1193788937162026
    Total Energy =                       -117.0060956020581671

Computation Completed


Properties will be evaluated at   0.000000,   0.000000,   0.000000 [a0]

Properties computed using the SCF density matrix

  Nuclear Dipole Moment: [e a0]
     X:    -0.0002      Y:    -0.0002      Z:     0.0000

  Electronic Dipole Moment: [e a0]
     X:     0.0001      Y:     0.0001      Z:     0.0000

  Dipole Moment: [e a0]
     X:    -0.0000      Y:    -0.0000      Z:     0.0000     Total:     0.0000

  Dipole Moment: [D]
     X:    -0.0001      Y:    -0.0001      Z:     0.0000     Total:     0.0001


*** tstop() called on atlantis at Tue Apr 19 21:57:07 2022
Module time:
	user time   =       0.44 seconds =       0.01 minutes
	system time =       0.00 seconds =       0.00 minutes
	total time  =          1 seconds =       0.02 minutes
Total time:
	user time   =       0.90 seconds =       0.01 minutes
	system time =       0.00 seconds =       0.00 minutes
	total time  =          1 seconds =       0.02 minutes

*** tstart() called on atlantis
*** at Tue Apr 19 21:57:07 2022


         ------------------------------------------------------------
                                   SCF GRAD                          
                          Rob Parrish, Justin Turney,                
                       Andy Simmonett, and Alex Sokolov              
         ------------------------------------------------------------

  ==> Geometry <==

    Molecular point group: cs
    Full point group: Cs

    Geometry (in Angstrom), charge = 0, multiplicity = 1:

       Center              X                  Y                   Z               Mass       
    ------------   -----------------  -----------------  -----------------  -----------------
         C            0.321531939855     0.813261460475     0.000000000000    12.000000000000
         C           -0.865048060145    -0.128168539525     0.000000000000    12.000000000000
         C            0.543531939855    -0.685078539525     0.000000000000    12.000000000000
         H            0.537951939855     1.360691460475    -0.920390000000     1.007825032230
         H            0.537951939855     1.360691460475     0.920390000000     1.007825032230
         H           -1.447418060145    -0.214488539525     0.920340000000     1.007825032230
         H           -1.447418060145    -0.214488539525    -0.920340000000     1.007825032230
         H            0.909371939855    -1.146288539525    -0.920370000000     1.007825032230
         H            0.909371939855    -1.146288539525     0.920370000000     1.007825032230

  Nuclear repulsion =   75.281464809014025

  ==> Basis Set <==

  Basis Set: 6-31G
    Blend: 6-31G
    Number of shells: 27
    Number of basis function: 39
    Number of Cartesian functions: 39
    Spherical Harmonics?: false
    Max angular momentum: 1

  ==> DFJKGrad: Density-Fitted SCF Gradients <==

    Gradient:                    1
    J tasked:                  Yes
    K tasked:                  Yes
    wK tasked:                  No
    OpenMP threads:              1
    Integrals threads:           1
    Memory [MiB]:              375
    Schwarz Cutoff:          0E+00
    Fitting Condition:       1E-10

   => Auxiliary Basis Set <=

  Basis Set: (6-31G AUX)
    Blend: CC-PVDZ-JKFIT
    Number of shells: 126
    Number of basis function: 393
    Number of Cartesian functions: 393
    Spherical Harmonics?: false
    Max angular momentum: 3


  -Total Gradient:
     Atom            X                  Y                   Z
    ------   -----------------  -----------------  -----------------
       1       -0.001548492351    -0.003916005744     0.000000000000
       2        0.004194878068     0.000626156504     0.000000000000
       3       -0.002618211858     0.003314128285     0.000000000000
       4        0.002223934796     0.005629249539    -0.013170113900
       5        0.002223934796     0.005629249539     0.013170113900
       6       -0.005997946686    -0.000892123269     0.013159184925
       7       -0.005997946686    -0.000892123269    -0.013159184925
       8        0.003759924961    -0.004749265791    -0.013165859285
       9        0.003759924961    -0.004749265791     0.013165859285


*** tstop() called on atlantis at Tue Apr 19 21:57:07 2022
Module time:
	user time   =       0.24 seconds =       0.00 minutes
	system time =       0.00 seconds =       0.00 minutes
	total time  =          0 seconds =       0.00 minutes
Total time:
	user time   =       1.14 seconds =       0.02 minutes
	system time =       0.00 seconds =       0.00 minutes
	total time  =          1 seconds =       0.02 minutes

  Based on options and gradient (rms=6.98E-03), recommend projecting translations and projecting rotations.
hessian() will perform analytic frequency computation.

*** tstart() called on atlantis
*** at Tue Apr 19 21:57:07 2022

   => Loading Basis Set <=

    Name: 6-31G
    Role: ORBITAL
    Keyword: BASIS
    atoms 1-3 entry C          line    87 file /home/akrom/software/anaconda3/envs/ffpenv/share/psi4/basis/6-31g.gbs 
    atoms 4-9 entry H          line    26 file /home/akrom/software/anaconda3/envs/ffpenv/share/psi4/basis/6-31g.gbs 


         ---------------------------------------------------------
                                   SCF
               by Justin Turney, Rob Parrish, Andy Simmonett
                          and Daniel G. A. Smith
                              RHF Reference
                        1 Threads,    500 MiB Core
         ---------------------------------------------------------

  ==> Geometry <==

    Molecular point group: cs
    Full point group: Cs

    Geometry (in Angstrom), charge = 0, multiplicity = 1:

       Center              X                  Y                   Z               Mass       
    ------------   -----------------  -----------------  -----------------  -----------------
         C            0.321531939855     0.813261460475     0.000000000000    12.000000000000
         C           -0.865048060145    -0.128168539525     0.000000000000    12.000000000000
         C            0.543531939855    -0.685078539525     0.000000000000    12.000000000000
         H            0.537951939855     1.360691460475    -0.920390000000     1.007825032230
         H            0.537951939855     1.360691460475     0.920390000000     1.007825032230
         H           -1.447418060145    -0.214488539525     0.920340000000     1.007825032230
         H           -1.447418060145    -0.214488539525    -0.920340000000     1.007825032230
         H            0.909371939855    -1.146288539525    -0.920370000000     1.007825032230
         H            0.909371939855    -1.146288539525     0.920370000000     1.007825032230

  Running in cs symmetry.

  Rotational constants: A =      0.66472  B =      0.66470  C =      0.41647 [cm^-1]
  Rotational constants: A =  19927.70596  B =  19927.20236  C =  12485.44714 [MHz]
  Nuclear repulsion =   75.281464809014025

  Charge       = 0
  Multiplicity = 1
  Electrons    = 24
  Nalpha       = 12
  Nbeta        = 12

  ==> Algorithm <==

  SCF Algorithm Type is DF.
  DIIS enabled.
  MOM disabled.
  Fractional occupation disabled.
  Guess Type is SAD.
  Energy threshold   = 1.00e-08
  Density threshold  = 1.00e-08
  Integral threshold = 0.00e+00

  ==> Primary Basis <==

  Basis Set: 6-31G
    Blend: 6-31G
    Number of shells: 27
    Number of basis function: 39
    Number of Cartesian functions: 39
    Spherical Harmonics?: false
    Max angular momentum: 1

   => Loading Basis Set <=

    Name: (6-31G AUX)
    Role: JKFIT
    Keyword: DF_BASIS_SCF
    atoms 1-3 entry C          line   121 file /home/akrom/software/anaconda3/envs/ffpenv/share/psi4/basis/cc-pvdz-jkfit.gbs 
    atoms 4-9 entry H          line    51 file /home/akrom/software/anaconda3/envs/ffpenv/share/psi4/basis/cc-pvdz-jkfit.gbs 

  ==> Pre-Iterations <==

   -------------------------------------------------------
    Irrep   Nso     Nmo     Nalpha   Nbeta   Ndocc  Nsocc
   -------------------------------------------------------
     A'        27      27       0       0       0       0
     A"        12      12       0       0       0       0
   -------------------------------------------------------
    Total      39      39      12      12      12       0
   -------------------------------------------------------

  ==> Integral Setup <==

  DFHelper Memory: AOs need 0.006 GiB; user supplied 0.366 GiB. Using in-core AOs.

  ==> MemDFJK: Density-Fitted J/K Matrices <==

    J tasked:                   Yes
    K tasked:                   Yes
    wK tasked:                   No
    OpenMP threads:               1
    Memory [MiB]:               375
    Algorithm:                 Core
    Schwarz Cutoff:           1E-12
    Mask sparsity (%):       0.0000
    Fitting Condition:        1E-10

   => Auxiliary Basis Set <=

  Basis Set: (6-31G AUX)
    Blend: CC-PVDZ-JKFIT
    Number of shells: 126
    Number of basis function: 393
    Number of Cartesian functions: 393
    Spherical Harmonics?: false
    Max angular momentum: 3

  Minimum eigenvalue in the overlap matrix is 9.9475880981E-03.
  Using Symmetric Orthogonalization.

  SCF Guess: Superposition of Atomic Densities via on-the-fly atomic UHF.

  ==> Iterations <==

                           Total Energy        Delta E     RMS |[F,P]|

   @DF-RHF iter SAD:  -116.54531314633678   -1.16545e+02   0.00000e+00 
   @DF-RHF iter   1:  -116.95968769106955   -4.14375e-01   9.01850e-03 DIIS
   @DF-RHF iter   2:  -116.99997354929141   -4.02859e-02   3.46645e-03 DIIS
   @DF-RHF iter   3:  -117.00575701097964   -5.78346e-03   6.45081e-04 DIIS
   @DF-RHF iter   4:  -117.00609078500463   -3.33774e-04   6.70515e-05 DIIS
   @DF-RHF iter   5:  -117.00609555424637   -4.76924e-06   6.01494e-06 DIIS
   @DF-RHF iter   6:  -117.00609560109021   -4.68438e-08   8.87458e-07 DIIS
   @DF-RHF iter   7:  -117.00609560204683   -9.56618e-10   1.15832e-07 DIIS
   @DF-RHF iter   8:  -117.00609560205805   -1.12266e-11   1.46495e-08 DIIS
   @DF-RHF iter   9:  -117.00609560205847   -4.12115e-13   2.29888e-09 DIIS
  Energy and wave function converged.


  ==> Post-Iterations <==

    Orbital Energies [Eh]
    ---------------------

    Doubly Occupied:                                                      

       1Ap   -11.229673     2Ap   -11.228756     3Ap   -11.228751  
       4Ap    -1.134538     5Ap    -0.813738     6Ap    -0.813732  
       1App   -0.666963     7Ap    -0.620050     2App   -0.507779  
       3App   -0.507764     8Ap    -0.416177     9Ap    -0.416169  

    Virtual:                                                              

      10Ap     0.240932     4App    0.253332    11Ap     0.299826  
      12Ap     0.299832    13Ap     0.316113     5App    0.378292  
       6App    0.378298    14Ap     0.419362    15Ap     0.419372  
      16Ap     0.700441     7App    0.783614    17Ap     0.795703  
      18Ap     0.795725    19Ap     0.916539    20Ap     0.916553  
      21Ap     0.959036    22Ap     1.009982     8App    1.046822  
       9App    1.046884    10App    1.203409    23Ap     1.243039  
      24Ap     1.243050    25Ap     1.271191    11App    1.286354  
      12App    1.286403    26Ap     1.540406    27Ap     1.540413  

    Final Occupation by Irrep:
             Ap   App 
    DOCC [     9,    3 ]

  @DF-RHF Final Energy:  -117.00609560205847

   => Energetics <=

    Nuclear Repulsion Energy =             75.2814648090140253
    One-Electron Energy =                -305.4069393047872722
    Two-Electron Energy =                 113.1193788937147673
    Total Energy =                       -117.0060956020584655

Computation Completed


Properties will be evaluated at   0.000000,   0.000000,   0.000000 [a0]

Properties computed using the SCF density matrix

  Nuclear Dipole Moment: [e a0]
     X:    -0.0002      Y:    -0.0002      Z:     0.0000

  Electronic Dipole Moment: [e a0]
     X:     0.0001      Y:     0.0001      Z:     0.0000

  Dipole Moment: [e a0]
     X:    -0.0000      Y:    -0.0000      Z:     0.0000     Total:     0.0000

  Dipole Moment: [D]
     X:    -0.0001      Y:    -0.0001      Z:     0.0000     Total:     0.0001


*** tstop() called on atlantis at Tue Apr 19 21:57:08 2022
Module time:
	user time   =       0.43 seconds =       0.01 minutes
	system time =       0.01 seconds =       0.00 minutes
	total time  =          1 seconds =       0.02 minutes
Total time:
	user time   =       1.57 seconds =       0.03 minutes
	system time =       0.01 seconds =       0.00 minutes
	total time  =          2 seconds =       0.03 minutes

*** tstart() called on atlantis
*** at Tue Apr 19 21:57:08 2022


         ------------------------------------------------------------
                                   SCF HESS                          
                          Rob Parrish, Justin Turney,                
                       Andy Simmonett, and Alex Sokolov              
         ------------------------------------------------------------

  ==> Geometry <==

    Molecular point group: cs
    Full point group: Cs

    Geometry (in Angstrom), charge = 0, multiplicity = 1:

       Center              X                  Y                   Z               Mass       
    ------------   -----------------  -----------------  -----------------  -----------------
         C            0.321531939855     0.813261460475     0.000000000000    12.000000000000
         C           -0.865048060145    -0.128168539525     0.000000000000    12.000000000000
         C            0.543531939855    -0.685078539525     0.000000000000    12.000000000000
         H            0.537951939855     1.360691460475    -0.920390000000     1.007825032230
         H            0.537951939855     1.360691460475     0.920390000000     1.007825032230
         H           -1.447418060145    -0.214488539525     0.920340000000     1.007825032230
         H           -1.447418060145    -0.214488539525    -0.920340000000     1.007825032230
         H            0.909371939855    -1.146288539525    -0.920370000000     1.007825032230
         H            0.909371939855    -1.146288539525     0.920370000000     1.007825032230

  Nuclear repulsion =   75.281464809014025

  ==> Basis Set <==

  Basis Set: 6-31G
    Blend: 6-31G
    Number of shells: 27
    Number of basis function: 39
    Number of Cartesian functions: 39
    Spherical Harmonics?: false
    Max angular momentum: 1

  ==> DFJKGrad: Density-Fitted SCF Gradients <==

    Gradient:                    2
    J tasked:                  Yes
    K tasked:                  Yes
    wK tasked:                  No
    OpenMP threads:              1
    Integrals threads:           1
    Memory [MiB]:              375
    Schwarz Cutoff:          0E+00
    Fitting Condition:       1E-10

   => Auxiliary Basis Set <=

  Basis Set: (6-31G AUX)
    Blend: CC-PVDZ-JKFIT
    Number of shells: 126
    Number of basis function: 393
    Number of Cartesian functions: 393
    Spherical Harmonics?: false
    Max angular momentum: 3

  DFHelper Memory: AOs need 0.006 GiB; user supplied 0.439 GiB. Using in-core AOs.

  ==> MemDFJK: Density-Fitted J/K Matrices <==

    J tasked:                   Yes
    K tasked:                   Yes
    wK tasked:                   No
    OpenMP threads:               1
    Memory [MiB]:               450
    Algorithm:                 Core
    Schwarz Cutoff:           1E-12
    Mask sparsity (%):       0.0000
    Fitting Condition:        1E-10

   => Auxiliary Basis Set <=

  Basis Set: (6-31G AUX)
    Blend: CC-PVDZ-JKFIT
    Number of shells: 126
    Number of basis function: 393
    Number of Cartesian functions: 393
    Spherical Harmonics?: false
    Max angular momentum: 3


         ------------------------------------------------------------
                                     CPHF                           
                                  Rob Parrish                       
         ------------------------------------------------------------

  ==> Geometry <==

    Molecular point group: cs
    Full point group: Cs

    Geometry (in Angstrom), charge = 0, multiplicity = 1:

       Center              X                  Y                   Z               Mass       
    ------------   -----------------  -----------------  -----------------  -----------------
         C            0.321531939855     0.813261460475     0.000000000000    12.000000000000
         C           -0.865048060145    -0.128168539525     0.000000000000    12.000000000000
         C            0.543531939855    -0.685078539525     0.000000000000    12.000000000000
         H            0.537951939855     1.360691460475    -0.920390000000     1.007825032230
         H            0.537951939855     1.360691460475     0.920390000000     1.007825032230
         H           -1.447418060145    -0.214488539525     0.920340000000     1.007825032230
         H           -1.447418060145    -0.214488539525    -0.920340000000     1.007825032230
         H            0.909371939855    -1.146288539525    -0.920370000000     1.007825032230
         H            0.909371939855    -1.146288539525     0.920370000000     1.007825032230

  Nuclear repulsion =   75.281464809014025
  Reference energy  = -117.006095602058465

  ==> Basis Set <==

  Basis Set: 6-31G
    Blend: 6-31G
    Number of shells: 27
    Number of basis function: 39
    Number of Cartesian functions: 39
    Spherical Harmonics?: false
    Max angular momentum: 1

  ==> CGRSolver (by Rob Parrish) <==

   Number of roots    =        27
   Preconditioning    =    JACOBI
   Convergence cutoff =     1E-06
   Maximum iterations =       100

  ==> CPHFRHamiltonian (by Rob Parrish) <== 

  ==> MemDFJK: Density-Fitted J/K Matrices <==

    J tasked:                   Yes
    K tasked:                   Yes
    wK tasked:                   No
    OpenMP threads:               1
    Memory [MiB]:               450
    Algorithm:                 Core
    Schwarz Cutoff:           1E-12
    Mask sparsity (%):       0.0000
    Fitting Condition:        1E-10

   => Auxiliary Basis Set <=

  Basis Set: (6-31G AUX)
    Blend: CC-PVDZ-JKFIT
    Number of shells: 126
    Number of basis function: 393
    Number of Cartesian functions: 393
    Spherical Harmonics?: false
    Max angular momentum: 3

  ==> CPHF Iterations <==

  => Iterations <=

             Iter  Converged  Remaining    Residual
  CGR           1          0         27   1.180E-01
  CGR           2          0         27   1.915E-02
  CGR           3          0         27   2.775E-03
  CGR           4          0         27   1.004E-03
  CGR           5          0         27   2.715E-04
  CGR           6          0         27   6.333E-05
  CGR           7          3         24   1.150E-05
  CGR           8         12         15   1.845E-06
  CGR           9         27          0   2.914E-07

    CGRSolver converged.


*** tstop() called on atlantis at Tue Apr 19 21:59:37 2022
Module time:
	user time   =     148.96 seconds =       2.48 minutes
	system time =       0.03 seconds =       0.00 minutes
	total time  =        149 seconds =       2.48 minutes
Total time:
	user time   =     150.53 seconds =       2.51 minutes
	system time =       0.04 seconds =       0.00 minutes
	total time  =        151 seconds =       2.52 minutes


  ==> Harmonic Vibrational Analysis <==

  non-mass-weighted Hessian:       Symmetric? True   Hermitian? True   Lin Dep Dim?  0 (0)
  projection of translations (True) and rotations (True) removed 6 degrees of freedom (6)
  total projector:                 Symmetric? True   Hermitian? True   Lin Dep Dim?  6 (6)
  mass-weighted Hessian:           Symmetric? True   Hermitian? True   Lin Dep Dim?  0 (0)
  pre-proj  low-frequency mode:    0.0000i [cm^-1]
  pre-proj  low-frequency mode:    0.0000i [cm^-1]
  pre-proj  low-frequency mode:    0.0258  [cm^-1]
  pre-proj  low-frequency mode:  118.5296  [cm^-1]
  pre-proj  low-frequency mode:  219.8928  [cm^-1]
  pre-proj  low-frequency mode:  219.9055  [cm^-1]
  pre-proj  all modes:['0.0205i' '0.0110i' '0.0258' '118.5296' '219.8928' '219.9055' '929.4033'
 '929.4394' '934.8694' '934.8703' '1021.9421' '1267.9930' '1273.3552'
 '1273.3629' '1313.5313' '1328.7429' '1374.6989' '1374.7041' '1647.1541'
 '1647.1767' '1684.4182' '3125.9390' '3125.9576' '3142.0023' '3201.4668'
 '3201.4801' '3227.3882']
  projected mass-weighted Hessian: Symmetric? True   Hermitian? True   Lin Dep Dim?  6 (6)
  post-proj low-frequency mode:    0.0000i [cm^-1] (TR)
  post-proj low-frequency mode:    0.0000i [cm^-1] (TR)
  post-proj low-frequency mode:    0.0000  [cm^-1] (TR)
  post-proj low-frequency mode:    0.0000  [cm^-1] (TR)
  post-proj low-frequency mode:    0.0000  [cm^-1] (TR)
  post-proj low-frequency mode:    0.0000  [cm^-1] (TR)
  post-proj  all modes:['0.0000i' '0.0000i' '0.0000' '0.0000' '0.0000' '0.0000' '929.4033'
 '929.4394' '934.8532' '934.8540' '1021.9421' '1267.9930' '1273.3552'
 '1273.3629' '1313.5313' '1328.5569' '1373.4983' '1373.5034' '1647.1541'
 '1647.1767' '1684.4182' '3125.9390' '3125.9576' '3142.0023' '3201.4660'
 '3201.4793' '3227.3882']

  Vibration                       7                   8                   9           
  Freq [cm^-1]                 929.4033            929.4394            934.8532       
  Irrep                           Ap                  Ap                 App          
  Reduced mass [u]              4.0755              4.0757              1.0200        
  Force const [mDyne/A]         2.0742              2.0744              0.5252        
  Turning point v=0 [a0]        0.1783              0.1783              0.3553        
  RMS dev v=0 [a0 u^1/2]        0.2545              0.2545              0.2538        
  IR activ [km/mol]            30.0465             30.0370              0.0000        
  Char temp [K]               1337.2044           1337.2564           1345.0456       
  ----------------------------------------------------------------------------------
      1   C               -0.22  0.20 -0.00   -0.20 -0.24 -0.00   -0.00 -0.00  0.03   
      2   C                0.30  0.10 -0.00   -0.10  0.28  0.00   -0.00  0.00 -0.01   
      3   C               -0.05 -0.30  0.00    0.30 -0.07  0.00    0.00 -0.00 -0.01   
      4   H               -0.32  0.23 -0.01   -0.22 -0.19  0.03   -0.14 -0.28 -0.18   
      5   H               -0.32  0.23  0.01   -0.22 -0.19 -0.03    0.14  0.28 -0.18   
      6   H                0.25  0.11 -0.03   -0.11  0.39  0.01    0.20 -0.37  0.08   
      7   H                0.25  0.11  0.03   -0.11  0.39 -0.01   -0.20  0.37  0.08   
      8   H               -0.13 -0.33 -0.02    0.33  0.00 -0.02    0.40  0.10  0.10   
      9   H               -0.13 -0.33  0.02    0.33  0.00  0.02   -0.40 -0.10  0.10   

  Vibration                       10                  11                  12          
  Freq [cm^-1]                 934.8540           1021.9421           1267.9930       
  Irrep                          App                 App                  Ap          
  Reduced mass [u]              1.0200              1.0449              3.2350        
  Force const [mDyne/A]         0.5252              0.6429              3.0645        
  Turning point v=0 [a0]        0.3553              0.3358              0.1713        
  RMS dev v=0 [a0 u^1/2]        0.2538              0.2427              0.2179        
  IR activ [km/mol]             0.0000              0.0142              0.0000        
  Char temp [K]               1345.0467           1470.3471           1824.3596       
  ----------------------------------------------------------------------------------
      1   C                0.00 -0.00  0.00   -0.00 -0.00 -0.03   -0.10 -0.24  0.00   
      2   C               -0.00 -0.00 -0.02   -0.00  0.00 -0.03    0.26  0.04 -0.00   
      3   C                0.00  0.00  0.02    0.00 -0.00 -0.03   -0.16  0.20 -0.00   
      4   H                0.41 -0.18 -0.01    0.13  0.33  0.20   -0.13 -0.34 -0.03   
      5   H               -0.41  0.18 -0.01   -0.13 -0.33  0.20   -0.13 -0.34  0.03   
      6   H                0.25  0.24  0.16    0.35  0.05  0.20    0.36  0.05  0.03   
      7   H               -0.25 -0.24  0.16   -0.35 -0.05  0.20    0.36  0.05 -0.03   
      8   H                0.03  0.36 -0.15    0.22 -0.28  0.20   -0.23  0.28 -0.03   
      9   H               -0.03 -0.36 -0.15   -0.22  0.28  0.20   -0.23  0.28  0.03   

  Vibration                       13                  14                  15          
  Freq [cm^-1]                1273.3552           1273.3629           1313.5313       
  Irrep                           Ap                  Ap                 App          
  Reduced mass [u]              1.2262              1.2262              1.0078        
  Force const [mDyne/A]         1.1714              1.1715              1.0245        
  Turning point v=0 [a0]        0.2777              0.2777              0.3016        
  RMS dev v=0 [a0 u^1/2]        0.2174              0.2174              0.2141        
  IR activ [km/mol]            11.5125             11.5100              0.0000        
  Char temp [K]               1832.0746           1832.0857           1889.8792       
  ----------------------------------------------------------------------------------
      1   C               -0.06  0.04  0.00    0.09 -0.02  0.00   -0.00  0.00 -0.00   
      2   C                0.02 -0.04 -0.00    0.01 -0.10  0.00    0.00 -0.00 -0.00   
      3   C               -0.09 -0.07 -0.00   -0.02  0.01 -0.00    0.00  0.00  0.00   
      4   H                0.32 -0.13 -0.01   -0.43  0.16 -0.01   -0.38  0.15  0.00   
      5   H                0.32 -0.13  0.01   -0.43  0.16  0.01    0.38 -0.15  0.00   
      6   H               -0.04  0.22 -0.02   -0.07  0.52  0.01   -0.06  0.40  0.00   
      7   H               -0.04  0.22  0.02   -0.07  0.52 -0.01    0.06 -0.40  0.00   
      8   H                0.44  0.35 -0.00    0.06  0.04  0.02    0.32  0.25 -0.00   
      9   H                0.44  0.35  0.00    0.06  0.04 -0.02   -0.32 -0.25 -0.00   

  Vibration                       16                  17                  18          
  Freq [cm^-1]                1328.5569           1373.4983           1373.5034       
  Irrep                           Ap                 App                 App          
  Reduced mass [u]              1.4254              1.4571              1.4571        
  Force const [mDyne/A]         1.4824              1.6196              1.6196        
  Turning point v=0 [a0]        0.2521              0.2453              0.2453        
  RMS dev v=0 [a0 u^1/2]        0.2129              0.2094              0.2094        
  IR activ [km/mol]             0.0000              0.0000              0.0000        
  Char temp [K]               1911.4976           1976.1583           1976.1655       
  ----------------------------------------------------------------------------------
      1   C               -0.10  0.04  0.00    0.00  0.00  0.17   -0.00 -0.00 -0.00   
      2   C                0.02 -0.11 -0.00   -0.00  0.00 -0.08    0.00  0.00  0.14   
      3   C                0.09  0.07  0.00    0.00 -0.00 -0.08    0.00 -0.00 -0.14   
      4   H                0.37 -0.15 -0.00   -0.15 -0.38 -0.09    0.36 -0.14  0.00   
      5   H                0.37 -0.15  0.00    0.15  0.38 -0.09   -0.36  0.14  0.00   
      6   H               -0.06  0.40  0.00    0.15  0.36  0.04   -0.38  0.13 -0.08   
      7   H               -0.06  0.40 -0.00   -0.15 -0.36  0.04    0.38 -0.13 -0.08   
      8   H               -0.31 -0.25  0.00   -0.13 -0.37  0.05    0.37 -0.15  0.08   
      9   H               -0.31 -0.25 -0.00    0.13  0.37  0.05   -0.37  0.15  0.08   

  Vibration                       19                  20                  21          
  Freq [cm^-1]                1647.1541           1647.1767           1684.4182       
  Irrep                           Ap                  Ap                  Ap          
  Reduced mass [u]              1.0904              1.0904              1.2183        
  Force const [mDyne/A]         1.7430              1.7431              2.0366        
  Turning point v=0 [a0]        0.2589              0.2589              0.2422        
  RMS dev v=0 [a0 u^1/2]        0.1912              0.1912              0.1890        
  IR activ [km/mol]             1.7666              1.7676              0.0000        
  Char temp [K]               2369.8880           2369.9206           2423.5027       
  ----------------------------------------------------------------------------------
      1   C               -0.02 -0.06 -0.00   -0.02 -0.02  0.00    0.03  0.07 -0.00   
      2   C               -0.01 -0.01 -0.00   -0.07 -0.01  0.00   -0.08 -0.01  0.00   
      3   C                0.03 -0.05  0.00   -0.04  0.03 -0.00    0.05 -0.06  0.00   
      4   H                0.16  0.42  0.32    0.07  0.13  0.10   -0.12 -0.29 -0.25   
      5   H                0.16  0.42 -0.32    0.07  0.13 -0.10   -0.12 -0.29  0.25   
      6   H                0.09  0.03  0.07    0.45  0.06  0.32    0.31  0.05  0.25   
      7   H                0.09  0.03 -0.07    0.45  0.06 -0.32    0.31  0.05 -0.25   
      8   H               -0.21  0.28 -0.25    0.20 -0.24  0.22   -0.20  0.25 -0.25   
      9   H               -0.21  0.28  0.25    0.20 -0.24 -0.22   -0.20  0.25  0.25   

  Vibration                       22                  23                  24          
  Freq [cm^-1]                3125.9390           3125.9576           3142.0023       
  Irrep                           Ap                  Ap                  Ap          
  Reduced mass [u]              1.0511              1.0511              1.0663        
  Force const [mDyne/A]         6.0514              6.0515              6.2019        
  Turning point v=0 [a0]        0.1914              0.1914              0.1896        
  RMS dev v=0 [a0 u^1/2]        0.1388              0.1388              0.1384        
  IR activ [km/mol]            31.7293             31.7335              0.0000        
  Char temp [K]               4497.5303           4497.5570           4520.6417       
  ----------------------------------------------------------------------------------
      1   C                0.02  0.04 -0.00    0.01  0.02 -0.00    0.02  0.04 -0.00   
      2   C                0.01  0.00 -0.00    0.05  0.01 -0.00   -0.04 -0.01  0.00   
      3   C               -0.03  0.03 -0.00    0.02 -0.02  0.00    0.03 -0.03  0.00   
      4   H               -0.10 -0.26  0.45   -0.04 -0.11  0.18   -0.08 -0.20  0.35   
      5   H               -0.10 -0.26 -0.45   -0.04 -0.11 -0.18   -0.08 -0.20 -0.35   
      6   H               -0.04 -0.01  0.07   -0.30 -0.04  0.49    0.21  0.03 -0.35   
      7   H               -0.04 -0.01 -0.07   -0.30 -0.04 -0.49    0.21  0.03  0.35   
      8   H                0.15 -0.19 -0.39   -0.12  0.15  0.30   -0.13  0.17  0.35   
      9   H                0.15 -0.19  0.39   -0.12  0.15 -0.30   -0.13  0.17 -0.35   

  Vibration                       25                  26                  27          
  Freq [cm^-1]                3201.4660           3201.4793           3227.3882       
  Irrep                          App                 App                 App          
  Reduced mass [u]              1.1180              1.1180              1.1152        
  Force const [mDyne/A]         6.7513              6.7514              6.8438        
  Turning point v=0 [a0]        0.1834              0.1834              0.1829        
  RMS dev v=0 [a0 u^1/2]        0.1371              0.1371              0.1366        
  IR activ [km/mol]             0.0000              0.0000             53.7275        
  Char temp [K]               4606.1968           4606.2159           4643.4931       
  ----------------------------------------------------------------------------------
      1   C                0.00  0.00  0.02   -0.00 -0.00 -0.08   -0.00 -0.00 -0.06   
      2   C               -0.00 -0.00 -0.08    0.00  0.00  0.03   -0.00 -0.00 -0.06   
      3   C               -0.00  0.00  0.06   -0.00  0.00  0.05    0.00 -0.00 -0.06   
      4   H                0.02  0.06 -0.10   -0.11 -0.28  0.47   -0.08 -0.21  0.34   
      5   H               -0.02 -0.06 -0.10    0.11  0.28  0.47    0.08  0.21  0.34   
      6   H               -0.29 -0.05  0.46    0.10  0.01 -0.15   -0.22 -0.03  0.34   
      7   H                0.29  0.05  0.46   -0.10 -0.01 -0.15    0.22  0.03  0.34   
      8   H                0.14 -0.18 -0.36    0.13 -0.16 -0.32   -0.14  0.17  0.34   
      9   H               -0.14  0.18 -0.36   -0.13  0.16 -0.32    0.14 -0.17  0.34   

  ==> Thermochemistry Components <==

  Entropy, S
    Electronic S            0.000 [cal/(mol K)]        0.000 [J/(mol K)]       0.00000000 [mEh/K] (multiplicity = 1)
    Translational S        37.135 [cal/(mol K)]      155.375 [J/(mol K)]       0.05917914 [mEh/K] (mol. weight = 42.0470 [u], P = 101325.00 [Pa])
    Rotational S           21.699 [cal/(mol K)]       90.789 [J/(mol K)]       0.03457982 [mEh/K] (symmetry no. = 1)
    Vibrational S           0.777 [cal/(mol K)]        3.253 [J/(mol K)]       0.00123882 [mEh/K]
  Total S                  59.612 [cal/(mol K)]      249.417 [J/(mol K)]       0.09499778 [mEh/K]
  Correction S              0.000 [cal/(mol K)]        0.000 [J/(mol K)]       0.00000000 [mEh/K]

  Constant volume heat capacity, Cv
    Electronic Cv           0.000 [cal/(mol K)]        0.000 [J/(mol K)]       0.00000000 [mEh/K]
    Translational Cv        2.981 [cal/(mol K)]       12.472 [J/(mol K)]       0.00475022 [mEh/K]
    Rotational Cv           2.981 [cal/(mol K)]       12.472 [J/(mol K)]       0.00475022 [mEh/K]
    Vibrational Cv          3.308 [cal/(mol K)]       13.840 [J/(mol K)]       0.00527141 [mEh/K]
  Total Cv                  9.269 [cal/(mol K)]       38.783 [J/(mol K)]       0.01477184 [mEh/K]
  Correction Cv             0.000 [cal/(mol K)]        0.000 [J/(mol K)]       0.00000000 [mEh/K]

  Constant pressure heat capacity, Cp
    Electronic Cp           0.000 [cal/(mol K)]        0.000 [J/(mol K)]       0.00000000 [mEh/K]
    Translational Cp        4.968 [cal/(mol K)]       20.786 [J/(mol K)]       0.00791703 [mEh/K]
    Rotational Cp           2.981 [cal/(mol K)]       12.472 [J/(mol K)]       0.00475022 [mEh/K]
    Vibrational Cp          3.308 [cal/(mol K)]       13.840 [J/(mol K)]       0.00527141 [mEh/K]
  Total Cp                 11.257 [cal/(mol K)]       47.098 [J/(mol K)]       0.01793865 [mEh/K]
  Correction Cp             0.000 [cal/(mol K)]        0.000 [J/(mol K)]       0.00000000 [mEh/K]

  ==> Thermochemistry Energy Analysis <==

  Raw electronic energy, E0
  Total E0, Electronic energy at well bottom at 0 [K]                 -117.00609560 [Eh]

  Zero-point energy, ZPE_vib = Sum_i nu_i / 2
    Electronic ZPE          0.000 [kcal/mol]        0.000 [kJ/mol]       0.00000000 [Eh]
    Translational ZPE       0.000 [kcal/mol]        0.000 [kJ/mol]       0.00000000 [Eh]
    Rotational ZPE          0.000 [kcal/mol]        0.000 [kJ/mol]       0.00000000 [Eh]
    Vibrational ZPE        54.263 [kcal/mol]      227.035 [kJ/mol]       0.08647303 [Eh]       18978.637 [cm^-1]
  Correction ZPE           54.263 [kcal/mol]      227.035 [kJ/mol]       0.08647303 [Eh]       18978.637 [cm^-1]
  Total ZPE, Electronic energy at 0 [K]                               -116.91962257 [Eh]

  Thermal Energy, E (includes ZPE)
    Electronic E            0.000 [kcal/mol]        0.000 [kJ/mol]       0.00000000 [Eh]
    Translational E         0.889 [kcal/mol]        3.718 [kJ/mol]       0.00141628 [Eh]
    Rotational E            0.889 [kcal/mol]        3.718 [kJ/mol]       0.00141628 [Eh]
    Vibrational E          54.456 [kcal/mol]      227.842 [kJ/mol]       0.08678048 [Eh]
  Correction E             56.233 [kcal/mol]      235.279 [kJ/mol]       0.08961303 [Eh]
  Total E, Electronic energy at  298.15 [K]                           -116.91648257 [Eh]

  Enthalpy, H_trans = E_trans + k_B * T
    Electronic H            0.000 [kcal/mol]        0.000 [kJ/mol]       0.00000000 [Eh]
    Translational H         1.481 [kcal/mol]        6.197 [kJ/mol]       0.00236046 [Eh]
    Rotational H            0.889 [kcal/mol]        3.718 [kJ/mol]       0.00141628 [Eh]
    Vibrational H          54.456 [kcal/mol]      227.842 [kJ/mol]       0.08678048 [Eh]
  Correction H             56.826 [kcal/mol]      237.758 [kJ/mol]       0.09055721 [Eh]
  Total H, Enthalpy at  298.15 [K]                                    -116.91553839 [Eh]

  Gibbs free energy, G = H - T * S
    Electronic G            0.000 [kcal/mol]        0.000 [kJ/mol]       0.00000000 [Eh]
    Translational G        -9.591 [kcal/mol]      -40.128 [kJ/mol]      -0.01528380 [Eh]
    Rotational G           -5.581 [kcal/mol]      -23.350 [kJ/mol]      -0.00889370 [Eh]
    Vibrational G          54.224 [kcal/mol]      226.872 [kJ/mol]       0.08641112 [Eh]
  Correction G             39.052 [kcal/mol]      163.394 [kJ/mol]       0.06223363 [Eh]
  Total G, Free enthalpy at  298.15 [K]                               -116.94386198 [Eh]

    Psi4 stopped on: Tuesday, 19 April 2022 09:59PM
    Psi4 wall time for execution: 0:02:30.69

*** Psi4 exiting successfully. Buy a developer a beer!
