
    -----------------------------------------------------------------------
          Psi4: An Open-Source Ab Initio Electronic Structure Package
                               Psi4 1.3.2 release

                         Git: Rev {HEAD} ecbda83 


    R. M. Parrish, L. A. Burns, D. G. A. Smith, A. C. Simmonett,
    A. E. DePrince III, E. G. Hohenstein, U. Bozkaya, A. Yu. Sokolov,
    R. Di Remigio, R. M. Richard, J. F. Gonthier, A. M. James,
    H. R. McAlexander, A. Kumar, M. Saitow, X. Wang, B. P. Pritchard,
    P. Verma, H. F. Schaefer III, K. Patkowski, R. A. King, E. F. Valeev,
    F. A. Evangelista, J. M. Turney, T. D. Crawford, and C. D. Sherrill,
    J. Chem. Theory Comput. 13(7) pp 3185--3197 (2017).
    (doi: 10.1021/acs.jctc.7b00174)


                         Additional Contributions by
    P. Kraus, H. Kruse, M. H. Lechner, M. C. Schieber, R. A. Shaw,
    A. Alenaizan, R. Galvelis, Z. L. Glick, S. Lehtola, and J. P. Misiewicz

    -----------------------------------------------------------------------


    Psi4 started on: Tuesday, 19 April 2022 02:17AM

    Process ID: 26060
    Host:       atlantis
    PSIDATADIR: /home/akrom/software/anaconda3/envs/ffpenv/share/psi4
    Memory:     500.0 MiB
    Threads:    1
    
  ==> Input File <==

--------------------------------------------------------------------------
set basis  6-31++G**
molecule {
0 1
   C        0.32153        0.81326        0.00000
   C       -0.86505       -0.12817        0.00000
   C        0.54353       -0.68508        0.00000
   H        0.53795        1.36069       -0.92039
   H        0.53795        1.36069        0.92039
   H       -1.44742       -0.21449        0.92034
   H       -1.44742       -0.21449       -0.92034
   H        0.90937       -1.14629       -0.92037
   H        0.90937       -1.14629        0.92037
}
energy('MP2')
frequencies('MP2')
--------------------------------------------------------------------------
    SCF Algorithm Type (re)set to DF.

*** tstart() called on atlantis
*** at Tue Apr 19 02:17:14 2022

   => Loading Basis Set <=

    Name: 6-31++G**
    Role: ORBITAL
    Keyword: BASIS
    atoms 1-3 entry C          line   115 file /home/akrom/software/anaconda3/envs/ffpenv/share/psi4/basis/6-31ppgss.gbs 
    atoms 4-9 entry H          line    46 file /home/akrom/software/anaconda3/envs/ffpenv/share/psi4/basis/6-31ppgss.gbs 


         ---------------------------------------------------------
                                   SCF
               by Justin Turney, Rob Parrish, Andy Simmonett
                          and Daniel G. A. Smith
                              RHF Reference
                        1 Threads,    500 MiB Core
         ---------------------------------------------------------

  ==> Geometry <==

    Molecular point group: cs
    Full point group: Cs

    Geometry (in Angstrom), charge = 0, multiplicity = 1:

       Center              X                  Y                   Z               Mass       
    ------------   -----------------  -----------------  -----------------  -----------------
         C            0.321531939855     0.813261460475     0.000000000000    12.000000000000
         C           -0.865048060145    -0.128168539525     0.000000000000    12.000000000000
         C            0.543531939855    -0.685078539525     0.000000000000    12.000000000000
         H            0.537951939855     1.360691460475    -0.920390000000     1.007825032230
         H            0.537951939855     1.360691460475     0.920390000000     1.007825032230
         H           -1.447418060145    -0.214488539525     0.920340000000     1.007825032230
         H           -1.447418060145    -0.214488539525    -0.920340000000     1.007825032230
         H            0.909371939855    -1.146288539525    -0.920370000000     1.007825032230
         H            0.909371939855    -1.146288539525     0.920370000000     1.007825032230

  Running in cs symmetry.

  Rotational constants: A =      0.66472  B =      0.66470  C =      0.41647 [cm^-1]
  Rotational constants: A =  19927.70596  B =  19927.20236  C =  12485.44714 [MHz]
  Nuclear repulsion =   75.281464809014025

  Charge       = 0
  Multiplicity = 1
  Electrons    = 24
  Nalpha       = 12
  Nbeta        = 12

  ==> Algorithm <==

  SCF Algorithm Type is DF.
  DIIS enabled.
  MOM disabled.
  Fractional occupation disabled.
  Guess Type is SAD.
  Energy threshold   = 1.00e-08
  Density threshold  = 1.00e-08
  Integral threshold = 0.00e+00

  ==> Primary Basis <==

  Basis Set: 6-31++G**
    Blend: 6-31++G**
    Number of shells: 48
    Number of basis function: 93
    Number of Cartesian functions: 93
    Spherical Harmonics?: false
    Max angular momentum: 2

   => Loading Basis Set <=

    Name: (6-31++G** AUX)
    Role: JKFIT
    Keyword: DF_BASIS_SCF
    atoms 1-3 entry C          line   154 file /home/akrom/software/anaconda3/envs/ffpenv/share/psi4/basis/aug-cc-pvdz-jkfit.gbs 
    atoms 4-9 entry H          line    70 file /home/akrom/software/anaconda3/envs/ffpenv/share/psi4/basis/aug-cc-pvdz-jkfit.gbs 

  ==> Pre-Iterations <==

   -------------------------------------------------------
    Irrep   Nso     Nmo     Nalpha   Nbeta   Ndocc  Nsocc
   -------------------------------------------------------
     A'        60      60       0       0       0       0
     A"        33      33       0       0       0       0
   -------------------------------------------------------
    Total      93      93      12      12      12       0
   -------------------------------------------------------

  ==> Integral Setup <==

  DFHelper Memory: AOs need 0.037 GiB; user supplied 0.366 GiB. Using in-core AOs.

  ==> MemDFJK: Density-Fitted J/K Matrices <==

    J tasked:                   Yes
    K tasked:                   Yes
    wK tasked:                   No
    OpenMP threads:               1
    Memory [MiB]:               375
    Algorithm:                 Core
    Schwarz Cutoff:           1E-12
    Mask sparsity (%):       0.0000
    Fitting Condition:        1E-10

   => Auxiliary Basis Set <=

  Basis Set: (6-31++G** AUX)
    Blend: AUG-CC-PVDZ-JKFIT
    Number of shells: 156
    Number of basis function: 513
    Number of Cartesian functions: 513
    Spherical Harmonics?: false
    Max angular momentum: 3

  Minimum eigenvalue in the overlap matrix is 1.8844418511E-04.
  Using Symmetric Orthogonalization.

  SCF Guess: Superposition of Atomic Densities via on-the-fly atomic UHF.

  ==> Iterations <==

                           Total Energy        Delta E     RMS |[F,P]|

   @DF-RHF iter SAD:  -116.58940148888092   -1.16589e+02   0.00000e+00 
   @DF-RHF iter   1:  -116.94339380405253   -3.53992e-01   6.66089e-03 DIIS
   @DF-RHF iter   2:  -117.04243972355401   -9.90459e-02   3.30096e-03 DIIS
   @DF-RHF iter   3:  -117.06862067403840   -2.61810e-02   4.60687e-04 DIIS
   @DF-RHF iter   4:  -117.06962205209875   -1.00138e-03   5.61238e-05 DIIS
   @DF-RHF iter   5:  -117.06964429471779   -2.22426e-05   1.30595e-05 DIIS
   @DF-RHF iter   6:  -117.06964561211527   -1.31740e-06   2.15544e-06 DIIS
   @DF-RHF iter   7:  -117.06964564986502   -3.77498e-08   2.71249e-07 DIIS
   @DF-RHF iter   8:  -117.06964565039493   -5.29909e-10   3.60909e-08 DIIS
   @DF-RHF iter   9:  -117.06964565040306   -8.12861e-12   6.50345e-09 DIIS
  Energy and wave function converged.


  ==> Post-Iterations <==

    Orbital Energies [Eh]
    ---------------------

    Doubly Occupied:                                                      

       1Ap   -11.230429     2Ap   -11.229478     3Ap   -11.229473  
       4Ap    -1.126724     5Ap    -0.814650     6Ap    -0.814645  
       1App   -0.663332     7Ap    -0.622353     2App   -0.510433  
       3App   -0.510417     8Ap    -0.416682     9Ap    -0.416674  

    Virtual:                                                              

      10Ap     0.049980     4App    0.060595    11Ap     0.062033  
      12Ap     0.062033     5App    0.092154     6App    0.092158  
      13Ap     0.139175    14Ap     0.142760    15Ap     0.142762  
      16Ap     0.175313    17Ap     0.183395    18Ap     0.183400  
       7App    0.222601     8App    0.235007     9App    0.235014  
      19Ap     0.240320    20Ap     0.242044    21Ap     0.242045  
      10App    0.333410    22Ap     0.351562    23Ap     0.369243  
      24Ap     0.445115    25Ap     0.445127    11App    0.451843  
      12App    0.451867    26Ap     0.521414    27Ap     0.521422  
      28Ap     0.794525    29Ap     0.882015    30Ap     0.882032  
      13App    0.947412    31Ap     1.015491    32Ap     1.018306  
      33Ap     1.018310    14App    1.035087    15App    1.035115  
      34Ap     1.146338    16App    1.158017    35Ap     1.249010  
      17App    1.304422    18App    1.304465    36Ap     1.326256  
      37Ap     1.326272    38Ap     1.524658    39Ap     1.524668  
      40Ap     1.830005    19App    1.891019    20App    1.897023  
      21App    1.897038    41Ap     2.082831    42Ap     2.082867  
      22App    2.195089    43Ap     2.392449    23App    2.393551  
      24App    2.393612    25App    2.530180    44Ap     2.558633  
      45Ap     2.558676    46Ap     2.600118    47Ap     2.600176  
      26App    2.697600    27App    2.697622    48Ap     2.711611  
      49Ap     2.862455    50Ap     2.862471    51Ap     3.006789  
      28App    3.026623    29App    3.026628    30App    3.155168  
      52Ap     3.193914    53Ap     3.272887    54Ap     3.272946  
      55Ap     3.565900    31App    3.690029    56Ap     3.770128  
      57Ap     3.770187    32App    3.942264    33App    3.942292  
      58Ap     4.712418    59Ap     4.982771    60Ap     4.982771  

    Final Occupation by Irrep:
             Ap   App 
    DOCC [     9,    3 ]

  @DF-RHF Final Energy:  -117.06964565040306

   => Energetics <=

    Nuclear Repulsion Energy =             75.2814648090140253
    One-Electron Energy =                -305.5316423663969658
    Two-Electron Energy =                 113.1805319069798657
    Total Energy =                       -117.0696456504030607

Computation Completed


Properties will be evaluated at   0.000000,   0.000000,   0.000000 [a0]

Properties computed using the SCF density matrix

  Nuclear Dipole Moment: [e a0]
     X:    -0.0002      Y:    -0.0002      Z:     0.0000

  Electronic Dipole Moment: [e a0]
     X:     0.0001      Y:     0.0001      Z:     0.0000

  Dipole Moment: [e a0]
     X:    -0.0000      Y:    -0.0000      Z:     0.0000     Total:     0.0000

  Dipole Moment: [D]
     X:    -0.0001      Y:    -0.0001      Z:     0.0000     Total:     0.0001


*** tstop() called on atlantis at Tue Apr 19 02:17:14 2022
Module time:
	user time   =       0.74 seconds =       0.01 minutes
	system time =       0.04 seconds =       0.00 minutes
	total time  =          0 seconds =       0.00 minutes
Total time:
	user time   =       0.74 seconds =       0.01 minutes
	system time =       0.04 seconds =       0.00 minutes
	total time  =          0 seconds =       0.00 minutes

*** tstart() called on atlantis
*** at Tue Apr 19 02:17:14 2022


  //>>>>>>>>>>>>>>>>>>>>>>>>>>>>>>>>>>>//
  //               DFMP2               //
  //<<<<<<<<<<<<<<<<<<<<<<<<<<<<<<<<<<<//

   => Loading Basis Set <=

    Name: (6-31++G** AUX)
    Role: RIFIT
    Keyword: DF_BASIS_MP2
    atoms 1-3 entry C          line   112 file /home/akrom/software/anaconda3/envs/ffpenv/share/psi4/basis/aug-cc-pvdz-ri.gbs 
    atoms 4-9 entry H          line    30 file /home/akrom/software/anaconda3/envs/ffpenv/share/psi4/basis/aug-cc-pvdz-ri.gbs 

	 --------------------------------------------------------
	                          DF-MP2                         
	      2nd-Order Density-Fitted Moller-Plesset Theory     
	              RMP2 Wavefunction,   1 Threads             
	                                                         
	        Rob Parrish, Justin Turney, Andy Simmonett,      
	           Ed Hohenstein, and C. David Sherrill          
	 --------------------------------------------------------

   => Auxiliary Basis Set <=

  Basis Set: (6-31++G** AUX)
    Blend: AUG-CC-PVDZ-RI
    Number of shells: 120
    Number of basis function: 354
    Number of Cartesian functions: 408
    Spherical Harmonics?: true
    Max angular momentum: 3

	 --------------------------------------------------------
	                 NBF =    93, NAUX =   354
	 --------------------------------------------------------
	   CLASS    FOCC     OCC    AOCC    AVIR     VIR    FVIR
	   PAIRS       0      12      12      81      81       0
	 --------------------------------------------------------

	-----------------------------------------------------------
	 ==================> DF-MP2 Energies <==================== 
	-----------------------------------------------------------
	 Reference Energy          =    -117.0696456504030607 [Eh]
	 Singles Energy            =      -0.0000000000000000 [Eh]
	 Same-Spin Energy          =      -0.1017274217192784 [Eh]
	 Opposite-Spin Energy      =      -0.3470429315475467 [Eh]
	 Correlation Energy        =      -0.4487703532668251 [Eh]
	 Total Energy              =    -117.5184160036698842 [Eh]
	-----------------------------------------------------------
	 ================> DF-SCS-MP2 Energies <================== 
	-----------------------------------------------------------
	 SCS Same-Spin Scale       =       0.3333333333333333 [-]
	 SCS Opposite-Spin Scale   =       1.2000000000000000 [-]
	 SCS Same-Spin Energy      =      -0.0339091405730928 [Eh]
	 SCS Opposite-Spin Energy  =      -0.4164515178570561 [Eh]
	 SCS Correlation Energy    =      -0.4503606584301489 [Eh]
	 SCS Total Energy          =    -117.5200063088332030 [Eh]
	-----------------------------------------------------------


*** tstop() called on atlantis at Tue Apr 19 02:17:15 2022
Module time:
	user time   =       0.20 seconds =       0.00 minutes
	system time =       0.01 seconds =       0.00 minutes
	total time  =          1 seconds =       0.02 minutes
Total time:
	user time   =       0.94 seconds =       0.02 minutes
	system time =       0.05 seconds =       0.00 minutes
	total time  =          1 seconds =       0.02 minutes
gradient() will perform analytic gradient computation.
    SCF Algorithm Type (re)set to DF.

*** tstart() called on atlantis
*** at Tue Apr 19 02:17:15 2022

   => Loading Basis Set <=

    Name: 6-31++G**
    Role: ORBITAL
    Keyword: BASIS
    atoms 1-3 entry C          line   115 file /home/akrom/software/anaconda3/envs/ffpenv/share/psi4/basis/6-31ppgss.gbs 
    atoms 4-9 entry H          line    46 file /home/akrom/software/anaconda3/envs/ffpenv/share/psi4/basis/6-31ppgss.gbs 


         ---------------------------------------------------------
                                   SCF
               by Justin Turney, Rob Parrish, Andy Simmonett
                          and Daniel G. A. Smith
                              RHF Reference
                        1 Threads,    500 MiB Core
         ---------------------------------------------------------

  ==> Geometry <==

    Molecular point group: cs
    Full point group: Cs

    Geometry (in Angstrom), charge = 0, multiplicity = 1:

       Center              X                  Y                   Z               Mass       
    ------------   -----------------  -----------------  -----------------  -----------------
         C            0.321531939855     0.813261460475     0.000000000000    12.000000000000
         C           -0.865048060145    -0.128168539525     0.000000000000    12.000000000000
         C            0.543531939855    -0.685078539525     0.000000000000    12.000000000000
         H            0.537951939855     1.360691460475    -0.920390000000     1.007825032230
         H            0.537951939855     1.360691460475     0.920390000000     1.007825032230
         H           -1.447418060145    -0.214488539525     0.920340000000     1.007825032230
         H           -1.447418060145    -0.214488539525    -0.920340000000     1.007825032230
         H            0.909371939855    -1.146288539525    -0.920370000000     1.007825032230
         H            0.909371939855    -1.146288539525     0.920370000000     1.007825032230

  Running in cs symmetry.

  Rotational constants: A =      0.66472  B =      0.66470  C =      0.41647 [cm^-1]
  Rotational constants: A =  19927.70596  B =  19927.20236  C =  12485.44714 [MHz]
  Nuclear repulsion =   75.281464809014025

  Charge       = 0
  Multiplicity = 1
  Electrons    = 24
  Nalpha       = 12
  Nbeta        = 12

  ==> Algorithm <==

  SCF Algorithm Type is DF.
  DIIS enabled.
  MOM disabled.
  Fractional occupation disabled.
  Guess Type is SAD.
  Energy threshold   = 1.00e-10
  Density threshold  = 1.00e-10
  Integral threshold = 0.00e+00

  ==> Primary Basis <==

  Basis Set: 6-31++G**
    Blend: 6-31++G**
    Number of shells: 48
    Number of basis function: 93
    Number of Cartesian functions: 93
    Spherical Harmonics?: false
    Max angular momentum: 2

   => Loading Basis Set <=

    Name: (6-31++G** AUX)
    Role: JKFIT
    Keyword: DF_BASIS_SCF
    atoms 1-3 entry C          line   154 file /home/akrom/software/anaconda3/envs/ffpenv/share/psi4/basis/aug-cc-pvdz-jkfit.gbs 
    atoms 4-9 entry H          line    70 file /home/akrom/software/anaconda3/envs/ffpenv/share/psi4/basis/aug-cc-pvdz-jkfit.gbs 

  ==> Pre-Iterations <==

   -------------------------------------------------------
    Irrep   Nso     Nmo     Nalpha   Nbeta   Ndocc  Nsocc
   -------------------------------------------------------
     A'        60      60       0       0       0       0
     A"        33      33       0       0       0       0
   -------------------------------------------------------
    Total      93      93      12      12      12       0
   -------------------------------------------------------

  ==> Integral Setup <==

  DFHelper Memory: AOs need 0.037 GiB; user supplied 0.366 GiB. Using in-core AOs.

  ==> MemDFJK: Density-Fitted J/K Matrices <==

    J tasked:                   Yes
    K tasked:                   Yes
    wK tasked:                   No
    OpenMP threads:               1
    Memory [MiB]:               375
    Algorithm:                 Core
    Schwarz Cutoff:           1E-12
    Mask sparsity (%):       0.0000
    Fitting Condition:        1E-10

   => Auxiliary Basis Set <=

  Basis Set: (6-31++G** AUX)
    Blend: AUG-CC-PVDZ-JKFIT
    Number of shells: 156
    Number of basis function: 513
    Number of Cartesian functions: 513
    Spherical Harmonics?: false
    Max angular momentum: 3

  Minimum eigenvalue in the overlap matrix is 1.8844418511E-04.
  Using Symmetric Orthogonalization.

  SCF Guess: Superposition of Atomic Densities via on-the-fly atomic UHF.

  ==> Iterations <==

                           Total Energy        Delta E     RMS |[F,P]|

   @DF-RHF iter SAD:  -116.58940148890953   -1.16589e+02   0.00000e+00 
   @DF-RHF iter   1:  -116.94339380408692   -3.53992e-01   6.66089e-03 DIIS
   @DF-RHF iter   2:  -117.04243972358670   -9.90459e-02   3.30096e-03 DIIS
   @DF-RHF iter   3:  -117.06862067407124   -2.61810e-02   4.60687e-04 DIIS
   @DF-RHF iter   4:  -117.06962205213085   -1.00138e-03   5.61238e-05 DIIS
   @DF-RHF iter   5:  -117.06964429475025   -2.22426e-05   1.30595e-05 DIIS
   @DF-RHF iter   6:  -117.06964561214781   -1.31740e-06   2.15544e-06 DIIS
   @DF-RHF iter   7:  -117.06964564989785   -3.77500e-08   2.71249e-07 DIIS
   @DF-RHF iter   8:  -117.06964565042783   -5.29980e-10   3.60909e-08 DIIS
   @DF-RHF iter   9:  -117.06964565043553   -7.70228e-12   6.50345e-09 DIIS
   @DF-RHF iter  10:  -117.06964565043562   -8.52651e-14   1.08187e-09 DIIS
   @DF-RHF iter  11:  -117.06964565043597   -3.55271e-13   3.91191e-10 DIIS
   @DF-RHF iter  12:  -117.06964565043563    3.41061e-13   2.47398e-11 DIIS
  Energy and wave function converged.


  ==> Post-Iterations <==

    Orbital Energies [Eh]
    ---------------------

    Doubly Occupied:                                                      

       1Ap   -11.230429     2Ap   -11.229477     3Ap   -11.229473  
       4Ap    -1.126724     5Ap    -0.814650     6Ap    -0.814645  
       1App   -0.663332     7Ap    -0.622353     2App   -0.510433  
       3App   -0.510417     8Ap    -0.416682     9Ap    -0.416674  

    Virtual:                                                              

      10Ap     0.049980     4App    0.060595    11Ap     0.062033  
      12Ap     0.062033     5App    0.092154     6App    0.092158  
      13Ap     0.139175    14Ap     0.142760    15Ap     0.142762  
      16Ap     0.175313    17Ap     0.183395    18Ap     0.183400  
       7App    0.222601     8App    0.235007     9App    0.235014  
      19Ap     0.240320    20Ap     0.242044    21Ap     0.242045  
      10App    0.333410    22Ap     0.351562    23Ap     0.369243  
      24Ap     0.445115    25Ap     0.445127    11App    0.451843  
      12App    0.451867    26Ap     0.521414    27Ap     0.521422  
      28Ap     0.794525    29Ap     0.882015    30Ap     0.882032  
      13App    0.947412    31Ap     1.015491    32Ap     1.018306  
      33Ap     1.018310    14App    1.035087    15App    1.035115  
      34Ap     1.146338    16App    1.158017    35Ap     1.249010  
      17App    1.304422    18App    1.304465    36Ap     1.326256  
      37Ap     1.326272    38Ap     1.524658    39Ap     1.524668  
      40Ap     1.830005    19App    1.891019    20App    1.897023  
      21App    1.897038    41Ap     2.082831    42Ap     2.082867  
      22App    2.195089    43Ap     2.392449    23App    2.393551  
      24App    2.393612    25App    2.530180    44Ap     2.558633  
      45Ap     2.558676    46Ap     2.600118    47Ap     2.600176  
      26App    2.697600    27App    2.697622    48Ap     2.711611  
      49Ap     2.862455    50Ap     2.862471    51Ap     3.006789  
      28App    3.026623    29App    3.026628    30App    3.155168  
      52Ap     3.193914    53Ap     3.272887    54Ap     3.272946  
      55Ap     3.565900    31App    3.690029    56Ap     3.770128  
      57Ap     3.770187    32App    3.942264    33App    3.942292  
      58Ap     4.712418    59Ap     4.982771    60Ap     4.982771  

    Final Occupation by Irrep:
             Ap   App 
    DOCC [     9,    3 ]

  @DF-RHF Final Energy:  -117.06964565043563

   => Energetics <=

    Nuclear Repulsion Energy =             75.2814648090140253
    One-Electron Energy =                -305.5316431302643991
    Two-Electron Energy =                 113.1805326708147277
    Total Energy =                       -117.0696456504356320

Computation Completed


Properties will be evaluated at   0.000000,   0.000000,   0.000000 [a0]

Properties computed using the SCF density matrix

  Nuclear Dipole Moment: [e a0]
     X:    -0.0002      Y:    -0.0002      Z:     0.0000

  Electronic Dipole Moment: [e a0]
     X:     0.0001      Y:     0.0001      Z:     0.0000

  Dipole Moment: [e a0]
     X:    -0.0000      Y:    -0.0000      Z:     0.0000     Total:     0.0000

  Dipole Moment: [D]
     X:    -0.0001      Y:    -0.0001      Z:     0.0000     Total:     0.0001


*** tstop() called on atlantis at Tue Apr 19 02:17:15 2022
Module time:
	user time   =       0.77 seconds =       0.01 minutes
	system time =       0.02 seconds =       0.00 minutes
	total time  =          0 seconds =       0.00 minutes
Total time:
	user time   =       1.71 seconds =       0.03 minutes
	system time =       0.07 seconds =       0.00 minutes
	total time  =          1 seconds =       0.02 minutes

*** tstart() called on atlantis
*** at Tue Apr 19 02:17:15 2022


  //>>>>>>>>>>>>>>>>>>>>>>>>>>>>>>>>>>>//
  //               DFMP2               //
  //<<<<<<<<<<<<<<<<<<<<<<<<<<<<<<<<<<<//

   => Loading Basis Set <=

    Name: (6-31++G** AUX)
    Role: RIFIT
    Keyword: DF_BASIS_MP2
    atoms 1-3 entry C          line   112 file /home/akrom/software/anaconda3/envs/ffpenv/share/psi4/basis/aug-cc-pvdz-ri.gbs 
    atoms 4-9 entry H          line    30 file /home/akrom/software/anaconda3/envs/ffpenv/share/psi4/basis/aug-cc-pvdz-ri.gbs 

	 --------------------------------------------------------
	                          DF-MP2                         
	      2nd-Order Density-Fitted Moller-Plesset Theory     
	              RMP2 Wavefunction,   1 Threads             
	                                                         
	        Rob Parrish, Justin Turney, Andy Simmonett,      
	           Ed Hohenstein, and C. David Sherrill          
	 --------------------------------------------------------

   => Auxiliary Basis Set <=

  Basis Set: (6-31++G** AUX)
    Blend: AUG-CC-PVDZ-RI
    Number of shells: 120
    Number of basis function: 354
    Number of Cartesian functions: 408
    Spherical Harmonics?: true
    Max angular momentum: 3

	 --------------------------------------------------------
	                 NBF =    93, NAUX =   354
	 --------------------------------------------------------
	   CLASS    FOCC     OCC    AOCC    AVIR     VIR    FVIR
	   PAIRS       0      12      12      81      81       0
	 --------------------------------------------------------

  DFHelper Memory: AOs need 0.037 GiB; user supplied 0.366 GiB. Using in-core AOs.


         ------------------------------------------------------------
                                     CPHF                           
                                  Rob Parrish                       
         ------------------------------------------------------------

  ==> Geometry <==

    Molecular point group: cs
    Full point group: Cs

    Geometry (in Angstrom), charge = 0, multiplicity = 1:

       Center              X                  Y                   Z               Mass       
    ------------   -----------------  -----------------  -----------------  -----------------
         C            0.321531939855     0.813261460475     0.000000000000    12.000000000000
         C           -0.865048060145    -0.128168539525     0.000000000000    12.000000000000
         C            0.543531939855    -0.685078539525     0.000000000000    12.000000000000
         H            0.537951939855     1.360691460475    -0.920390000000     1.007825032230
         H            0.537951939855     1.360691460475     0.920390000000     1.007825032230
         H           -1.447418060145    -0.214488539525     0.920340000000     1.007825032230
         H           -1.447418060145    -0.214488539525    -0.920340000000     1.007825032230
         H            0.909371939855    -1.146288539525    -0.920370000000     1.007825032230
         H            0.909371939855    -1.146288539525     0.920370000000     1.007825032230

  Nuclear repulsion =   75.281464809014025
  Reference energy  = -117.069645650435632

  ==> Basis Set <==

  Basis Set: 6-31++G**
    Blend: 6-31++G**
    Number of shells: 48
    Number of basis function: 93
    Number of Cartesian functions: 93
    Spherical Harmonics?: false
    Max angular momentum: 2

  ==> CGRSolver (by Rob Parrish) <==

   Number of roots    =         1
   Preconditioning    =    JACOBI
   Convergence cutoff =     1E-06
   Maximum iterations =       100

  ==> CPHFRHamiltonian (by Rob Parrish) <== 

  ==> MemDFJK: Density-Fitted J/K Matrices <==

    J tasked:                   Yes
    K tasked:                   Yes
    wK tasked:                   No
    OpenMP threads:               1
    Memory [MiB]:               375
    Algorithm:                 Core
    Schwarz Cutoff:           1E-12
    Mask sparsity (%):       0.0000
    Fitting Condition:        1E-10

   => Auxiliary Basis Set <=

  Basis Set: (6-31++G** AUX)
    Blend: AUG-CC-PVDZ-JKFIT
    Number of shells: 156
    Number of basis function: 513
    Number of Cartesian functions: 513
    Spherical Harmonics?: false
    Max angular momentum: 3

  ==> CPHF Iterations <==

  => Iterations <=

             Iter  Converged  Remaining    Residual
  CGR           1          0          1   7.509E-02
  CGR           2          0          1   1.205E-02
  CGR           3          0          1   2.445E-03
  CGR           4          0          1   3.869E-04
  CGR           5          0          1   4.510E-05
  CGR           6          0          1   5.383E-06
  CGR           7          1          0   5.456E-07

    CGRSolver converged.

  ==> DFCorrGrad: Density-Fitted Correlated Gradients <==

    OpenMP threads:              1
    Integrals threads:           1
    Memory [GiB]:            0.366
    Schwarz Cutoff:          0E+00
    Fitting Condition:       1E-10

   => Auxiliary Basis Set <=

  Basis Set: (6-31++G** AUX)
    Blend: AUG-CC-PVDZ-JKFIT
    Number of shells: 156
    Number of basis function: 513
    Number of Cartesian functions: 513
    Spherical Harmonics?: false
    Max angular momentum: 3

	-----------------------------------------------------------
	 ==================> DF-MP2 Energies <==================== 
	-----------------------------------------------------------
	 Reference Energy          =    -117.0696456504356320 [Eh]
	 Singles Energy            =      -0.0000000000000000 [Eh]
	 Same-Spin Energy          =      -0.1017274215711977 [Eh]
	 Opposite-Spin Energy      =      -0.3470429300675010 [Eh]
	 Correlation Energy        =      -0.4487703516386987 [Eh]
	 Total Energy              =    -117.5184160020743320 [Eh]
	-----------------------------------------------------------
	 ================> DF-SCS-MP2 Energies <================== 
	-----------------------------------------------------------
	 SCS Same-Spin Scale       =       0.3333333333333333 [-]
	 SCS Opposite-Spin Scale   =       1.2000000000000000 [-]
	 SCS Same-Spin Energy      =      -0.0339091405237325 [Eh]
	 SCS Opposite-Spin Energy  =      -0.4164515160810012 [Eh]
	 SCS Correlation Energy    =      -0.4503606566047338 [Eh]
	 SCS Total Energy          =    -117.5200063070403615 [Eh]
	-----------------------------------------------------------


  -Total Gradient:
     Atom            X                  Y                   Z
    ------   -----------------  -----------------  -----------------
       1        0.000203048489     0.000514942304     0.000000000000
       2       -0.000521542122    -0.000073753415     0.000000000000
       3        0.000341957592    -0.000420836341     0.000000000000
       4        0.001757976742     0.004450103654    -0.007632597239
       5        0.001757976742     0.004450103654     0.007632597239
       6       -0.004742015919    -0.000705495636     0.007622691908
       7       -0.004742015919    -0.000705495636    -0.007622691908
       8        0.002972307198    -0.003754784292    -0.007628791909
       9        0.002972307198    -0.003754784292     0.007628791909


*** tstop() called on atlantis at Tue Apr 19 02:17:18 2022
Module time:
	user time   =       2.00 seconds =       0.03 minutes
	system time =       0.06 seconds =       0.00 minutes
	total time  =          3 seconds =       0.05 minutes
Total time:
	user time   =       3.71 seconds =       0.06 minutes
	system time =       0.13 seconds =       0.00 minutes
	total time  =          4 seconds =       0.07 minutes

  Based on options and gradient (rms=4.25E-03), recommend projecting translations and projecting rotations.
hessian() will perform frequency computation by finite difference of analytic gradients.

         ----------------------------------------------------------
                                   FINDIF
                     R. A. King and Jonathon Misiewicz
         ---------------------------------------------------------

  Using finite-differences of gradients to determine vibrational frequencies and 
  normal modes.  Resulting frequencies are only valid at stationary points.
    Generating geometries for use with 3-point formula.
    Displacement size will be 5.00e-03.
    Number of atoms is 9.
    Number of irreps is 2.
    Number of SALCs is 21.
    Translations projected? 1. Rotations projected? 1.
    Index of SALCs per irrep:
     1 :  0  1  2  3  4  5  6  7  8  9  10  11 
     2 :  12  13  14  15  16  17  18  19  20 
    Number of SALCs per irrep:
     Irrep 1: 12
     Irrep 2: 9
    Number of geometries (including reference) is 34.
    Number of displacements per irrep:
      Irrep 1: 24
      Irrep 2: 9

  //>>>>>>>>>>>>>>>>>>>>>>>>>>>>>>>>>>>//
  //    Loading displacement 1 of 34   //
  //<<<<<<<<<<<<<<<<<<<<<<<<<<<<<<<<<<<//
gradient() will perform analytic gradient computation.
    SCF Algorithm Type (re)set to DF.

*** tstart() called on atlantis
*** at Tue Apr 19 02:17:18 2022

   => Loading Basis Set <=

    Name: 6-31++G**
    Role: ORBITAL
    Keyword: BASIS
    atoms 1-3 entry C          line   115 file /home/akrom/software/anaconda3/envs/ffpenv/share/psi4/basis/6-31ppgss.gbs 
    atoms 4-9 entry H          line    46 file /home/akrom/software/anaconda3/envs/ffpenv/share/psi4/basis/6-31ppgss.gbs 


         ---------------------------------------------------------
                                   SCF
               by Justin Turney, Rob Parrish, Andy Simmonett
                          and Daniel G. A. Smith
                              RHF Reference
                        1 Threads,    500 MiB Core
         ---------------------------------------------------------

  ==> Geometry <==

    Molecular point group: cs
    Full point group: Cs

    Geometry (in Angstrom), charge = 0, multiplicity = 1:

       Center              X                  Y                   Z               Mass       
    ------------   -----------------  -----------------  -----------------  -----------------
         C            0.321531939855     0.813261460475     0.000000000000    12.000000000000
         C           -0.865048060145    -0.128168539525     0.000000000000    12.000000000000
         C            0.543531939855    -0.685078539525     0.000000000000    12.000000000000
         H            0.537951939855     1.360691460475    -0.920390000000     1.007825032230
         H            0.537951939855     1.360691460475     0.920390000000     1.007825032230
         H           -1.447418060145    -0.214488539525     0.920340000000     1.007825032230
         H           -1.447418060145    -0.214488539525    -0.920340000000     1.007825032230
         H            0.909371939855    -1.146288539525    -0.920370000000     1.007825032230
         H            0.909371939855    -1.146288539525     0.920370000000     1.007825032230

  Running in cs symmetry.

  Rotational constants: A =      0.66472  B =      0.66470  C =      0.41647 [cm^-1]
  Rotational constants: A =  19927.70596  B =  19927.20236  C =  12485.44714 [MHz]
  Nuclear repulsion =   75.281464809014025

  Charge       = 0
  Multiplicity = 1
  Electrons    = 24
  Nalpha       = 12
  Nbeta        = 12

  ==> Algorithm <==

  SCF Algorithm Type is DF.
  DIIS enabled.
  MOM disabled.
  Fractional occupation disabled.
  Guess Type is SAD.
  Energy threshold   = 1.00e-10
  Density threshold  = 1.00e-10
  Integral threshold = 0.00e+00

  ==> Primary Basis <==

  Basis Set: 6-31++G**
    Blend: 6-31++G**
    Number of shells: 48
    Number of basis function: 93
    Number of Cartesian functions: 93
    Spherical Harmonics?: false
    Max angular momentum: 2

   => Loading Basis Set <=

    Name: (6-31++G** AUX)
    Role: JKFIT
    Keyword: DF_BASIS_SCF
    atoms 1-3 entry C          line   154 file /home/akrom/software/anaconda3/envs/ffpenv/share/psi4/basis/aug-cc-pvdz-jkfit.gbs 
    atoms 4-9 entry H          line    70 file /home/akrom/software/anaconda3/envs/ffpenv/share/psi4/basis/aug-cc-pvdz-jkfit.gbs 

  ==> Pre-Iterations <==

   -------------------------------------------------------
    Irrep   Nso     Nmo     Nalpha   Nbeta   Ndocc  Nsocc
   -------------------------------------------------------
     A'        60      60       0       0       0       0
     A"        33      33       0       0       0       0
   -------------------------------------------------------
    Total      93      93      12      12      12       0
   -------------------------------------------------------

  ==> Integral Setup <==

  DFHelper Memory: AOs need 0.037 GiB; user supplied 0.366 GiB. Using in-core AOs.

  ==> MemDFJK: Density-Fitted J/K Matrices <==

    J tasked:                   Yes
    K tasked:                   Yes
    wK tasked:                   No
    OpenMP threads:               1
    Memory [MiB]:               375
    Algorithm:                 Core
    Schwarz Cutoff:           1E-12
    Mask sparsity (%):       0.0000
    Fitting Condition:        1E-10

   => Auxiliary Basis Set <=

  Basis Set: (6-31++G** AUX)
    Blend: AUG-CC-PVDZ-JKFIT
    Number of shells: 156
    Number of basis function: 513
    Number of Cartesian functions: 513
    Spherical Harmonics?: false
    Max angular momentum: 3

  Minimum eigenvalue in the overlap matrix is 1.8844418511E-04.
  Using Symmetric Orthogonalization.

  SCF Guess: Superposition of Atomic Densities via on-the-fly atomic UHF.

  ==> Iterations <==

                           Total Energy        Delta E     RMS |[F,P]|

   @DF-RHF iter SAD:  -116.58940148890953   -1.16589e+02   0.00000e+00 
   @DF-RHF iter   1:  -116.94339380408692   -3.53992e-01   6.66089e-03 DIIS
   @DF-RHF iter   2:  -117.04243972358670   -9.90459e-02   3.30096e-03 DIIS
   @DF-RHF iter   3:  -117.06862067407124   -2.61810e-02   4.60687e-04 DIIS
   @DF-RHF iter   4:  -117.06962205213085   -1.00138e-03   5.61238e-05 DIIS
   @DF-RHF iter   5:  -117.06964429475025   -2.22426e-05   1.30595e-05 DIIS
   @DF-RHF iter   6:  -117.06964561214781   -1.31740e-06   2.15544e-06 DIIS
   @DF-RHF iter   7:  -117.06964564989785   -3.77500e-08   2.71249e-07 DIIS
   @DF-RHF iter   8:  -117.06964565042783   -5.29980e-10   3.60909e-08 DIIS
   @DF-RHF iter   9:  -117.06964565043553   -7.70228e-12   6.50345e-09 DIIS
   @DF-RHF iter  10:  -117.06964565043562   -8.52651e-14   1.08187e-09 DIIS
   @DF-RHF iter  11:  -117.06964565043597   -3.55271e-13   3.91191e-10 DIIS
   @DF-RHF iter  12:  -117.06964565043563    3.41061e-13   2.47398e-11 DIIS
  Energy and wave function converged.


  ==> Post-Iterations <==

    Orbital Energies [Eh]
    ---------------------

    Doubly Occupied:                                                      

       1Ap   -11.230429     2Ap   -11.229477     3Ap   -11.229473  
       4Ap    -1.126724     5Ap    -0.814650     6Ap    -0.814645  
       1App   -0.663332     7Ap    -0.622353     2App   -0.510433  
       3App   -0.510417     8Ap    -0.416682     9Ap    -0.416674  

    Virtual:                                                              

      10Ap     0.049980     4App    0.060595    11Ap     0.062033  
      12Ap     0.062033     5App    0.092154     6App    0.092158  
      13Ap     0.139175    14Ap     0.142760    15Ap     0.142762  
      16Ap     0.175313    17Ap     0.183395    18Ap     0.183400  
       7App    0.222601     8App    0.235007     9App    0.235014  
      19Ap     0.240320    20Ap     0.242044    21Ap     0.242045  
      10App    0.333410    22Ap     0.351562    23Ap     0.369243  
      24Ap     0.445115    25Ap     0.445127    11App    0.451843  
      12App    0.451867    26Ap     0.521414    27Ap     0.521422  
      28Ap     0.794525    29Ap     0.882015    30Ap     0.882032  
      13App    0.947412    31Ap     1.015491    32Ap     1.018306  
      33Ap     1.018310    14App    1.035087    15App    1.035115  
      34Ap     1.146338    16App    1.158017    35Ap     1.249010  
      17App    1.304422    18App    1.304465    36Ap     1.326256  
      37Ap     1.326272    38Ap     1.524658    39Ap     1.524668  
      40Ap     1.830005    19App    1.891019    20App    1.897023  
      21App    1.897038    41Ap     2.082831    42Ap     2.082867  
      22App    2.195089    43Ap     2.392449    23App    2.393551  
      24App    2.393612    25App    2.530180    44Ap     2.558633  
      45Ap     2.558676    46Ap     2.600118    47Ap     2.600176  
      26App    2.697600    27App    2.697622    48Ap     2.711611  
      49Ap     2.862455    50Ap     2.862471    51Ap     3.006789  
      28App    3.026623    29App    3.026628    30App    3.155168  
      52Ap     3.193914    53Ap     3.272887    54Ap     3.272946  
      55Ap     3.565900    31App    3.690029    56Ap     3.770128  
      57Ap     3.770187    32App    3.942264    33App    3.942292  
      58Ap     4.712418    59Ap     4.982771    60Ap     4.982771  

    Final Occupation by Irrep:
             Ap   App 
    DOCC [     9,    3 ]

  @DF-RHF Final Energy:  -117.06964565043563

   => Energetics <=

    Nuclear Repulsion Energy =             75.2814648090140253
    One-Electron Energy =                -305.5316431302643991
    Two-Electron Energy =                 113.1805326708147277
    Total Energy =                       -117.0696456504356320

Computation Completed


Properties will be evaluated at   0.000000,   0.000000,   0.000000 [a0]

Properties computed using the SCF density matrix

  Nuclear Dipole Moment: [e a0]
     X:    -0.0002      Y:    -0.0002      Z:     0.0000

  Electronic Dipole Moment: [e a0]
     X:     0.0001      Y:     0.0001      Z:     0.0000

  Dipole Moment: [e a0]
     X:    -0.0000      Y:    -0.0000      Z:     0.0000     Total:     0.0000

  Dipole Moment: [D]
     X:    -0.0001      Y:    -0.0001      Z:     0.0000     Total:     0.0001


*** tstop() called on atlantis at Tue Apr 19 02:17:19 2022
Module time:
	user time   =       0.78 seconds =       0.01 minutes
	system time =       0.02 seconds =       0.00 minutes
	total time  =          1 seconds =       0.02 minutes
Total time:
	user time   =       4.75 seconds =       0.08 minutes
	system time =       0.17 seconds =       0.00 minutes
	total time  =          5 seconds =       0.08 minutes

*** tstart() called on atlantis
*** at Tue Apr 19 02:17:19 2022


  //>>>>>>>>>>>>>>>>>>>>>>>>>>>>>>>>>>>//
  //               DFMP2               //
  //<<<<<<<<<<<<<<<<<<<<<<<<<<<<<<<<<<<//

   => Loading Basis Set <=

    Name: (6-31++G** AUX)
    Role: RIFIT
    Keyword: DF_BASIS_MP2
    atoms 1-3 entry C          line   112 file /home/akrom/software/anaconda3/envs/ffpenv/share/psi4/basis/aug-cc-pvdz-ri.gbs 
    atoms 4-9 entry H          line    30 file /home/akrom/software/anaconda3/envs/ffpenv/share/psi4/basis/aug-cc-pvdz-ri.gbs 

	 --------------------------------------------------------
	                          DF-MP2                         
	      2nd-Order Density-Fitted Moller-Plesset Theory     
	              RMP2 Wavefunction,   1 Threads             
	                                                         
	        Rob Parrish, Justin Turney, Andy Simmonett,      
	           Ed Hohenstein, and C. David Sherrill          
	 --------------------------------------------------------

   => Auxiliary Basis Set <=

  Basis Set: (6-31++G** AUX)
    Blend: AUG-CC-PVDZ-RI
    Number of shells: 120
    Number of basis function: 354
    Number of Cartesian functions: 408
    Spherical Harmonics?: true
    Max angular momentum: 3

	 --------------------------------------------------------
	                 NBF =    93, NAUX =   354
	 --------------------------------------------------------
	   CLASS    FOCC     OCC    AOCC    AVIR     VIR    FVIR
	   PAIRS       0      12      12      81      81       0
	 --------------------------------------------------------

  DFHelper Memory: AOs need 0.037 GiB; user supplied 0.366 GiB. Using in-core AOs.


         ------------------------------------------------------------
                                     CPHF                           
                                  Rob Parrish                       
         ------------------------------------------------------------

  ==> Geometry <==

    Molecular point group: cs
    Full point group: Cs

    Geometry (in Angstrom), charge = 0, multiplicity = 1:

       Center              X                  Y                   Z               Mass       
    ------------   -----------------  -----------------  -----------------  -----------------
         C            0.321531939855     0.813261460475     0.000000000000    12.000000000000
         C           -0.865048060145    -0.128168539525     0.000000000000    12.000000000000
         C            0.543531939855    -0.685078539525     0.000000000000    12.000000000000
         H            0.537951939855     1.360691460475    -0.920390000000     1.007825032230
         H            0.537951939855     1.360691460475     0.920390000000     1.007825032230
         H           -1.447418060145    -0.214488539525     0.920340000000     1.007825032230
         H           -1.447418060145    -0.214488539525    -0.920340000000     1.007825032230
         H            0.909371939855    -1.146288539525    -0.920370000000     1.007825032230
         H            0.909371939855    -1.146288539525     0.920370000000     1.007825032230

  Nuclear repulsion =   75.281464809014025
  Reference energy  = -117.069645650435632

  ==> Basis Set <==

  Basis Set: 6-31++G**
    Blend: 6-31++G**
    Number of shells: 48
    Number of basis function: 93
    Number of Cartesian functions: 93
    Spherical Harmonics?: false
    Max angular momentum: 2

  ==> CGRSolver (by Rob Parrish) <==

   Number of roots    =         1
   Preconditioning    =    JACOBI
   Convergence cutoff =     1E-06
   Maximum iterations =       100

  ==> CPHFRHamiltonian (by Rob Parrish) <== 

  ==> MemDFJK: Density-Fitted J/K Matrices <==

    J tasked:                   Yes
    K tasked:                   Yes
    wK tasked:                   No
    OpenMP threads:               1
    Memory [MiB]:               375
    Algorithm:                 Core
    Schwarz Cutoff:           1E-12
    Mask sparsity (%):       0.0000
    Fitting Condition:        1E-10

   => Auxiliary Basis Set <=

  Basis Set: (6-31++G** AUX)
    Blend: AUG-CC-PVDZ-JKFIT
    Number of shells: 156
    Number of basis function: 513
    Number of Cartesian functions: 513
    Spherical Harmonics?: false
    Max angular momentum: 3

  ==> CPHF Iterations <==

  => Iterations <=

             Iter  Converged  Remaining    Residual
  CGR           1          0          1   7.509E-02
  CGR           2          0          1   1.205E-02
  CGR           3          0          1   2.445E-03
  CGR           4          0          1   3.869E-04
  CGR           5          0          1   4.510E-05
  CGR           6          0          1   5.383E-06
  CGR           7          1          0   5.456E-07

    CGRSolver converged.

  ==> DFCorrGrad: Density-Fitted Correlated Gradients <==

    OpenMP threads:              1
    Integrals threads:           1
    Memory [GiB]:            0.366
    Schwarz Cutoff:          0E+00
    Fitting Condition:       1E-10

   => Auxiliary Basis Set <=

  Basis Set: (6-31++G** AUX)
    Blend: AUG-CC-PVDZ-JKFIT
    Number of shells: 156
    Number of basis function: 513
    Number of Cartesian functions: 513
    Spherical Harmonics?: false
    Max angular momentum: 3

	-----------------------------------------------------------
	 ==================> DF-MP2 Energies <==================== 
	-----------------------------------------------------------
	 Reference Energy          =    -117.0696456504356320 [Eh]
	 Singles Energy            =      -0.0000000000000000 [Eh]
	 Same-Spin Energy          =      -0.1017274215711977 [Eh]
	 Opposite-Spin Energy      =      -0.3470429300675010 [Eh]
	 Correlation Energy        =      -0.4487703516386987 [Eh]
	 Total Energy              =    -117.5184160020743320 [Eh]
	-----------------------------------------------------------
	 ================> DF-SCS-MP2 Energies <================== 
	-----------------------------------------------------------
	 SCS Same-Spin Scale       =       0.3333333333333333 [-]
	 SCS Opposite-Spin Scale   =       1.2000000000000000 [-]
	 SCS Same-Spin Energy      =      -0.0339091405237325 [Eh]
	 SCS Opposite-Spin Energy  =      -0.4164515160810012 [Eh]
	 SCS Correlation Energy    =      -0.4503606566047338 [Eh]
	 SCS Total Energy          =    -117.5200063070403615 [Eh]
	-----------------------------------------------------------


  -Total Gradient:
     Atom            X                  Y                   Z
    ------   -----------------  -----------------  -----------------
       1        0.000203048489     0.000514942304     0.000000000000
       2       -0.000521542122    -0.000073753415     0.000000000000
       3        0.000341957592    -0.000420836341     0.000000000000
       4        0.001757976742     0.004450103654    -0.007632597239
       5        0.001757976742     0.004450103654     0.007632597239
       6       -0.004742015919    -0.000705495636     0.007622691908
       7       -0.004742015919    -0.000705495636    -0.007622691908
       8        0.002972307198    -0.003754784292    -0.007628791909
       9        0.002972307198    -0.003754784292     0.007628791909


*** tstop() called on atlantis at Tue Apr 19 02:17:21 2022
Module time:
	user time   =       2.00 seconds =       0.03 minutes
	system time =       0.05 seconds =       0.00 minutes
	total time  =          2 seconds =       0.03 minutes
Total time:
	user time   =       6.75 seconds =       0.11 minutes
	system time =       0.22 seconds =       0.00 minutes
	total time  =          7 seconds =       0.12 minutes

  //>>>>>>>>>>>>>>>>>>>>>>>>>>>>>>>>>>>//
  //    Loading displacement 2 of 34   //
  //<<<<<<<<<<<<<<<<<<<<<<<<<<<<<<<<<<<//
gradient() will perform analytic gradient computation.
    SCF Algorithm Type (re)set to DF.

*** tstart() called on atlantis
*** at Tue Apr 19 02:17:21 2022

   => Loading Basis Set <=

    Name: 6-31++G**
    Role: ORBITAL
    Keyword: BASIS
    atoms 1-3 entry C          line   115 file /home/akrom/software/anaconda3/envs/ffpenv/share/psi4/basis/6-31ppgss.gbs 
    atoms 4-9 entry H          line    46 file /home/akrom/software/anaconda3/envs/ffpenv/share/psi4/basis/6-31ppgss.gbs 


         ---------------------------------------------------------
                                   SCF
               by Justin Turney, Rob Parrish, Andy Simmonett
                          and Daniel G. A. Smith
                              RHF Reference
                        1 Threads,    500 MiB Core
         ---------------------------------------------------------

  ==> Geometry <==

    Molecular point group: cs
    Full point group: Cs

    Geometry (in Angstrom), charge = 0, multiplicity = 1:

       Center              X                  Y                   Z               Mass       
    ------------   -----------------  -----------------  -----------------  -----------------
         C            0.320981935461     0.813179232929     0.000000000000    12.000000000000
         C           -0.864778117207    -0.127947314912     0.000000000000    12.000000000000
         C            0.543659460418    -0.685217540638     0.000000000000    12.000000000000
         H            0.538602639069     1.360553886373    -0.920390000000     1.007825032230
         H            0.538602639069     1.360553886373     0.920390000000     1.007825032230
         H           -1.447170192407    -0.214118381478     0.920340000000     1.007825032230
         H           -1.447170192407    -0.214118381478    -0.920340000000     1.007825032230
         H            0.909381512053    -1.146521099385    -0.920370000000     1.007825032230
         H            0.909381512053    -1.146521099385     0.920370000000     1.007825032230

  Running in cs symmetry.

  Rotational constants: A =      0.66511  B =      0.66452  C =      0.41655 [cm^-1]
  Rotational constants: A =  19939.46144  B =  19921.88173  C =  12487.97026 [MHz]
  Nuclear repulsion =   75.286659304380962

  Charge       = 0
  Multiplicity = 1
  Electrons    = 24
  Nalpha       = 12
  Nbeta        = 12

  ==> Algorithm <==

  SCF Algorithm Type is DF.
  DIIS enabled.
  MOM disabled.
  Fractional occupation disabled.
  Guess Type is SAD.
  Energy threshold   = 1.00e-10
  Density threshold  = 1.00e-10
  Integral threshold = 0.00e+00

  ==> Primary Basis <==

  Basis Set: 6-31++G**
    Blend: 6-31++G**
    Number of shells: 48
    Number of basis function: 93
    Number of Cartesian functions: 93
    Spherical Harmonics?: false
    Max angular momentum: 2

   => Loading Basis Set <=

    Name: (6-31++G** AUX)
    Role: JKFIT
    Keyword: DF_BASIS_SCF
    atoms 1-3 entry C          line   154 file /home/akrom/software/anaconda3/envs/ffpenv/share/psi4/basis/aug-cc-pvdz-jkfit.gbs 
    atoms 4-9 entry H          line    70 file /home/akrom/software/anaconda3/envs/ffpenv/share/psi4/basis/aug-cc-pvdz-jkfit.gbs 

  ==> Pre-Iterations <==

   -------------------------------------------------------
    Irrep   Nso     Nmo     Nalpha   Nbeta   Ndocc  Nsocc
   -------------------------------------------------------
     A'        60      60       0       0       0       0
     A"        33      33       0       0       0       0
   -------------------------------------------------------
    Total      93      93      12      12      12       0
   -------------------------------------------------------

  ==> Integral Setup <==

  DFHelper Memory: AOs need 0.037 GiB; user supplied 0.366 GiB. Using in-core AOs.

  ==> MemDFJK: Density-Fitted J/K Matrices <==

    J tasked:                   Yes
    K tasked:                   Yes
    wK tasked:                   No
    OpenMP threads:               1
    Memory [MiB]:               375
    Algorithm:                 Core
    Schwarz Cutoff:           1E-12
    Mask sparsity (%):       0.0000
    Fitting Condition:        1E-10

   => Auxiliary Basis Set <=

  Basis Set: (6-31++G** AUX)
    Blend: AUG-CC-PVDZ-JKFIT
    Number of shells: 156
    Number of basis function: 513
    Number of Cartesian functions: 513
    Spherical Harmonics?: false
    Max angular momentum: 3

  Minimum eigenvalue in the overlap matrix is 1.8798543955E-04.
  Using Symmetric Orthogonalization.

  SCF Guess: Superposition of Atomic Densities via on-the-fly atomic UHF.

  ==> Iterations <==

                           Total Energy        Delta E     RMS |[F,P]|

   @DF-RHF iter SAD:  -116.59002975764029   -1.16590e+02   0.00000e+00 
   @DF-RHF iter   1:  -116.94332527241443   -3.53296e-01   6.66305e-03 DIIS
   @DF-RHF iter   2:  -117.04241164536344   -9.90864e-02   3.30292e-03 DIIS
   @DF-RHF iter   3:  -117.06862223159450   -2.62106e-02   4.60757e-04 DIIS
   @DF-RHF iter   4:  -117.06962406579183   -1.00183e-03   5.61421e-05 DIIS
   @DF-RHF iter   5:  -117.06964632412198   -2.22583e-05   1.30618e-05 DIIS
   @DF-RHF iter   6:  -117.06964764201564   -1.31789e-06   2.15626e-06 DIIS
   @DF-RHF iter   7:  -117.06964767975199   -3.77364e-08   2.78816e-07 DIIS
   @DF-RHF iter   8:  -117.06964768028644   -5.34442e-10   6.31883e-08 DIIS
   @DF-RHF iter   9:  -117.06964768029994   -1.35003e-11   1.78883e-08 DIIS
   @DF-RHF iter  10:  -117.06964768030150   -1.56319e-12   2.93154e-09 DIIS
   @DF-RHF iter  11:  -117.06964768030132    1.84741e-13   4.11566e-10 DIIS
   @DF-RHF iter  12:  -117.06964768030133   -1.42109e-14   3.20791e-11 DIIS
  Energy and wave function converged.


  ==> Post-Iterations <==

    Orbital Energies [Eh]
    ---------------------

    Doubly Occupied:                                                      

       1Ap   -11.230416     2Ap   -11.229474     3Ap   -11.229447  
       4Ap    -1.126841     5Ap    -0.814677     6Ap    -0.814574  
       1App   -0.663333     7Ap    -0.622415     2App   -0.510427  
       3App   -0.510297     8Ap    -0.416976     9Ap    -0.416477  

    Virtual:                                                              

      10Ap     0.049979     4App    0.060594    11Ap     0.062031  
      12Ap     0.062035     5App    0.092144     6App    0.092175  
      13Ap     0.139176    14Ap     0.142730    15Ap     0.142783  
      16Ap     0.175321    17Ap     0.183390    18Ap     0.183412  
       7App    0.222590     8App    0.234970     9App    0.235051  
      19Ap     0.240322    20Ap     0.242042    21Ap     0.242043  
      10App    0.333361    22Ap     0.351644    23Ap     0.369238  
      24Ap     0.445077    25Ap     0.445209    11App    0.451674  
      12App    0.451999    26Ap     0.521384    27Ap     0.521602  
      28Ap     0.794416    29Ap     0.881852    30Ap     0.882095  
      13App    0.947483    31Ap     1.015527    32Ap     1.018268  
      33Ap     1.018573    14App    1.034965    15App    1.035240  
      34Ap     1.146333    16App    1.157876    35Ap     1.248991  
      17App    1.304115    18App    1.304662    36Ap     1.326234  
      37Ap     1.326289    38Ap     1.524735    39Ap     1.524777  
      40Ap     1.829981    19App    1.891109    20App    1.896996  
      21App    1.897128    41Ap     2.082931    42Ap     2.083120  
      22App    2.194947    43Ap     2.392566    23App    2.393546  
      24App    2.393734    25App    2.530151    44Ap     2.558522  
      45Ap     2.558946    46Ap     2.599966    47Ap     2.600352  
      26App    2.697187    27App    2.697776    48Ap     2.711648  
      49Ap     2.862427    50Ap     2.862612    51Ap     3.006719  
      28App    3.026492    29App    3.026620    30App    3.155166  
      52Ap     3.194151    53Ap     3.272692    54Ap     3.273256  
      55Ap     3.565660    31App    3.689870    56Ap     3.769647  
      57Ap     3.770208    32App    3.941884    33App    3.942779  
      58Ap     4.712495    59Ap     4.982857    60Ap     4.982875  

    Final Occupation by Irrep:
             Ap   App 
    DOCC [     9,    3 ]

  @DF-RHF Final Energy:  -117.06964768030133

   => Energetics <=

    Nuclear Repulsion Energy =             75.2866593043809615
    One-Electron Energy =                -305.5419060022003350
    Two-Electron Energy =                 113.1855990175180295
    Total Energy =                       -117.0696476803013297

Computation Completed


Properties will be evaluated at   0.000000,   0.000000,   0.000000 [a0]

Properties computed using the SCF density matrix

  Nuclear Dipole Moment: [e a0]
     X:     0.0015      Y:    -0.0002      Z:     0.0000

  Electronic Dipole Moment: [e a0]
     X:    -0.0018      Y:     0.0004      Z:     0.0000

  Dipole Moment: [e a0]
     X:    -0.0003      Y:     0.0003      Z:     0.0000     Total:     0.0004

  Dipole Moment: [D]
     X:    -0.0008      Y:     0.0006      Z:     0.0000     Total:     0.0010


*** tstop() called on atlantis at Tue Apr 19 02:17:21 2022
Module time:
	user time   =       0.77 seconds =       0.01 minutes
	system time =       0.01 seconds =       0.00 minutes
	total time  =          0 seconds =       0.00 minutes
Total time:
	user time   =       7.53 seconds =       0.13 minutes
	system time =       0.23 seconds =       0.00 minutes
	total time  =          7 seconds =       0.12 minutes

*** tstart() called on atlantis
*** at Tue Apr 19 02:17:21 2022


  //>>>>>>>>>>>>>>>>>>>>>>>>>>>>>>>>>>>//
  //               DFMP2               //
  //<<<<<<<<<<<<<<<<<<<<<<<<<<<<<<<<<<<//

   => Loading Basis Set <=

    Name: (6-31++G** AUX)
    Role: RIFIT
    Keyword: DF_BASIS_MP2
    atoms 1-3 entry C          line   112 file /home/akrom/software/anaconda3/envs/ffpenv/share/psi4/basis/aug-cc-pvdz-ri.gbs 
    atoms 4-9 entry H          line    30 file /home/akrom/software/anaconda3/envs/ffpenv/share/psi4/basis/aug-cc-pvdz-ri.gbs 

	 --------------------------------------------------------
	                          DF-MP2                         
	      2nd-Order Density-Fitted Moller-Plesset Theory     
	              RMP2 Wavefunction,   1 Threads             
	                                                         
	        Rob Parrish, Justin Turney, Andy Simmonett,      
	           Ed Hohenstein, and C. David Sherrill          
	 --------------------------------------------------------

   => Auxiliary Basis Set <=

  Basis Set: (6-31++G** AUX)
    Blend: AUG-CC-PVDZ-RI
    Number of shells: 120
    Number of basis function: 354
    Number of Cartesian functions: 408
    Spherical Harmonics?: true
    Max angular momentum: 3

	 --------------------------------------------------------
	                 NBF =    93, NAUX =   354
	 --------------------------------------------------------
	   CLASS    FOCC     OCC    AOCC    AVIR     VIR    FVIR
	   PAIRS       0      12      12      81      81       0
	 --------------------------------------------------------

  DFHelper Memory: AOs need 0.037 GiB; user supplied 0.366 GiB. Using in-core AOs.


         ------------------------------------------------------------
                                     CPHF                           
                                  Rob Parrish                       
         ------------------------------------------------------------

  ==> Geometry <==

    Molecular point group: cs
    Full point group: Cs

    Geometry (in Angstrom), charge = 0, multiplicity = 1:

       Center              X                  Y                   Z               Mass       
    ------------   -----------------  -----------------  -----------------  -----------------
         C            0.320981935461     0.813179232929     0.000000000000    12.000000000000
         C           -0.864778117207    -0.127947314912     0.000000000000    12.000000000000
         C            0.543659460418    -0.685217540638     0.000000000000    12.000000000000
         H            0.538602639069     1.360553886373    -0.920390000000     1.007825032230
         H            0.538602639069     1.360553886373     0.920390000000     1.007825032230
         H           -1.447170192407    -0.214118381478     0.920340000000     1.007825032230
         H           -1.447170192407    -0.214118381478    -0.920340000000     1.007825032230
         H            0.909381512053    -1.146521099385    -0.920370000000     1.007825032230
         H            0.909381512053    -1.146521099385     0.920370000000     1.007825032230

  Nuclear repulsion =   75.286659304380962
  Reference energy  = -117.069647680301330

  ==> Basis Set <==

  Basis Set: 6-31++G**
    Blend: 6-31++G**
    Number of shells: 48
    Number of basis function: 93
    Number of Cartesian functions: 93
    Spherical Harmonics?: false
    Max angular momentum: 2

  ==> CGRSolver (by Rob Parrish) <==

   Number of roots    =         1
   Preconditioning    =    JACOBI
   Convergence cutoff =     1E-06
   Maximum iterations =       100

  ==> CPHFRHamiltonian (by Rob Parrish) <== 

  ==> MemDFJK: Density-Fitted J/K Matrices <==

    J tasked:                   Yes
    K tasked:                   Yes
    wK tasked:                   No
    OpenMP threads:               1
    Memory [MiB]:               375
    Algorithm:                 Core
    Schwarz Cutoff:           1E-12
    Mask sparsity (%):       0.0000
    Fitting Condition:        1E-10

   => Auxiliary Basis Set <=

  Basis Set: (6-31++G** AUX)
    Blend: AUG-CC-PVDZ-JKFIT
    Number of shells: 156
    Number of basis function: 513
    Number of Cartesian functions: 513
    Spherical Harmonics?: false
    Max angular momentum: 3

  ==> CPHF Iterations <==

  => Iterations <=

             Iter  Converged  Remaining    Residual
  CGR           1          0          1   7.511E-02
  CGR           2          0          1   1.206E-02
  CGR           3          0          1   2.445E-03
  CGR           4          0          1   3.869E-04
  CGR           5          0          1   4.521E-05
  CGR           6          0          1   5.843E-06
  CGR           7          0          1   1.676E-06
  CGR           8          1          0   2.753E-07

    CGRSolver converged.

  ==> DFCorrGrad: Density-Fitted Correlated Gradients <==

    OpenMP threads:              1
    Integrals threads:           1
    Memory [GiB]:            0.366
    Schwarz Cutoff:          0E+00
    Fitting Condition:       1E-10

   => Auxiliary Basis Set <=

  Basis Set: (6-31++G** AUX)
    Blend: AUG-CC-PVDZ-JKFIT
    Number of shells: 156
    Number of basis function: 513
    Number of Cartesian functions: 513
    Spherical Harmonics?: false
    Max angular momentum: 3

	-----------------------------------------------------------
	 ==================> DF-MP2 Energies <==================== 
	-----------------------------------------------------------
	 Reference Energy          =    -117.0696476803013297 [Eh]
	 Singles Energy            =      -0.0000000000000000 [Eh]
	 Same-Spin Energy          =      -0.1017289367175821 [Eh]
	 Opposite-Spin Energy      =      -0.3470392179442650 [Eh]
	 Correlation Energy        =      -0.4487681546618471 [Eh]
	 Total Energy              =    -117.5184158349631787 [Eh]
	-----------------------------------------------------------
	 ================> DF-SCS-MP2 Energies <================== 
	-----------------------------------------------------------
	 SCS Same-Spin Scale       =       0.3333333333333333 [-]
	 SCS Opposite-Spin Scale   =       1.2000000000000000 [-]
	 SCS Same-Spin Energy      =      -0.0339096455725274 [Eh]
	 SCS Opposite-Spin Energy  =      -0.4164470615331179 [Eh]
	 SCS Correlation Energy    =      -0.4503567071056453 [Eh]
	 SCS Total Energy          =    -117.5200043874069706 [Eh]
	-----------------------------------------------------------


  -Total Gradient:
     Atom            X                  Y                   Z
    ------   -----------------  -----------------  -----------------
       1       -0.000368735158     0.000239016739     0.000000000000
       2       -0.000236323540     0.000073329686     0.000000000000
       3        0.000378902198    -0.000424258275     0.000000000000
       4        0.001863568973     0.004511756285    -0.007724985929
       5        0.001863568973     0.004511756285     0.007724985929
       6       -0.004724084294    -0.000680550404     0.007629277405
       7       -0.004724084294    -0.000680550404    -0.007629277405
       8        0.002973593571    -0.003775249954    -0.007625958357
       9        0.002973593571    -0.003775249954     0.007625958357


*** tstop() called on atlantis at Tue Apr 19 02:17:24 2022
Module time:
	user time   =       2.03 seconds =       0.03 minutes
	system time =       0.03 seconds =       0.00 minutes
	total time  =          3 seconds =       0.05 minutes
Total time:
	user time   =       9.56 seconds =       0.16 minutes
	system time =       0.26 seconds =       0.00 minutes
	total time  =         10 seconds =       0.17 minutes

  //>>>>>>>>>>>>>>>>>>>>>>>>>>>>>>>>>>>//
  //    Loading displacement 3 of 34   //
  //<<<<<<<<<<<<<<<<<<<<<<<<<<<<<<<<<<<//
gradient() will perform analytic gradient computation.
    SCF Algorithm Type (re)set to DF.

*** tstart() called on atlantis
*** at Tue Apr 19 02:17:24 2022

   => Loading Basis Set <=

    Name: 6-31++G**
    Role: ORBITAL
    Keyword: BASIS
    atoms 1-3 entry C          line   115 file /home/akrom/software/anaconda3/envs/ffpenv/share/psi4/basis/6-31ppgss.gbs 
    atoms 4-9 entry H          line    46 file /home/akrom/software/anaconda3/envs/ffpenv/share/psi4/basis/6-31ppgss.gbs 


         ---------------------------------------------------------
                                   SCF
               by Justin Turney, Rob Parrish, Andy Simmonett
                          and Daniel G. A. Smith
                              RHF Reference
                        1 Threads,    500 MiB Core
         ---------------------------------------------------------

  ==> Geometry <==

    Molecular point group: cs
    Full point group: Cs

    Geometry (in Angstrom), charge = 0, multiplicity = 1:

       Center              X                  Y                   Z               Mass       
    ------------   -----------------  -----------------  -----------------  -----------------
         C            0.322081944250     0.813343688021     0.000000000000    12.000000000000
         C           -0.865318003082    -0.128389764139     0.000000000000    12.000000000000
         C            0.543404419293    -0.684939538412     0.000000000000    12.000000000000
         H            0.537301240642     1.360829034576    -0.920390000000     1.007825032230
         H            0.537301240642     1.360829034576     0.920390000000     1.007825032230
         H           -1.447665927882    -0.214858697572     0.920340000000     1.007825032230
         H           -1.447665927882    -0.214858697572    -0.920340000000     1.007825032230
         H            0.909362367658    -1.146055979665    -0.920370000000     1.007825032230
         H            0.909362367658    -1.146055979665     0.920370000000     1.007825032230

  Running in cs symmetry.

  Rotational constants: A =      0.66489  B =      0.66431  C =      0.41639 [cm^-1]
  Rotational constants: A =  19932.94970  B =  19915.53021  C =  12482.92073 [MHz]
  Nuclear repulsion =   75.276267816162189

  Charge       = 0
  Multiplicity = 1
  Electrons    = 24
  Nalpha       = 12
  Nbeta        = 12

  ==> Algorithm <==

  SCF Algorithm Type is DF.
  DIIS enabled.
  MOM disabled.
  Fractional occupation disabled.
  Guess Type is SAD.
  Energy threshold   = 1.00e-10
  Density threshold  = 1.00e-10
  Integral threshold = 0.00e+00

  ==> Primary Basis <==

  Basis Set: 6-31++G**
    Blend: 6-31++G**
    Number of shells: 48
    Number of basis function: 93
    Number of Cartesian functions: 93
    Spherical Harmonics?: false
    Max angular momentum: 2

   => Loading Basis Set <=

    Name: (6-31++G** AUX)
    Role: JKFIT
    Keyword: DF_BASIS_SCF
    atoms 1-3 entry C          line   154 file /home/akrom/software/anaconda3/envs/ffpenv/share/psi4/basis/aug-cc-pvdz-jkfit.gbs 
    atoms 4-9 entry H          line    70 file /home/akrom/software/anaconda3/envs/ffpenv/share/psi4/basis/aug-cc-pvdz-jkfit.gbs 

  ==> Pre-Iterations <==

   -------------------------------------------------------
    Irrep   Nso     Nmo     Nalpha   Nbeta   Ndocc  Nsocc
   -------------------------------------------------------
     A'        60      60       0       0       0       0
     A"        33      33       0       0       0       0
   -------------------------------------------------------
    Total      93      93      12      12      12       0
   -------------------------------------------------------

  ==> Integral Setup <==

  DFHelper Memory: AOs need 0.037 GiB; user supplied 0.366 GiB. Using in-core AOs.

  ==> MemDFJK: Density-Fitted J/K Matrices <==

    J tasked:                   Yes
    K tasked:                   Yes
    wK tasked:                   No
    OpenMP threads:               1
    Memory [MiB]:               375
    Algorithm:                 Core
    Schwarz Cutoff:           1E-12
    Mask sparsity (%):       0.0000
    Fitting Condition:        1E-10

   => Auxiliary Basis Set <=

  Basis Set: (6-31++G** AUX)
    Blend: AUG-CC-PVDZ-JKFIT
    Number of shells: 156
    Number of basis function: 513
    Number of Cartesian functions: 513
    Spherical Harmonics?: false
    Max angular momentum: 3

  Minimum eigenvalue in the overlap matrix is 1.8832294420E-04.
  Using Symmetric Orthogonalization.

  SCF Guess: Superposition of Atomic Densities via on-the-fly atomic UHF.

  ==> Iterations <==

                           Total Energy        Delta E     RMS |[F,P]|

   @DF-RHF iter SAD:  -116.58877309107035   -1.16589e+02   0.00000e+00 
   @DF-RHF iter   1:  -116.94346090679232   -3.54688e-01   6.65874e-03 DIIS
   @DF-RHF iter   2:  -117.04246644456575   -9.90055e-02   3.29901e-03 DIIS
   @DF-RHF iter   3:  -117.06861785454646   -2.61514e-02   4.60616e-04 DIIS
   @DF-RHF iter   4:  -117.06961877763621   -1.00092e-03   5.61059e-05 DIIS
   @DF-RHF iter   5:  -117.06964100466095   -2.22270e-05   1.30579e-05 DIIS
   @DF-RHF iter   6:  -117.06964232159652   -1.31694e-06   2.15690e-06 DIIS
   @DF-RHF iter   7:  -117.06964235937002   -3.77735e-08   2.78869e-07 DIIS
   @DF-RHF iter   8:  -117.06964235990500   -5.34982e-10   6.32014e-08 DIIS
   @DF-RHF iter   9:  -117.06964235991850   -1.35003e-11   1.78801e-08 DIIS
   @DF-RHF iter  10:  -117.06964235992017   -1.66267e-12   2.93191e-09 DIIS
   @DF-RHF iter  11:  -117.06964235992015    1.42109e-14   4.11753e-10 DIIS
   @DF-RHF iter  12:  -117.06964235992022   -7.10543e-14   3.20144e-11 DIIS
  Energy and wave function converged.


  ==> Post-Iterations <==

    Orbital Energies [Eh]
    ---------------------

    Doubly Occupied:                                                      

       1Ap   -11.230443     2Ap   -11.229502     3Ap   -11.229478  
       4Ap    -1.126608     5Ap    -0.814725     6Ap    -0.814614  
       1App   -0.663330     7Ap    -0.622290     2App   -0.510561  
       3App   -0.510415     8Ap    -0.416877     9Ap    -0.416381  

    Virtual:                                                              

      10Ap     0.049980     4App    0.060596    11Ap     0.062031  
      12Ap     0.062035     5App    0.092136     6App    0.092171  
      13Ap     0.139174    14Ap     0.142739    15Ap     0.142793  
      16Ap     0.175305    17Ap     0.183378    18Ap     0.183409  
       7App    0.222612     8App    0.234967     9App    0.235054  
      19Ap     0.240319    20Ap     0.242045    21Ap     0.242048  
      10App    0.333459    22Ap     0.351479    23Ap     0.369249  
      24Ap     0.445036    25Ap     0.445161    11App    0.451701  
      12App    0.452045    26Ap     0.521234    27Ap     0.521451  
      28Ap     0.794634    29Ap     0.881951    30Ap     0.882196  
      13App    0.947341    31Ap     1.015446    32Ap     1.018054  
      33Ap     1.018347    14App    1.034951    15App    1.035248  
      34Ap     1.146343    16App    1.158157    35Ap     1.249030  
      17App    1.304205    18App    1.304792    36Ap     1.326246  
      37Ap     1.326287    38Ap     1.524540    39Ap     1.524599  
      40Ap     1.830027    19App    1.890922    20App    1.896941  
      21App    1.897060    41Ap     2.082554    42Ap     2.082794  
      22App    2.195231    43Ap     2.392329    23App    2.393419  
      24App    2.393625    25App    2.530209    44Ap     2.558349  
      45Ap     2.558773    46Ap     2.599925    47Ap     2.600371  
      26App    2.697446    27App    2.698034    48Ap     2.711577  
      49Ap     2.862323    50Ap     2.862489    51Ap     3.006858  
      28App    3.026627    29App    3.026760    30App    3.155167  
      52Ap     3.193672    53Ap     3.272613    54Ap     3.273110  
      55Ap     3.566137    31App    3.690191    56Ap     3.770048  
      57Ap     3.770725    32App    3.941800    33App    3.942649  
      58Ap     4.712341    59Ap     4.982667    60Ap     4.982684  

    Final Occupation by Irrep:
             Ap   App 
    DOCC [     9,    3 ]

  @DF-RHF Final Energy:  -117.06964235992022

   => Energetics <=

    Nuclear Repulsion Energy =             75.2762678161621892
    One-Electron Energy =                -305.5213715383729323
    Two-Electron Energy =                 113.1754613622905055
    Total Energy =                       -117.0696423599202234

Computation Completed


Properties will be evaluated at   0.000000,   0.000000,   0.000000 [a0]

Properties computed using the SCF density matrix

  Nuclear Dipole Moment: [e a0]
     X:    -0.0019      Y:    -0.0002      Z:     0.0000

  Electronic Dipole Moment: [e a0]
     X:     0.0021      Y:    -0.0001      Z:     0.0000

  Dipole Moment: [e a0]
     X:     0.0003      Y:    -0.0003      Z:     0.0000     Total:     0.0004

  Dipole Moment: [D]
     X:     0.0007      Y:    -0.0008      Z:     0.0000     Total:     0.0010


*** tstop() called on atlantis at Tue Apr 19 02:17:24 2022
Module time:
	user time   =       0.79 seconds =       0.01 minutes
	system time =       0.01 seconds =       0.00 minutes
	total time  =          0 seconds =       0.00 minutes
Total time:
	user time   =      10.35 seconds =       0.17 minutes
	system time =       0.27 seconds =       0.00 minutes
	total time  =         10 seconds =       0.17 minutes

*** tstart() called on atlantis
*** at Tue Apr 19 02:17:24 2022


  //>>>>>>>>>>>>>>>>>>>>>>>>>>>>>>>>>>>//
  //               DFMP2               //
  //<<<<<<<<<<<<<<<<<<<<<<<<<<<<<<<<<<<//

   => Loading Basis Set <=

    Name: (6-31++G** AUX)
    Role: RIFIT
    Keyword: DF_BASIS_MP2
    atoms 1-3 entry C          line   112 file /home/akrom/software/anaconda3/envs/ffpenv/share/psi4/basis/aug-cc-pvdz-ri.gbs 
    atoms 4-9 entry H          line    30 file /home/akrom/software/anaconda3/envs/ffpenv/share/psi4/basis/aug-cc-pvdz-ri.gbs 

	 --------------------------------------------------------
	                          DF-MP2                         
	      2nd-Order Density-Fitted Moller-Plesset Theory     
	              RMP2 Wavefunction,   1 Threads             
	                                                         
	        Rob Parrish, Justin Turney, Andy Simmonett,      
	           Ed Hohenstein, and C. David Sherrill          
	 --------------------------------------------------------

   => Auxiliary Basis Set <=

  Basis Set: (6-31++G** AUX)
    Blend: AUG-CC-PVDZ-RI
    Number of shells: 120
    Number of basis function: 354
    Number of Cartesian functions: 408
    Spherical Harmonics?: true
    Max angular momentum: 3

	 --------------------------------------------------------
	                 NBF =    93, NAUX =   354
	 --------------------------------------------------------
	   CLASS    FOCC     OCC    AOCC    AVIR     VIR    FVIR
	   PAIRS       0      12      12      81      81       0
	 --------------------------------------------------------

  DFHelper Memory: AOs need 0.037 GiB; user supplied 0.366 GiB. Using in-core AOs.


         ------------------------------------------------------------
                                     CPHF                           
                                  Rob Parrish                       
         ------------------------------------------------------------

  ==> Geometry <==

    Molecular point group: cs
    Full point group: Cs

    Geometry (in Angstrom), charge = 0, multiplicity = 1:

       Center              X                  Y                   Z               Mass       
    ------------   -----------------  -----------------  -----------------  -----------------
         C            0.322081944250     0.813343688021     0.000000000000    12.000000000000
         C           -0.865318003082    -0.128389764139     0.000000000000    12.000000000000
         C            0.543404419293    -0.684939538412     0.000000000000    12.000000000000
         H            0.537301240642     1.360829034576    -0.920390000000     1.007825032230
         H            0.537301240642     1.360829034576     0.920390000000     1.007825032230
         H           -1.447665927882    -0.214858697572     0.920340000000     1.007825032230
         H           -1.447665927882    -0.214858697572    -0.920340000000     1.007825032230
         H            0.909362367658    -1.146055979665    -0.920370000000     1.007825032230
         H            0.909362367658    -1.146055979665     0.920370000000     1.007825032230

  Nuclear repulsion =   75.276267816162189
  Reference energy  = -117.069642359920223

  ==> Basis Set <==

  Basis Set: 6-31++G**
    Blend: 6-31++G**
    Number of shells: 48
    Number of basis function: 93
    Number of Cartesian functions: 93
    Spherical Harmonics?: false
    Max angular momentum: 2

  ==> CGRSolver (by Rob Parrish) <==

   Number of roots    =         1
   Preconditioning    =    JACOBI
   Convergence cutoff =     1E-06
   Maximum iterations =       100

  ==> CPHFRHamiltonian (by Rob Parrish) <== 

  ==> MemDFJK: Density-Fitted J/K Matrices <==

    J tasked:                   Yes
    K tasked:                   Yes
[...]
	 Opposite-Spin Energy      =      -0.3470429628922126 [Eh]
	 Correlation Energy        =      -0.4487703873961291 [Eh]
	 Total Energy              =    -117.5184133853697830 [Eh]
	-----------------------------------------------------------
	 ================> DF-SCS-MP2 Energies <================== 
	-----------------------------------------------------------
	 SCS Same-Spin Scale       =       0.3333333333333333 [-]
	 SCS Opposite-Spin Scale   =       1.2000000000000000 [-]
	 SCS Same-Spin Energy      =      -0.0339091415013055 [Eh]
	 SCS Opposite-Spin Energy  =      -0.4164515554706552 [Eh]
	 SCS Correlation Energy    =      -0.4503606969719606 [Eh]
	 SCS Total Energy          =    -117.5200036949456148 [Eh]
	-----------------------------------------------------------


  -Total Gradient:
     Atom            X                  Y                   Z
    ------   -----------------  -----------------  -----------------
       1        0.000203064654     0.000515075816     0.000005733847
       2       -0.000522151857    -0.000073907700     0.000450025025
       3        0.000342678058    -0.000423323829    -0.001256265703
       4        0.001755554398     0.004443945106    -0.007633810783
       5        0.001760357341     0.004456246751     0.007631018667
       6       -0.004563685438    -0.000702641693     0.007336214648
       7       -0.004919628053    -0.000708289157    -0.007908136365
       8        0.002597655850    -0.003388424923    -0.006938494968
       9        0.003346155047    -0.004118680369     0.008313715631


*** tstop() called on atlantis at Tue Apr 19 02:18:56 2022
Module time:
	user time   =       2.01 seconds =       0.03 minutes
	system time =       0.05 seconds =       0.00 minutes
	total time  =          2 seconds =       0.03 minutes
Total time:
	user time   =      99.33 seconds =       1.66 minutes
	system time =       2.20 seconds =       0.04 minutes
	total time  =        102 seconds =       1.70 minutes

         ----------------------------------------------------------
                                   FINDIF
                     R. A. King and Jonathon Misiewicz
         ---------------------------------------------------------

  Computing second-derivative from gradients using projected, 
  symmetry-adapted, cartesian coordinates.

  34 gradients passed in, including the reference geometry.
  Generating complete list of displacements from unique ones.

    Operation 2 takes plus displacements of irrep A" to minus ones.

-------------------------------------------------------------


  ==> Harmonic Vibrational Analysis <==

  non-mass-weighted Hessian:       Symmetric? True   Hermitian? True   Lin Dep Dim?  6 (0)
  projection of translations (True) and rotations (True) removed 6 degrees of freedom (6)
  total projector:                 Symmetric? True   Hermitian? True   Lin Dep Dim?  6 (6)
  mass-weighted Hessian:           Symmetric? True   Hermitian? True   Lin Dep Dim?  6 (0)
  pre-proj  low-frequency mode:    0.0000i [cm^-1]
  pre-proj  low-frequency mode:    0.0000i [cm^-1]
  pre-proj  low-frequency mode:    0.0000  [cm^-1]
  pre-proj  low-frequency mode:    0.0000  [cm^-1]
  pre-proj  low-frequency mode:    0.0000  [cm^-1]
  pre-proj  low-frequency mode:    0.0001  [cm^-1]
  pre-proj  all modes:['0.0000i' '0.0000i' '0.0000' '0.0000' '0.0000' '0.0001' '829.7010'
 '829.7503' '895.3441' '895.4970' '934.8234' '1146.1796' '1146.2660'
 '1155.2732' '1223.8748' '1224.7060' '1264.2937' '1264.3193' '1534.6532'
 '1534.8098' '1583.9708' '3111.2458' '3111.3268' '3120.2677' '3201.1444'
 '3201.2235' '3219.9817']
  projected mass-weighted Hessian: Symmetric? True   Hermitian? True   Lin Dep Dim?  6 (6)
  post-proj low-frequency mode:    0.0000i [cm^-1] (TR)
  post-proj low-frequency mode:    0.0000i [cm^-1] (TR)
  post-proj low-frequency mode:    0.0000  [cm^-1] (TR)
  post-proj low-frequency mode:    0.0000  [cm^-1] (TR)
  post-proj low-frequency mode:    0.0000  [cm^-1] (TR)
  post-proj low-frequency mode:    0.0000  [cm^-1] (TR)
  post-proj  all modes:['0.0000i' '0.0000i' '0.0000' '0.0000' '0.0000' '0.0000' '829.7010'
 '829.7503' '895.3441' '895.4970' '934.8234' '1146.1796' '1146.2660'
 '1155.2732' '1223.8748' '1224.7060' '1264.2937' '1264.3193' '1534.6532'
 '1534.8098' '1583.9708' '3111.2458' '3111.3268' '3120.2677' '3201.1444'
 '3201.2235' '3219.9817']

  Vibration                       7                   8                   9           
  Freq [cm^-1]                 829.7010            829.7503            895.3441       
  Irrep                          App                 App                  Ap          
  Reduced mass [u]              1.0225              1.0225              4.3479        
  Force const [mDyne/A]         0.4147              0.4148              2.0536        
  Turning point v=0 [a0]        0.3767              0.3767              0.1759        
  RMS dev v=0 [a0 u^1/2]        0.2694              0.2694              0.2593        
  Char temp [K]               1193.7550           1193.8259           1288.2008       
  ----------------------------------------------------------------------------------
      1   C                0.00  0.00 -0.03   -0.00  0.00  0.01   -0.07  0.31 -0.00   
      2   C                0.00 -0.00  0.00    0.00  0.00 -0.03    0.31 -0.08 -0.00   
      3   C               -0.00  0.00  0.02    0.00 -0.00  0.02   -0.22 -0.21 -0.00   
      4   H                0.27  0.22  0.17    0.33 -0.27 -0.07   -0.13  0.29 -0.03   
      5   H               -0.27 -0.22  0.17   -0.33  0.27 -0.07   -0.13  0.29  0.03   
      6   H               -0.11  0.43 -0.02    0.31  0.10  0.18    0.27 -0.13 -0.03   
      7   H                0.11 -0.43 -0.02   -0.31 -0.10  0.18    0.27 -0.13  0.03   
      8   H               -0.37  0.03 -0.14    0.15  0.37 -0.11   -0.29 -0.26 -0.00   
      9   H                0.37 -0.03 -0.14   -0.15 -0.37 -0.11   -0.29 -0.26  0.00   

  Vibration                       10                  11                  12          
  Freq [cm^-1]                 895.4970            934.8234           1146.1796       
  Irrep                           Ap                 App                  Ap          
  Reduced mass [u]              4.3444              1.0440              1.2051        
  Force const [mDyne/A]         2.0526              0.5375              0.9328        
  Turning point v=0 [a0]        0.1759              0.3512              0.2952        
  RMS dev v=0 [a0 u^1/2]        0.2593              0.2538              0.2292        
  Char temp [K]               1288.4208           1345.0027           1649.0973       
  ----------------------------------------------------------------------------------
      1   C                0.30  0.08  0.00    0.00 -0.00 -0.03    0.06 -0.01  0.00   
      2   C               -0.09 -0.30  0.00   -0.00 -0.00 -0.03    0.02 -0.11 -0.00   
      3   C               -0.22  0.24  0.00    0.00  0.00 -0.03   -0.05 -0.02 -0.00   
      4   H                0.36  0.03 -0.02    0.13  0.33  0.20   -0.29  0.11 -0.01   
      5   H                0.36  0.03  0.02   -0.13 -0.33  0.20   -0.29  0.11  0.01   
      6   H               -0.06 -0.37  0.01    0.35  0.05  0.20   -0.08  0.57  0.00   
      7   H               -0.06 -0.37 -0.01   -0.35 -0.05  0.20   -0.08  0.57 -0.00   
      8   H               -0.20  0.19  0.03    0.22 -0.28  0.20    0.21  0.15  0.01   
      9   H               -0.20  0.19 -0.03   -0.22  0.28  0.20    0.21  0.15 -0.01   

  Vibration                       13                  14                  15          
  Freq [cm^-1]                1146.2660           1155.2732           1223.8748       
  Irrep                           Ap                  Ap                  Ap          
  Reduced mass [u]              1.2049              1.4254              2.8851        
  Force const [mDyne/A]         0.9328              1.1209              2.5462        
  Turning point v=0 [a0]        0.2952              0.2704              0.1847        
  RMS dev v=0 [a0 u^1/2]        0.2292              0.2283              0.2218        
  Char temp [K]               1649.2215           1662.1810           1760.8833       
  ----------------------------------------------------------------------------------
      1   C               -0.08  0.04  0.00    0.11 -0.04  0.00   -0.09 -0.22 -0.00   
      2   C                0.02 -0.00  0.00   -0.02  0.11 -0.00    0.24  0.03 -0.00   
      3   C               -0.07 -0.07 -0.00   -0.09 -0.07 -0.00   -0.15  0.19  0.00   
      4   H                0.44 -0.18 -0.01   -0.38  0.15  0.00   -0.14 -0.34 -0.05   
      5   H                0.44 -0.18  0.01   -0.38  0.15 -0.00   -0.14 -0.34  0.05   
      6   H               -0.02  0.03 -0.01    0.06 -0.39  0.00    0.36  0.05  0.05   
      7   H               -0.02  0.03  0.01    0.06 -0.39 -0.00    0.36  0.05 -0.05   
      8   H                0.40  0.32 -0.01    0.31  0.25  0.00   -0.23  0.29 -0.05   
      9   H                0.40  0.32  0.01    0.31  0.25 -0.00   -0.23  0.29  0.05   

  Vibration                       16                  17                  18          
  Freq [cm^-1]                1224.7060           1264.2937           1264.3193       
  Irrep                          App                 App                 App          
  Reduced mass [u]              1.0078              1.4486              1.4486        
  Force const [mDyne/A]         0.8906              1.3642              1.3643        
  Turning point v=0 [a0]        0.3123              0.2564              0.2564        
  RMS dev v=0 [a0 u^1/2]        0.2217              0.2182              0.2182        
  Char temp [K]               1762.0793           1819.0371           1819.0740       
  ----------------------------------------------------------------------------------
      1   C               -0.00 -0.00 -0.00    0.00  0.00 -0.03   -0.00  0.00  0.16   
      2   C                0.00  0.00  0.00   -0.00 -0.00 -0.12    0.00  0.00 -0.11   
      3   C               -0.00  0.00 -0.00    0.00 -0.00  0.15    0.00 -0.00 -0.05   
      4   H               -0.38  0.15  0.00   -0.33  0.21  0.02   -0.21 -0.34 -0.08   
      5   H                0.38 -0.15  0.00    0.33 -0.21  0.02    0.21  0.34 -0.08   
      6   H               -0.06  0.40 -0.00    0.33 -0.21  0.06    0.22  0.33  0.06   
      7   H                0.06 -0.40 -0.00   -0.33  0.21  0.06   -0.22 -0.33  0.06   
      8   H                0.32  0.25  0.00   -0.33  0.22 -0.08   -0.21 -0.33  0.03   
      9   H               -0.32 -0.25  0.00    0.33 -0.22 -0.08    0.21  0.33  0.03   

  Vibration                       19                  20                  21          
  Freq [cm^-1]                1534.6532           1534.8098           1583.9708       
  Irrep                           Ap                  Ap                  Ap          
  Reduced mass [u]              1.0902              1.0901              1.2773        
  Force const [mDyne/A]         1.5127              1.5130              1.8882        
  Turning point v=0 [a0]        0.2683              0.2683              0.2439        
  RMS dev v=0 [a0 u^1/2]        0.1981              0.1980              0.1950        
  Char temp [K]               2208.0242           2208.2495           2278.9814       
  ----------------------------------------------------------------------------------
      1   C               -0.03 -0.06  0.00   -0.01  0.00  0.00   -0.03 -0.08  0.00   
      2   C               -0.03 -0.02  0.00   -0.06 -0.00 -0.00    0.09  0.01 -0.00   
      3   C                0.01 -0.03 -0.00   -0.04  0.04  0.00   -0.06  0.07  0.00   
      4   H                0.17  0.44  0.33    0.02 -0.00  0.00    0.12  0.29  0.25   
      5   H                0.17  0.44 -0.33    0.02 -0.00 -0.00    0.12  0.29 -0.25   
      6   H                0.23  0.05  0.16    0.41  0.05  0.28   -0.31 -0.05 -0.25   
      7   H                0.23  0.05 -0.16    0.41  0.05 -0.28   -0.31 -0.05  0.25   
      8   H               -0.14  0.19 -0.17    0.26 -0.32  0.29    0.19 -0.25  0.25   
      9   H               -0.14  0.19  0.17    0.26 -0.32 -0.29    0.19 -0.25 -0.25   

  Vibration                       22                  23                  24          
  Freq [cm^-1]                3111.2458           3111.3268           3120.2677       
  Irrep                           Ap                  Ap                  Ap          
  Reduced mass [u]              1.0503              1.0503              1.0657        
  Force const [mDyne/A]         5.9903              5.9907              6.1134        
  Turning point v=0 [a0]        0.1919              0.1919              0.1903        
  RMS dev v=0 [a0 u^1/2]        0.1391              0.1391              0.1389        
  Char temp [K]               4476.3900           4476.5066           4489.3705       
  ----------------------------------------------------------------------------------
      1   C               -0.02 -0.04 -0.00    0.01  0.03  0.00    0.02  0.04  0.00   
      2   C                0.00  0.00 -0.00    0.05  0.01  0.00   -0.04 -0.01 -0.00   
      3   C                0.03 -0.03 -0.00    0.01 -0.02 -0.00    0.03 -0.03 -0.00   
      4   H                0.09  0.24 -0.42   -0.06 -0.15  0.26   -0.08 -0.19  0.35   
      5   H                0.09  0.24  0.42   -0.06 -0.15 -0.26   -0.08 -0.19 -0.35   
      6   H               -0.01 -0.00  0.02   -0.30 -0.04  0.49    0.21  0.03 -0.35   
      7   H               -0.01 -0.00 -0.02   -0.30 -0.04 -0.49    0.21  0.03  0.35   
      8   H               -0.16  0.21  0.43   -0.09  0.11  0.23   -0.13  0.17  0.35   
      9   H               -0.16  0.21 -0.43   -0.09  0.11 -0.23   -0.13  0.17 -0.35   

  Vibration                       25                  26                  27          
  Freq [cm^-1]                3201.1444           3201.2235           3219.9817       
  Irrep                          App                 App                 App          
  Reduced mass [u]              1.1201              1.1201              1.1162        
  Force const [mDyne/A]         6.7625              6.7628              6.8186        
  Turning point v=0 [a0]        0.1832              0.1832              0.1830        
  RMS dev v=0 [a0 u^1/2]        0.1371              0.1371              0.1367        
  Char temp [K]               4605.7341           4605.8479           4632.8368       
  ----------------------------------------------------------------------------------
      1   C               -0.00 -0.00  0.07   -0.00 -0.00  0.05   -0.00 -0.00 -0.06   
      2   C                0.00  0.00 -0.08   -0.00 -0.00  0.03    0.00  0.00 -0.06   
      3   C               -0.00  0.00  0.01   -0.00  0.00 -0.08   -0.00  0.00 -0.06   
      4   H                0.09  0.23 -0.39    0.07  0.17 -0.28   -0.08 -0.21  0.34   
      5   H               -0.09 -0.23 -0.39   -0.07 -0.17 -0.28    0.08  0.21  0.34   
      6   H               -0.28 -0.04  0.44    0.12  0.02 -0.20   -0.22 -0.03  0.34   
      7   H                0.28  0.04  0.44   -0.12 -0.02 -0.20    0.22  0.03  0.34   
      8   H                0.02 -0.03 -0.05   -0.19  0.24  0.48   -0.14  0.17  0.34   
      9   H               -0.02  0.03 -0.05    0.19 -0.24  0.48    0.14 -0.17  0.34   

  ==> Thermochemistry Components <==

  Entropy, S
    Electronic S            0.000 [cal/(mol K)]        0.000 [J/(mol K)]       0.00000000 [mEh/K] (multiplicity = 1)
    Translational S        37.135 [cal/(mol K)]      155.375 [J/(mol K)]       0.05917914 [mEh/K] (mol. weight = 42.0470 [u], P = 101325.00 [Pa])
    Rotational S           21.699 [cal/(mol K)]       90.789 [J/(mol K)]       0.03457982 [mEh/K] (symmetry no. = 1)
    Vibrational S           1.094 [cal/(mol K)]        4.579 [J/(mol K)]       0.00174413 [mEh/K]
  Total S                  59.929 [cal/(mol K)]      250.743 [J/(mol K)]       0.09550309 [mEh/K]
  Correction S              0.000 [cal/(mol K)]        0.000 [J/(mol K)]       0.00000000 [mEh/K]

  Constant volume heat capacity, Cv
    Electronic Cv           0.000 [cal/(mol K)]        0.000 [J/(mol K)]       0.00000000 [mEh/K]
    Translational Cv        2.981 [cal/(mol K)]       12.472 [J/(mol K)]       0.00475022 [mEh/K]
    Rotational Cv           2.981 [cal/(mol K)]       12.472 [J/(mol K)]       0.00475022 [mEh/K]
    Vibrational Cv          4.295 [cal/(mol K)]       17.971 [J/(mol K)]       0.00684482 [mEh/K]
  Total Cv                 10.257 [cal/(mol K)]       42.914 [J/(mol K)]       0.01634525 [mEh/K]
  Correction Cv             0.000 [cal/(mol K)]        0.000 [J/(mol K)]       0.00000000 [mEh/K]

  Constant pressure heat capacity, Cp
    Electronic Cp           0.000 [cal/(mol K)]        0.000 [J/(mol K)]       0.00000000 [mEh/K]
    Translational Cp        4.968 [cal/(mol K)]       20.786 [J/(mol K)]       0.00791703 [mEh/K]
    Rotational Cp           2.981 [cal/(mol K)]       12.472 [J/(mol K)]       0.00475022 [mEh/K]
    Vibrational Cp          4.295 [cal/(mol K)]       17.971 [J/(mol K)]       0.00684482 [mEh/K]
  Total Cp                 12.244 [cal/(mol K)]       51.229 [J/(mol K)]       0.01951206 [mEh/K]
  Correction Cp             0.000 [cal/(mol K)]        0.000 [J/(mol K)]       0.00000000 [mEh/K]

  ==> Thermochemistry Energy Analysis <==

  Raw electronic energy, E0
  Total E0, Electronic energy at well bottom at 0 [K]                 -117.51841600 [Eh]

  Zero-point energy, ZPE_vib = Sum_i nu_i / 2
    Electronic ZPE          0.000 [kcal/mol]        0.000 [kJ/mol]       0.00000000 [Eh]
    Translational ZPE       0.000 [kcal/mol]        0.000 [kJ/mol]       0.00000000 [Eh]
    Rotational ZPE          0.000 [kcal/mol]        0.000 [kJ/mol]       0.00000000 [Eh]
    Vibrational ZPE        52.077 [kcal/mol]      217.892 [kJ/mol]       0.08299058 [Eh]       18214.326 [cm^-1]
  Correction ZPE           52.077 [kcal/mol]      217.892 [kJ/mol]       0.08299058 [Eh]       18214.326 [cm^-1]
  Total ZPE, Electronic energy at 0 [K]                               -117.43542543 [Eh]

  Thermal Energy, E (includes ZPE)
    Electronic E            0.000 [kcal/mol]        0.000 [kJ/mol]       0.00000000 [Eh]
    Translational E         0.889 [kcal/mol]        3.718 [kJ/mol]       0.00141628 [Eh]
    Rotational E            0.889 [kcal/mol]        3.718 [kJ/mol]       0.00141628 [Eh]
    Vibrational E          52.346 [kcal/mol]      219.014 [kJ/mol]       0.08341808 [Eh]
  Correction E             54.123 [kcal/mol]      226.451 [kJ/mol]       0.08625063 [Eh]
  Total E, Electronic energy at  298.15 [K]                           -117.43216537 [Eh]

  Enthalpy, H_trans = E_trans + k_B * T
    Electronic H            0.000 [kcal/mol]        0.000 [kJ/mol]       0.00000000 [Eh]
    Translational H         1.481 [kcal/mol]        6.197 [kJ/mol]       0.00236046 [Eh]
    Rotational H            0.889 [kcal/mol]        3.718 [kJ/mol]       0.00141628 [Eh]
    Vibrational H          52.346 [kcal/mol]      219.014 [kJ/mol]       0.08341808 [Eh]
  Correction H             54.716 [kcal/mol]      228.930 [kJ/mol]       0.08719481 [Eh]
  Total H, Enthalpy at  298.15 [K]                                    -117.43122119 [Eh]

  Gibbs free energy, G = H - T * S
    Electronic G            0.000 [kcal/mol]        0.000 [kJ/mol]       0.00000000 [Eh]
    Translational G        -9.591 [kcal/mol]      -40.128 [kJ/mol]      -0.01528380 [Eh]
    Rotational G           -5.581 [kcal/mol]      -23.350 [kJ/mol]      -0.00889370 [Eh]
    Vibrational G          52.019 [kcal/mol]      217.649 [kJ/mol]       0.08289806 [Eh]
  Correction G             36.848 [kcal/mol]      154.171 [kJ/mol]       0.05872057 [Eh]
  Total G, Free enthalpy at  298.15 [K]                               -117.45969543 [Eh]

    Psi4 stopped on: Tuesday, 19 April 2022 02:18AM
    Psi4 wall time for execution: 0:01:42.21

*** Psi4 exiting successfully. Buy a developer a beer!
