
    -----------------------------------------------------------------------
          Psi4: An Open-Source Ab Initio Electronic Structure Package
                               Psi4 1.3.2 release

                         Git: Rev {HEAD} ecbda83 


    R. M. Parrish, L. A. Burns, D. G. A. Smith, A. C. Simmonett,
    A. E. DePrince III, E. G. Hohenstein, U. Bozkaya, A. Yu. Sokolov,
    R. Di Remigio, R. M. Richard, J. F. Gonthier, A. M. James,
    H. R. McAlexander, A. Kumar, M. Saitow, X. Wang, B. P. Pritchard,
    P. Verma, H. F. Schaefer III, K. Patkowski, R. A. King, E. F. Valeev,
    F. A. Evangelista, J. M. Turney, T. D. Crawford, and C. D. Sherrill,
    J. Chem. Theory Comput. 13(7) pp 3185--3197 (2017).
    (doi: 10.1021/acs.jctc.7b00174)


                         Additional Contributions by
    P. Kraus, H. Kruse, M. H. Lechner, M. C. Schieber, R. A. Shaw,
    A. Alenaizan, R. Galvelis, Z. L. Glick, S. Lehtola, and J. P. Misiewicz

    -----------------------------------------------------------------------


    Psi4 started on: Tuesday, 19 April 2022 03:17PM

    Process ID: 4074
    Host:       atlantis
    PSIDATADIR: /home/akrom/software/anaconda3/envs/ffpenv/share/psi4
    Memory:     500.0 MiB
    Threads:    1
    
  ==> Input File <==

--------------------------------------------------------------------------
set basis  6-311++G**
molecule {
0 1
   C        0.32153        0.81326        0.00000
   C       -0.86505       -0.12817        0.00000
   C        0.54353       -0.68508        0.00000
   H        0.53795        1.36069       -0.92039
   H        0.53795        1.36069        0.92039
   H       -1.44742       -0.21449        0.92034
   H       -1.44742       -0.21449       -0.92034
   H        0.90937       -1.14629       -0.92037
   H        0.90937       -1.14629        0.92037
}
energy('CCSD')
frequencies('CCSD')
--------------------------------------------------------------------------

*** tstart() called on atlantis
*** at Tue Apr 19 15:17:57 2022

   => Loading Basis Set <=

    Name: 6-311++G**
    Role: ORBITAL
    Keyword: BASIS
    atoms 1-3 entry C          line   119 file /home/akrom/software/anaconda3/envs/ffpenv/share/psi4/basis/6-311ppgss.gbs 
    atoms 4-9 entry H          line    42 file /home/akrom/software/anaconda3/envs/ffpenv/share/psi4/basis/6-311ppgss.gbs 


         ---------------------------------------------------------
                                   SCF
               by Justin Turney, Rob Parrish, Andy Simmonett
                          and Daniel G. A. Smith
                              RHF Reference
                        1 Threads,    500 MiB Core
         ---------------------------------------------------------

  ==> Geometry <==

    Molecular point group: cs
    Full point group: Cs

    Geometry (in Angstrom), charge = 0, multiplicity = 1:

       Center              X                  Y                   Z               Mass       
    ------------   -----------------  -----------------  -----------------  -----------------
         C            0.321531939855     0.813261460475     0.000000000000    12.000000000000
         C           -0.865048060145    -0.128168539525     0.000000000000    12.000000000000
         C            0.543531939855    -0.685078539525     0.000000000000    12.000000000000
         H            0.537951939855     1.360691460475    -0.920390000000     1.007825032230
         H            0.537951939855     1.360691460475     0.920390000000     1.007825032230
         H           -1.447418060145    -0.214488539525     0.920340000000     1.007825032230
         H           -1.447418060145    -0.214488539525    -0.920340000000     1.007825032230
         H            0.909371939855    -1.146288539525    -0.920370000000     1.007825032230
         H            0.909371939855    -1.146288539525     0.920370000000     1.007825032230

  Running in cs symmetry.

  Rotational constants: A =      0.66472  B =      0.66470  C =      0.41647 [cm^-1]
  Rotational constants: A =  19927.70596  B =  19927.20236  C =  12485.44714 [MHz]
  Nuclear repulsion =   75.281464809014025

  Charge       = 0
  Multiplicity = 1
  Electrons    = 24
  Nalpha       = 12
  Nbeta        = 12

  ==> Algorithm <==

  SCF Algorithm Type is PK.
  DIIS enabled.
  MOM disabled.
  Fractional occupation disabled.
  Guess Type is SAD.
  Energy threshold   = 1.00e-08
  Density threshold  = 1.00e-08
  Integral threshold = 0.00e+00

  ==> Primary Basis <==

  Basis Set: 6-311++G**
    Blend: 6-311++G**
    Number of shells: 60
    Number of basis function: 108
    Number of Cartesian functions: 111
    Spherical Harmonics?: true
    Max angular momentum: 2

  ==> Pre-Iterations <==

   -------------------------------------------------------
    Irrep   Nso     Nmo     Nalpha   Nbeta   Ndocc  Nsocc
   -------------------------------------------------------
     A'        69      69       0       0       0       0
     A"        39      39       0       0       0       0
   -------------------------------------------------------
    Total     108     108      12      12      12       0
   -------------------------------------------------------

  ==> Integral Setup <==

  Using in-core PK algorithm.
   Calculation information:
      Number of atoms:                   9
      Number of AO shells:              60
      Number of primitives:             99
      Number of atomic orbitals:       111
      Number of basis functions:       108

      Integral cutoff                 1.00e-12
      Number of threads:                 1

  Performing in-core PK
  Using 34650882 doubles for integral storage.
  We computed 1673160 shell quartets total.
  Whereas there are 1675365 unique shell quartets.

  ==> DiskJK: Disk-Based J/K Matrices <==

    J tasked:                  Yes
    K tasked:                  Yes
    wK tasked:                  No
    Memory [MiB]:              375
    Schwarz Cutoff:          1E-12

    OpenMP threads:              1

  Minimum eigenvalue in the overlap matrix is 8.8978795943E-05.
  Using Symmetric Orthogonalization.

  SCF Guess: Superposition of Atomic Densities via on-the-fly atomic UHF.

  ==> Iterations <==

                        Total Energy        Delta E     RMS |[F,P]|

   @RHF iter SAD:  -116.63456427528010   -1.16635e+02   0.00000e+00 
   @RHF iter   1:  -116.96161622770767   -3.27052e-01   5.80793e-03 DIIS
   @RHF iter   2:  -117.05930420464281   -9.76880e-02   2.91135e-03 DIIS
   @RHF iter   3:  -117.08635843787840   -2.70542e-02   4.27148e-04 DIIS
   @RHF iter   4:  -117.08748661652521   -1.12818e-03   5.52623e-05 DIIS
   @RHF iter   5:  -117.08751449152794   -2.78750e-05   1.26364e-05 DIIS
   @RHF iter   6:  -117.08751606901006   -1.57748e-06   2.15142e-06 DIIS
   @RHF iter   7:  -117.08751612138974   -5.23797e-08   3.33492e-07 DIIS
   @RHF iter   8:  -117.08751612247670   -1.08696e-09   4.06213e-08 DIIS
   @RHF iter   9:  -117.08751612249075   -1.40545e-11   7.04137e-09 DIIS
  Energy and wave function converged.


  ==> Post-Iterations <==

    Orbital Energies [Eh]
    ---------------------

    Doubly Occupied:                                                      

       1Ap   -11.228411     2Ap   -11.227439     3Ap   -11.227434  
       4Ap    -1.126349     5Ap    -0.814600     6Ap    -0.814594  
       1App   -0.663762     7Ap    -0.622866     2App   -0.510817  
       3App   -0.510802     8Ap    -0.417300     9Ap    -0.417292  

    Virtual:                                                              

      10Ap     0.049583     4App    0.060286    11Ap     0.060791  
      12Ap     0.060791     5App    0.091500     6App    0.091504  
      13Ap     0.136011    14Ap     0.136213    15Ap     0.136216  
      16Ap     0.174065    17Ap     0.180122    18Ap     0.180126  
       7App    0.207750     8App    0.211885     9App    0.211892  
      19Ap     0.222872    20Ap     0.224109    21Ap     0.224110  
      10App    0.284570    22Ap     0.294494    23Ap     0.336999  
      11App    0.363437    12App    0.363450    24Ap     0.381202  
      25Ap     0.381209    26Ap     0.471902    27Ap     0.471908  
      28Ap     0.545830    13App    0.588265    29Ap     0.653138  
      30Ap     0.653154    14App    0.715512    15App    0.715561  
      31Ap     0.752582    16App    0.850199    32Ap     0.861139  
      33Ap     0.864291    34Ap     0.864300    17App    0.880657  
      18App    0.880666    35Ap     0.910050    36Ap     0.910060  
      37Ap     0.967067    38Ap     1.119453    39Ap     1.119454  
      19App    1.432596    40Ap     1.471904    20App    1.479399  
      21App    1.479411    22App    1.624404    41Ap     1.718163  
      42Ap     1.718190    23App    1.776971    24App    1.777028  
      43Ap     1.859402    25App    1.897858    44Ap     1.925568  
      45Ap     1.925607    26App    2.031894    27App    2.031926  
      46Ap     2.032678    47Ap     2.114292    48Ap     2.114297  
      49Ap     2.329779    50Ap     2.329786    28App    2.350502  
      29App    2.350513    51Ap     2.412091    52Ap     2.536655  
      53Ap     2.536719    54Ap     2.602733    30App    2.684754  
      55Ap     2.719199    31App    2.778635    32App    2.861119  
      33App    2.861149    56Ap     2.993613    57Ap     2.993672  
      34App    3.036288    58Ap     3.072752    59Ap     3.077212  
      60Ap     3.077230    35App    3.324024    36App    3.324066  
      61Ap     3.325231    62Ap     3.325241    63Ap     3.785714  
      37App    3.926927    64Ap     3.930311    38App    4.260447  
      39App    4.260473    65Ap     4.818538    66Ap     4.818569  
      67Ap    25.045863    68Ap    25.045890    69Ap    25.060521  

    Final Occupation by Irrep:
             Ap   App 
    DOCC [     9,    3 ]

  @RHF Final Energy:  -117.08751612249075

   => Energetics <=

    Nuclear Repulsion Energy =             75.2814648090140253
    One-Electron Energy =                -305.5746279134332895
    Two-Electron Energy =                 113.2056469819284956
    Total Energy =                       -117.0875161224907544

Computation Completed


Properties will be evaluated at   0.000000,   0.000000,   0.000000 [a0]

Properties computed using the SCF density matrix

  Nuclear Dipole Moment: [e a0]
     X:    -0.0002      Y:    -0.0002      Z:     0.0000

  Electronic Dipole Moment: [e a0]
     X:     0.0001      Y:     0.0001      Z:     0.0000

  Dipole Moment: [e a0]
     X:    -0.0000      Y:    -0.0000      Z:     0.0000     Total:     0.0000

  Dipole Moment: [D]
     X:    -0.0001      Y:    -0.0001      Z:     0.0000     Total:     0.0001


*** tstop() called on atlantis at Tue Apr 19 15:17:59 2022
Module time:
	user time   =       2.25 seconds =       0.04 minutes
	system time =       0.06 seconds =       0.00 minutes
	total time  =          2 seconds =       0.03 minutes
Total time:
	user time   =       2.25 seconds =       0.04 minutes
	system time =       0.06 seconds =       0.00 minutes
	total time  =          2 seconds =       0.03 minutes
 MINTS: Wrapper to libmints.
   by Justin Turney

   Calculation information:
      Number of threads:                 1
      Number of atoms:                   9
      Number of AO shells:              60
      Number of SO shells:              45
      Number of primitives:             99
      Number of atomic orbitals:       111
      Number of basis functions:       108

      Number of irreps:                  2
      Integral cutoff                 0.00e+00
      Number of functions per irrep: [  69   39 ]

 OEINTS: Overlap, kinetic, potential, dipole, and quadrupole integrals
         stored in file 35.

      Computing two-electron integrals...done
      Computed 8695401 non-zero two-electron integrals.
        Stored in file 33.


*** tstart() called on atlantis
*** at Tue Apr 19 15:18:00 2022


	Wfn Parameters:
	--------------------
	Wavefunction         = CCSD
	Number of irreps     = 2
	Number of MOs        = 108
	Number of active MOs = 108
	AO-Basis             = NONE
	Semicanonical        = false
	Reference            = RHF
	Print Level          = 1

	IRREP	# MOs	# FZDC	# DOCC	# SOCC	# VIRT	# FZVR
	-----	-----	------	------	------	------	------
	 Ap	   69	    0	    9	    0	    60	    0
	 App	   39	    0	    3	    0	    36	    0
	Transforming integrals...
	IWL integrals will be deleted.
	(OO|OO)...
	Presorting SO-basis two-electron integrals.
	Sorting File: SO Ints (nn|nn) nbuckets = 1
	Transforming the one-electron integrals and constructing Fock matrices
	Starting first half-transformation.
	Sorting half-transformed integrals.
	First half integral transformation complete.
	Starting second half-transformation.
	Two-electron integral transformation complete.
	(OO|OV)...
	Starting second half-transformation.
	Two-electron integral transformation complete.
	(OO|VV)...
	Starting second half-transformation.
	Two-electron integral transformation complete.
	(OV|OO)...
	Starting first half-transformation.
	Sorting half-transformed integrals.
	First half integral transformation complete.
	Starting second half-transformation.
	Two-electron integral transformation complete.
	(OV|OV)...
	Starting second half-transformation.
	Two-electron integral transformation complete.
	(OV|VV)...
	Starting second half-transformation.
	Two-electron integral transformation complete.
	(VV|OO)...
	Starting first half-transformation.
	Sorting half-transformed integrals.
	First half integral transformation complete.
	Starting second half-transformation.
	Two-electron integral transformation complete.
	(VV|OV)...
	Starting second half-transformation.
	Two-electron integral transformation complete.
	(VV|VV)...
	Starting second half-transformation.
	Two-electron integral transformation complete.
	Frozen core energy     =      0.00000000000000

	Size of irrep 0 of <ab|cd> integrals:     23.971 (MW) /    191.767 (MB)
	Size of irrep 1 of <ab|cd> integrals:     18.662 (MW) /    149.299 (MB)
	Total:                                    42.633 (MW) /    341.066 (MB)

	Size of irrep 0 of <ia|bc> integrals:      3.173 (MW) /     25.381 (MB)
	Size of irrep 1 of <ia|bc> integrals:      2.177 (MW) /     17.418 (MB)
	Total:                                     5.350 (MW) /     42.799 (MB)

	Size of irrep 0 of tijab amplitudes:       0.441 (MW) /      3.525 (MB)
	Size of irrep 1 of tijab amplitudes:       0.233 (MW) /      1.866 (MB)
	Total:                                     0.674 (MW) /      5.391 (MB)

	Nuclear Rep. energy          =     75.28146480901403
	SCF energy                   =   -117.08751612249075
	One-electron energy          =   -305.57462898424791
	Two-electron energy          =    113.20564805274243
	Reference energy             =   -117.08751612249144

*** tstop() called on atlantis at Tue Apr 19 15:18:04 2022
Module time:
	user time   =       2.43 seconds =       0.04 minutes
	system time =       1.42 seconds =       0.02 minutes
	total time  =          4 seconds =       0.07 minutes
Total time:
	user time   =       5.55 seconds =       0.09 minutes
	system time =       1.52 seconds =       0.03 minutes
	total time  =          7 seconds =       0.12 minutes
            **************************
            *                        *
            *        CCENERGY        *
            *                        *
            **************************

    Nuclear Rep. energy (wfn)     =   75.281464809014025
    SCF energy          (wfn)     = -117.087516122490754
    Reference energy    (file100) = -117.087516122491436

    Input parameters:
    -----------------
    Wave function   =     CCSD
    Reference wfn   =     RHF
    Brueckner       =     No
    Memory (Mbytes) =     524.3
    Maxiter         =     50
    R_Convergence   =     1.0e-07
    E_Convergence   =     1.0e-06
    Restart         =     Yes
    DIIS            =     Yes
    AO Basis        =     NONE
    ABCD            =     NEW
    Cache Level     =     2
    Cache Type      =     LOW
    Print Level     =     1
    Num. of threads =     1
    # Amps to Print =     10
    Print MP2 Amps? =     No
    Analyze T2 Amps =     No
    Print Pair Ener =     No
    Local CC        =     No
    SCS-MP2         =     False
    SCSN-MP2        =     False
    SCS-CCSD        =     False

MP2 correlation energy -0.5077954044136889
                Solving CC Amplitude Equations
                ------------------------------
  Iter             Energy              RMS        T1Diag      D1Diag    New D1Diag    D2Diag
  ----     ---------------------    ---------   ----------  ----------  ----------   --------
     0        -0.507795404413689    0.000e+00    0.000000    0.000000    0.000000    0.135478
     1        -0.531224530151566    5.742e-02    0.005470    0.012732    0.012732    0.141863
     2        -0.544572176953217    1.870e-02    0.005942    0.013333    0.013333    0.148644
     3        -0.545686413435165    5.251e-03    0.006394    0.014513    0.014513    0.149995
     4        -0.545728988145554    1.398e-03    0.006405    0.014515    0.014515    0.150404
     5        -0.545768268876438    3.570e-04    0.006405    0.014507    0.014507    0.150485
     6        -0.545771919913544    1.099e-04    0.006404    0.014500    0.014500    0.150495
     7        -0.545771563411580    2.582e-05    0.006403    0.014496    0.014496    0.150495
     8        -0.545771962294232    6.932e-06    0.006403    0.014496    0.014496    0.150496
     9        -0.545772002810734    1.973e-06    0.006403    0.014496    0.014496    0.150496
    10        -0.545771937863405    5.773e-07    0.006403    0.014496    0.014496    0.150496
    11        -0.545771952420239    1.797e-07    0.006403    0.014496    0.014496    0.150496
    12        -0.545771949897283    4.095e-08    0.006403    0.014496    0.014496    0.150496

    Iterations converged.


    Largest TIA Amplitudes:
              9  66         0.0096070762
              9  69        -0.0077330467
              7  31        -0.0071767468
              8  32         0.0071764559
              8  23        -0.0070971152
              7  24         0.0070969102
             11  73         0.0049281973
             10  74         0.0049276333
              9  72         0.0045400151
              7  51        -0.0044447378

    Largest TIjAb Amplitudes:
      7   7  13  13        -0.0412338400
      8   8  13  13        -0.0412324411
      7   7  13  22        -0.0194834629
      7   7  22  13        -0.0194834629
      8   8  13  22        -0.0194315514
      8   8  22  13        -0.0194315514
     11  11  73  73        -0.0185744621
     10  10  74  74        -0.0185742052
      7   8  13  16        -0.0139830584
      8   7  16  13        -0.0139830584

    SCF energy       (wfn)                    = -117.087516122490754
    Reference energy (file100)                = -117.087516122491436

    Opposite-spin MP2 correlation energy      =   -0.397706962900587
    Same-spin MP2 correlation energy          =   -0.110088441513102
    MP2 correlation energy                    =   -0.507795404413689
      * MP2 total energy                      = -117.595311526905121

    Opposite-spin CCSD correlation energy     =   -0.444050294940376
    Same-spin CCSD correlation energy         =   -0.101721654956907
    CCSD correlation energy                   =   -0.545771949897283
      * CCSD total energy                     = -117.633288072388723

gradient() will perform analytic gradient computation.

*** tstart() called on atlantis
*** at Tue Apr 19 15:18:10 2022

   => Loading Basis Set <=

    Name: 6-311++G**
    Role: ORBITAL
    Keyword: BASIS
    atoms 1-3 entry C          line   119 file /home/akrom/software/anaconda3/envs/ffpenv/share/psi4/basis/6-311ppgss.gbs 
    atoms 4-9 entry H          line    42 file /home/akrom/software/anaconda3/envs/ffpenv/share/psi4/basis/6-311ppgss.gbs 


         ---------------------------------------------------------
                                   SCF
               by Justin Turney, Rob Parrish, Andy Simmonett
                          and Daniel G. A. Smith
                              RHF Reference
                        1 Threads,    500 MiB Core
         ---------------------------------------------------------

  ==> Geometry <==

    Molecular point group: cs
    Full point group: Cs

    Geometry (in Angstrom), charge = 0, multiplicity = 1:

       Center              X                  Y                   Z               Mass       
    ------------   -----------------  -----------------  -----------------  -----------------
         C            0.321531939855     0.813261460475     0.000000000000    12.000000000000
         C           -0.865048060145    -0.128168539525     0.000000000000    12.000000000000
         C            0.543531939855    -0.685078539525     0.000000000000    12.000000000000
         H            0.537951939855     1.360691460475    -0.920390000000     1.007825032230
         H            0.537951939855     1.360691460475     0.920390000000     1.007825032230
         H           -1.447418060145    -0.214488539525     0.920340000000     1.007825032230
         H           -1.447418060145    -0.214488539525    -0.920340000000     1.007825032230
         H            0.909371939855    -1.146288539525    -0.920370000000     1.007825032230
         H            0.909371939855    -1.146288539525     0.920370000000     1.007825032230

  Running in cs symmetry.

  Rotational constants: A =      0.66472  B =      0.66470  C =      0.41647 [cm^-1]
  Rotational constants: A =  19927.70596  B =  19927.20236  C =  12485.44714 [MHz]
  Nuclear repulsion =   75.281464809014025

  Charge       = 0
  Multiplicity = 1
  Electrons    = 24
  Nalpha       = 12
  Nbeta        = 12

  ==> Algorithm <==

  SCF Algorithm Type is PK.
  DIIS enabled.
  MOM disabled.
  Fractional occupation disabled.
  Guess Type is SAD.
  Energy threshold   = 1.00e-10
  Density threshold  = 1.00e-10
  Integral threshold = 0.00e+00

  ==> Primary Basis <==

  Basis Set: 6-311++G**
    Blend: 6-311++G**
    Number of shells: 60
    Number of basis function: 108
    Number of Cartesian functions: 111
    Spherical Harmonics?: true
    Max angular momentum: 2

  ==> Pre-Iterations <==

   -------------------------------------------------------
    Irrep   Nso     Nmo     Nalpha   Nbeta   Ndocc  Nsocc
   -------------------------------------------------------
     A'        69      69       0       0       0       0
     A"        39      39       0       0       0       0
   -------------------------------------------------------
    Total     108     108      12      12      12       0
   -------------------------------------------------------

  ==> Integral Setup <==

  Using in-core PK algorithm.
   Calculation information:
      Number of atoms:                   9
      Number of AO shells:              60
      Number of primitives:             99
      Number of atomic orbitals:       111
      Number of basis functions:       108

      Integral cutoff                 1.00e-12
      Number of threads:                 1

  Performing in-core PK
  Using 34650882 doubles for integral storage.
  We computed 1673160 shell quartets total.
  Whereas there are 1675365 unique shell quartets.

  ==> DiskJK: Disk-Based J/K Matrices <==

    J tasked:                  Yes
    K tasked:                  Yes
    wK tasked:                  No
    Memory [MiB]:              375
    Schwarz Cutoff:          1E-12

    OpenMP threads:              1

  Minimum eigenvalue in the overlap matrix is 8.8978795942E-05.
  Using Symmetric Orthogonalization.

  SCF Guess: Superposition of Atomic Densities via on-the-fly atomic UHF.

  ==> Iterations <==

                        Total Energy        Delta E     RMS |[F,P]|

   @RHF iter SAD:  -116.63456427528016   -1.16635e+02   0.00000e+00 
   @RHF iter   1:  -116.96161622770754   -3.27052e-01   5.80793e-03 DIIS
   @RHF iter   2:  -117.05930420464283   -9.76880e-02   2.91135e-03 DIIS
   @RHF iter   3:  -117.08635843787846   -2.70542e-02   4.27148e-04 DIIS
   @RHF iter   4:  -117.08748661652538   -1.12818e-03   5.52623e-05 DIIS
   @RHF iter   5:  -117.08751449152774   -2.78750e-05   1.26364e-05 DIIS
   @RHF iter   6:  -117.08751606900996   -1.57748e-06   2.15142e-06 DIIS
   @RHF iter   7:  -117.08751612138957   -5.23796e-08   3.33492e-07 DIIS
   @RHF iter   8:  -117.08751612247691   -1.08734e-09   4.06213e-08 DIIS
   @RHF iter   9:  -117.08751612249040   -1.34861e-11   7.04137e-09 DIIS
   @RHF iter  10:  -117.08751612249100   -5.96856e-13   1.25509e-09 DIIS
   @RHF iter  11:  -117.08751612249083    1.70530e-13   4.30633e-10 DIIS
   @RHF iter  12:  -117.08751612249088   -5.68434e-14   4.67842e-11 DIIS
  Energy and wave function converged.


  ==> Post-Iterations <==

    Orbital Energies [Eh]
    ---------------------

    Doubly Occupied:                                                      

       1Ap   -11.228411     2Ap   -11.227439     3Ap   -11.227434  
       4Ap    -1.126349     5Ap    -0.814600     6Ap    -0.814594  
       1App   -0.663762     7Ap    -0.622866     2App   -0.510817  
       3App   -0.510802     8Ap    -0.417300     9Ap    -0.417292  

    Virtual:                                                              

      10Ap     0.049583     4App    0.060286    11Ap     0.060791  
      12Ap     0.060791     5App    0.091500     6App    0.091504  
      13Ap     0.136011    14Ap     0.136213    15Ap     0.136216  
      16Ap     0.174065    17Ap     0.180122    18Ap     0.180126  
       7App    0.207750     8App    0.211885     9App    0.211892  
      19Ap     0.222872    20Ap     0.224109    21Ap     0.224110  
      10App    0.284570    22Ap     0.294494    23Ap     0.336999  
      11App    0.363437    12App    0.363450    24Ap     0.381202  
      25Ap     0.381209    26Ap     0.471902    27Ap     0.471908  
      28Ap     0.545830    13App    0.588265    29Ap     0.653138  
      30Ap     0.653154    14App    0.715512    15App    0.715561  
      31Ap     0.752582    16App    0.850199    32Ap     0.861139  
      33Ap     0.864291    34Ap     0.864300    17App    0.880657  
      18App    0.880666    35Ap     0.910050    36Ap     0.910060  
      37Ap     0.967067    38Ap     1.119453    39Ap     1.119454  
      19App    1.432596    40Ap     1.471904    20App    1.479399  
      21App    1.479411    22App    1.624404    41Ap     1.718163  
      42Ap     1.718190    23App    1.776971    24App    1.777028  
      43Ap     1.859402    25App    1.897858    44Ap     1.925568  
      45Ap     1.925607    26App    2.031894    27App    2.031926  
      46Ap     2.032678    47Ap     2.114292    48Ap     2.114297  
      49Ap     2.329779    50Ap     2.329786    28App    2.350502  
      29App    2.350513    51Ap     2.412091    52Ap     2.536655  
      53Ap     2.536719    54Ap     2.602733    30App    2.684754  
      55Ap     2.719199    31App    2.778635    32App    2.861119  
      33App    2.861149    56Ap     2.993613    57Ap     2.993672  
      34App    3.036288    58Ap     3.072752    59Ap     3.077212  
      60Ap     3.077230    35App    3.324024    36App    3.324066  
      61Ap     3.325231    62Ap     3.325241    63Ap     3.785714  
      37App    3.926927    64Ap     3.930311    38App    4.260447  
      39App    4.260473    65Ap     4.818538    66Ap     4.818569  
      67Ap    25.045864    68Ap    25.045890    69Ap    25.060521  

    Final Occupation by Irrep:
             Ap   App 
    DOCC [     9,    3 ]

  @RHF Final Energy:  -117.08751612249088

   => Energetics <=

    Nuclear Repulsion Energy =             75.2814648090140253
    One-Electron Energy =                -305.5746288020407064
    Two-Electron Energy =                 113.2056478705357847
    Total Energy =                       -117.0875161224908823

Computation Completed


Properties will be evaluated at   0.000000,   0.000000,   0.000000 [a0]

Properties computed using the SCF density matrix

  Nuclear Dipole Moment: [e a0]
     X:    -0.0002      Y:    -0.0002      Z:     0.0000

  Electronic Dipole Moment: [e a0]
     X:     0.0001      Y:     0.0001      Z:     0.0000

  Dipole Moment: [e a0]
     X:    -0.0000      Y:    -0.0000      Z:     0.0000     Total:     0.0000

  Dipole Moment: [D]
     X:    -0.0001      Y:    -0.0001      Z:     0.0000     Total:     0.0001


*** tstop() called on atlantis at Tue Apr 19 15:18:12 2022
Module time:
	user time   =       2.30 seconds =       0.04 minutes
	system time =       0.02 seconds =       0.00 minutes
	total time  =          2 seconds =       0.03 minutes
Total time:
	user time   =      11.70 seconds =       0.20 minutes
	system time =       3.48 seconds =       0.06 minutes
	total time  =         15 seconds =       0.25 minutes
 MINTS: Wrapper to libmints.
   by Justin Turney

   Calculation information:
      Number of threads:                 1
      Number of atoms:                   9
      Number of AO shells:              60
      Number of SO shells:              45
      Number of primitives:             99
      Number of atomic orbitals:       111
      Number of basis functions:       108

      Number of irreps:                  2
      Integral cutoff                 0.00e+00
      Number of functions per irrep: [  69   39 ]

 OEINTS: Overlap, kinetic, potential, dipole, and quadrupole integrals
         stored in file 35.

      Computing two-electron integrals...done
      Computed 8695530 non-zero two-electron integrals.
        Stored in file 33.


*** tstart() called on atlantis
*** at Tue Apr 19 15:18:13 2022


	Wfn Parameters:
	--------------------
	Wavefunction         = CCSD
	Number of irreps     = 2
	Number of MOs        = 108
	Number of active MOs = 108
	AO-Basis             = NONE
	Semicanonical        = false
	Reference            = RHF
	Print Level          = 1

	IRREP	# MOs	# FZDC	# DOCC	# SOCC	# VIRT	# FZVR
	-----	-----	------	------	------	------	------
	 Ap	   69	    0	    9	    0	    60	    0
	 App	   39	    0	    3	    0	    36	    0
	Transforming integrals...
	IWL integrals will be deleted.
	(OO|OO)...
	Presorting SO-basis two-electron integrals.
	Sorting File: SO Ints (nn|nn) nbuckets = 1
	Transforming the one-electron integrals and constructing Fock matrices
	Starting first half-transformation.
	Sorting half-transformed integrals.
	First half integral transformation complete.
	Starting second half-transformation.
	Two-electron integral transformation complete.
	(OO|OV)...
	Starting second half-transformation.
	Two-electron integral transformation complete.
	(OO|VV)...
	Starting second half-transformation.
	Two-electron integral transformation complete.
	(OV|OO)...
	Starting first half-transformation.
	Sorting half-transformed integrals.
	First half integral transformation complete.
	Starting second half-transformation.
	Two-electron integral transformation complete.
	(OV|OV)...
	Starting second half-transformation.
	Two-electron integral transformation complete.
	(OV|VV)...
	Starting second half-transformation.
	Two-electron integral transformation complete.
	(VV|OO)...
	Starting first half-transformation.
	Sorting half-transformed integrals.
	First half integral transformation complete.
	Starting second half-transformation.
	Two-electron integral transformation complete.
	(VV|OV)...
	Starting second half-transformation.
	Two-electron integral transformation complete.
	(VV|VV)...
	Starting second half-transformation.
	Two-electron integral transformation complete.
	Frozen core energy     =      0.00000000000000

	Size of irrep 0 of <ab|cd> integrals:     23.971 (MW) /    191.767 (MB)
	Size of irrep 1 of <ab|cd> integrals:     18.662 (MW) /    149.299 (MB)
	Total:                                    42.633 (MW) /    341.066 (MB)

	Size of irrep 0 of <ia|bc> integrals:      3.173 (MW) /     25.381 (MB)
	Size of irrep 1 of <ia|bc> integrals:      2.177 (MW) /     17.418 (MB)
	Total:                                     5.350 (MW) /     42.799 (MB)

	Size of irrep 0 of tijab amplitudes:       0.441 (MW) /      3.525 (MB)
	Size of irrep 1 of tijab amplitudes:       0.233 (MW) /      1.866 (MB)
	Total:                                     0.674 (MW) /      5.391 (MB)

	Nuclear Rep. energy          =     75.28146480901403
	SCF energy                   =   -117.08751612249088
	One-electron energy          =   -305.57462880738518
	Two-electron energy          =    113.20564787587981
	Reference energy             =   -117.08751612249135

*** tstop() called on atlantis at Tue Apr 19 15:18:17 2022
Module time:
	user time   =       2.50 seconds =       0.04 minutes
	system time =       0.97 seconds =       0.02 minutes
	total time  =          4 seconds =       0.07 minutes
Total time:
	user time   =      15.07 seconds =       0.25 minutes
	system time =       4.50 seconds =       0.07 minutes
	total time  =         20 seconds =       0.33 minutes
            **************************
            *                        *
            *        CCENERGY        *
            *                        *
            **************************

    Nuclear Rep. energy (wfn)     =   75.281464809014025
    SCF energy          (wfn)     = -117.087516122490882
    Reference energy    (file100) = -117.087516122491351

    Input parameters:
    -----------------
    Wave function   =     CCSD
    Reference wfn   =     RHF
    Brueckner       =     No
    Memory (Mbytes) =     524.3
    Maxiter         =     50
    R_Convergence   =     1.0e-07
    E_Convergence   =     1.0e-08
    Restart         =     Yes
    DIIS            =     Yes
    AO Basis        =     NONE
    ABCD            =     NEW
    Cache Level     =     2
    Cache Type      =     LOW
    Print Level     =     1
    Num. of threads =     1
    # Amps to Print =     10
    Print MP2 Amps? =     No
    Analyze T2 Amps =     No
    Print Pair Ener =     No
    Local CC        =     No
    SCS-MP2         =     False
    SCSN-MP2        =     False
    SCS-CCSD        =     False

    Using old T1 amplitudes.
    Using old T2 amplitudes.

MP2 correlation energy -0.5077953997827421
                Solving CC Amplitude Equations
                ------------------------------
  Iter             Energy              RMS        T1Diag      D1Diag    New D1Diag    D2Diag
  ----     ---------------------    ---------   ----------  ----------  ----------   --------
     0        -0.545771452405621    0.000e+00    0.006403    0.014496    0.014496    0.150496
     1        -0.545771925482593    3.978e-04    0.006403    0.014496    0.014496    0.150496
     2        -0.545771935944086    6.664e-05    0.006403    0.014496    0.014496    0.150496
     3        -0.545771943949709    1.410e-05    0.006403    0.014496    0.014496    0.150496
     4        -0.545771944349630    3.944e-06    0.006403    0.014496    0.014496    0.150496
     5        -0.545771944271156    9.906e-07    0.006403    0.014496    0.014496    0.150496
     6        -0.545771944319115    2.812e-07    0.006403    0.014496    0.014496    0.150496
     7        -0.545771944313842    6.268e-08    0.006403    0.014496    0.014496    0.150496

    Iterations converged.


    Largest TIA Amplitudes:
              9  66         0.0096070723
              9  69        -0.0077330457
              7  31        -0.0071762674
              8  32         0.0071759766
              8  23        -0.0070965323
              7  24         0.0070963271
             11  73         0.0049283509
             10  74         0.0049277869
              9  72         0.0045400132
              7  51        -0.0044430276

    Largest TIjAb Amplitudes:
      7   7  13  13        -0.0412338334
      8   8  13  13        -0.0412324387
      7   7  13  22        -0.0194834159
      7   7  22  13        -0.0194834159
      8   8  13  22        -0.0194315959
      8   8  22  13        -0.0194315959
     11  11  73  73        -0.0185752906
     10  10  74  74        -0.0185750394
      7   8  13  16        -0.0139895068
      8   7  16  13        -0.0139895068

    SCF energy       (wfn)                    = -117.087516122490882
    Reference energy (file100)                = -117.087516122491351

    Opposite-spin MP2 correlation energy      =   -0.397706959042381
    Same-spin MP2 correlation energy          =   -0.110088440740362
    MP2 correlation energy                    =   -0.507795399782742
      * MP2 total energy                      = -117.595311522274088

    Opposite-spin CCSD correlation energy     =   -0.444050289313859
    Same-spin CCSD correlation energy         =   -0.101721654999984
    CCSD correlation energy                   =   -0.545771944313842
      * CCSD total energy                     = -117.633288066805193


			**************************
			*                        *
			*         CCHBAR         *
			*                        *
			**************************


			**************************
			*        CCLAMBDA        *
			**************************


	Nuclear Rep. energy (wfn)     =   75.281464809014025
	Reference           (wfn)     =                    0
	SCF energy          (wfn)     = -117.087516122490882
	Reference energy    (CC_INFO) = -117.087516122491351
	CCSD energy         (CC_INFO) =   -0.545771944313842
	Total CCSD energy   (CC_INFO) = -117.633288066805193

	Input parameters:
	-----------------
	Maxiter           =     50
	Convergence       = 1.0e-07
	Restart           =     No
	Cache Level       =     2
	Model III         =     No
	DIIS              =     Yes
	AO Basis          =     No
	ABCD              =     NEW
	Local CC          =     No
	Parameters for left-handed eigenvectors:
	    Irr   Root  Ground-State?    EOM energy        R0
	  1   0     0        Yes       0.0000000000   1.0000000000
	Labels for eigenvector 1:
	LIA 0 -1, Lia 0 -1, LIJAB 0 -1, Lijab 0 -1, LIjAb 0 -1, 2LIjAb - LIjbA 0 -1
	Symmetry of left-hand state: Ap
	Symmetry of left-hand eigenvector: Ap

	          Solving Lambda Equations
	          ------------------------
	Iter     PseudoEnergy or Norm         RMS  
	----     ---------------------     --------
	   0        -0.545850457220420    0.000e+00
	   1        -0.533005440960612    1.440e-02
	   2        -0.531286661075114    3.049e-03
	   3        -0.531035395275783    8.584e-04
	   4        -0.531030825150437    2.293e-04
	   5        -0.531038072679528    6.068e-05
	   6        -0.531036601544160    1.972e-05
	   7        -0.531036672427438    5.929e-06
	   8        -0.531036781416151    1.704e-06
	   9        -0.531036762527615    5.206e-07
	  10        -0.531036765835844    1.098e-07
	  11        -0.531036765092255    2.993e-08

	Largest LIA Amplitudes:
	          9  66         0.0066123080
	          7  31        -0.0063479721
	          8  32         0.0063476985
	          8  23        -0.0054854176
	          7  24         0.0054852503
	          9  69        -0.0053414683
	          9  78        -0.0038007774
	         11  88         0.0034596106
	         10  89         0.0034593608
	          7  51        -0.0032460615

	Largest LIjAb Amplitudes:
	  7   7  13  13        -0.0392055117
	  8   8  13  13        -0.0392041688
	  7   7  13  22        -0.0185506320
	  7   7  22  13        -0.0185506320
	  8   8  13  22        -0.0185010252
	  8   8  22  13        -0.0185010252
	 11  11  73  73        -0.0181432200
	 10  10  74  74        -0.0181429742
	 11  11  67  67        -0.0135509963
	 10  10  68  68        -0.0135497835

	Iterations converged.

	Overlap <L|e^T> =        0.81770353578

			**************************
			*                        *
			*        CCDENSITY       *
			*                        *
			**************************


	Input parameters:
	-----------------
	Wave function    =   CCSD
	Reference wfn    =   RHF
	Dertype          = 1
	Tolerance        = 1.0e-14
	Cache Level      = 2
	AO Basis         = No
	OPDM Only        = No
	Relax OPDM       = Yes
	Compute Xi       = No
	Use Zeta         = No
	Xi connected     = Yes
	Compute NO       = No

	Nuclear Rep. energy (wfn)     =   75.281464809014025
	SCF energy          (wfn)     = -117.087516122490882
	Reference energy    (file100) = -117.087516122491351
	CCSD energy         (CC_INFO) =   -0.545771944313842
	Total CCSD energy   (CC_INFO) = -117.633288066805193
	Number of States = 1

	Ground?  State     EOM Energy       R0
	  Yes     0 Ap    0.0000000000   1.00000000

	Virial Theorem Data:
	--------------------
	Kinetic energy (ref)   =  116.824346755801983
	Kinetic energy (corr)  =    0.590006326608566
	Kinetic energy (total) =  117.414353082410543
	-V/T (ref)             =    2.002252692816160
	-V/T (corr)            =    1.925027274624344
	-V/T (total)           =    2.001864635614361
  Cartesian Displacement SALCs
  By SALC:
  Number of SALCs: 15, nirreps: A'
  Project out translations: False
  Project out rotations: False
	irrep = 0, ncomponent = 1
		0: atom 0, direction x, coef 1.000000
	irrep = 0, ncomponent = 1
		0: atom 0, direction y, coef 1.000000
	irrep = 0, ncomponent = 1
		0: atom 1, direction x, coef 1.000000
	irrep = 0, ncomponent = 1
		0: atom 1, direction y, coef 1.000000
	irrep = 0, ncomponent = 1
		0: atom 2, direction x, coef 1.000000
	irrep = 0, ncomponent = 1
		0: atom 2, direction y, coef 1.000000
	irrep = 0, ncomponent = 2
		0: atom 3, direction x, coef 0.707107
		1: atom 4, direction x, coef 0.707107
	irrep = 0, ncomponent = 2
		0: atom 3, direction y, coef 0.707107
		1: atom 4, direction y, coef 0.707107
	irrep = 0, ncomponent = 2
		0: atom 3, direction z, coef 0.707107
		1: atom 4, direction z, coef -0.707107
	irrep = 0, ncomponent = 2
		0: atom 5, direction x, coef 0.707107
		1: atom 6, direction x, coef 0.707107
	irrep = 0, ncomponent = 2
		0: atom 5, direction y, coef 0.707107
		1: atom 6, direction y, coef 0.707107
	irrep = 0, ncomponent = 2
		0: atom 5, direction z, coef 0.707107
		1: atom 6, direction z, coef -0.707107
	irrep = 0, ncomponent = 2
		0: atom 7, direction x, coef 0.707107
		1: atom 8, direction x, coef 0.707107
	irrep = 0, ncomponent = 2
		0: atom 7, direction y, coef 0.707107
		1: atom 8, direction y, coef 0.707107
	irrep = 0, ncomponent = 2
		0: atom 7, direction z, coef 0.707107
		1: atom 8, direction z, coef -0.707107

  By Atomic Center:
  Number of atomic centers: 9
   Atomic Center 0:
	x component, size = 1
		0: salc 0, irrep 0, coef 1.000000
	y component, size = 1
		0: salc 1, irrep 0, coef 1.000000
	z component, size = 0
   Atomic Center 1:
	x component, size = 1
		0: salc 2, irrep 0, coef 1.000000
	y component, size = 1
		0: salc 3, irrep 0, coef 1.000000
	z component, size = 0
   Atomic Center 2:
	x component, size = 1
		0: salc 4, irrep 0, coef 1.000000
	y component, size = 1
		0: salc 5, irrep 0, coef 1.000000
	z component, size = 0
   Atomic Center 3:
	x component, size = 1
		0: salc 6, irrep 0, coef 0.707107
	y component, size = 1
		0: salc 7, irrep 0, coef 0.707107
	z component, size = 1
		0: salc 8, irrep 0, coef 0.707107
   Atomic Center 4:
	x component, size = 1
		0: salc 6, irrep 0, coef 0.707107
	y component, size = 1
		0: salc 7, irrep 0, coef 0.707107
	z component, size = 1
		0: salc 8, irrep 0, coef -0.707107
   Atomic Center 5:
	x component, size = 1
		0: salc 9, irrep 0, coef 0.707107
	y component, size = 1
		0: salc 10, irrep 0, coef 0.707107
	z component, size = 1
		0: salc 11, irrep 0, coef 0.707107
   Atomic Center 6:
	x component, size = 1
		0: salc 9, irrep 0, coef 0.707107
	y component, size = 1
		0: salc 10, irrep 0, coef 0.707107
	z component, size = 1
		0: salc 11, irrep 0, coef -0.707107
   Atomic Center 7:
	x component, size = 1
		0: salc 12, irrep 0, coef 0.707107
	y component, size = 1
		0: salc 13, irrep 0, coef 0.707107
	z component, size = 1
		0: salc 14, irrep 0, coef 0.707107
   Atomic Center 8:
	x component, size = 1
		0: salc 12, irrep 0, coef 0.707107
	y component, size = 1
		0: salc 13, irrep 0, coef 0.707107
	z component, size = 1
		0: salc 14, irrep 0, coef -0.707107

    Molecular point group: cs
    Full point group: Cs

    Geometry (in Bohr), charge = 0, multiplicity = 1:

       Center              X                  Y                   Z       
    ------------   -----------------  -----------------  -----------------
         C            0.607607306914     1.536841428687     0.000000000000
         C           -1.634703919032    -0.242203437603     0.000000000000
         C            1.027126506766    -1.294610814132     0.000000000000
         H            1.016581834986     2.571334201546    -1.739285028610
         H            1.016581834986     2.571334201546     1.739285028610
         H           -2.735223722715    -0.405324596752     1.739190542304
         H           -2.735223722715    -0.405324596752    -1.739190542304
         H            1.718463912503    -2.166171400454    -1.739247234088
         H            1.718463912503    -2.166171400454     1.739247234088

	Presorting MO-basis TPDM.
	Sorting File: MO TPDM (AA|AA) nbuckets = 1
	Starting first half-transformation.
	Sorting half-transformed TPDM.
	First half integral transformation complete.


  -Nuclear Repulsion Energy 1st Derivatives:
     Atom            X                  Y                   Z
    ------   -----------------  -----------------  -----------------
       1       -2.592111453938    -6.556100075531     0.000000000000
       2        6.973669949172     1.033154087036     0.000000000000
       3       -4.381860927033     5.522668221185     0.000000000000
       4       -0.529292910653    -1.338801441551     1.575980406544
       5       -0.529292910653    -1.338801441551    -1.575980406544
       6        1.424171732267     0.211061483034    -1.575901173652
       7        1.424171732267     0.211061483034     1.575901173652
       8       -0.894727605715     1.127878842172     1.575946927528
       9       -0.894727605715     1.127878842172    -1.575946927528


  -Core Hamiltonian Gradient:
     Atom            X                  Y                   Z
    ------   -----------------  -----------------  -----------------
       1        4.610609368332    11.661284199336     0.000000000000
       2      -12.403353287325    -1.837370988306     0.000000000000
       3        7.794094673445    -9.822705356480     0.000000000000
       4        1.296048564117     3.278347664522    -4.362764667751
       5        1.296048564117     3.278347664522     4.362764667751
       6       -3.487583752971    -0.516944879617     4.362341429372
       7       -3.487583752971    -0.516944879617    -4.362341429372
       8        2.190859811629    -2.762006712180    -4.362591065349
       9        2.190859811629    -2.762006712180     4.362591065349


  -Lagrangian contribution to gradient:
     Atom            X                  Y                   Z
    ------   -----------------  -----------------  -----------------
       1        0.002162866017     0.005487926350     0.000000000000
       2       -0.005873196640    -0.000888504027     0.000000000000
       3        0.003649195830    -0.004653629249     0.000000000000
       4       -0.038785850294    -0.098112547229     0.173924818944
       5       -0.038785850294    -0.098112547229    -0.173924818944
       6        0.104379391444     0.015475020995    -0.173903761375
       7        0.104379391444     0.015475020995     0.173903761375
       8       -0.065562973753     0.082664629698     0.173916063345
       9       -0.065562973753     0.082664629698    -0.173916063345


  -Two-electron contribution to gradient:
     Atom            X                  Y                   Z
    ------   -----------------  -----------------  -----------------
       1       -2.021264473324    -5.112197190490     0.000000000000
       2        5.437204281508     0.805352728343     0.000000000000
       3       -3.416904650205     4.305987752977     0.000000000000
       4       -0.727002280317    -1.838983078480     2.608533040073
       5       -0.727002280317    -1.838983078480    -2.608533040073
       6        1.956417843779     0.290018262875    -2.608219645560
       7        1.956417843779     0.290018262875     2.608219645560
       8       -1.228933142451     1.549393170190     2.608405356498
       9       -1.228933142451     1.549393170190    -2.608405356498


  -Total gradient:
     Atom            X                  Y                   Z
    ------   -----------------  -----------------  -----------------
       1       -0.000603692913    -0.001525140336     0.000000000000
       2        0.001647746715     0.000247323045     0.000000000000
       3       -0.001021707963     0.001296988433     0.000000000000
       4        0.000967522852     0.002450597262    -0.004326402191
       5        0.000967522852     0.002450597262     0.004326402191
       6       -0.002614785481    -0.000390112713     0.004316848785
       7       -0.002614785481    -0.000390112713    -0.004316848785
       8        0.001636089709    -0.002070070120    -0.004322717978
       9        0.001636089709    -0.002070070120     0.004322717978


  Based on options and gradient (rms=2.45E-03), recommend projecting translations and projecting rotations.
hessian() will perform frequency computation by finite difference of analytic gradients.

         ----------------------------------------------------------
                                   FINDIF
                     R. A. King and Jonathon Misiewicz
         ---------------------------------------------------------

  Using finite-differences of gradients to determine vibrational frequencies and 
  normal modes.  Resulting frequencies are only valid at stationary points.
    Generating geometries for use with 3-point formula.
    Displacement size will be 5.00e-03.
    Number of atoms is 9.
    Number of irreps is 2.
    Number of SALCs is 21.
    Translations projected? 1. Rotations projected? 1.
    Index of SALCs per irrep:
     1 :  0  1  2  3  4  5  6  7  8  9  10  11 
     2 :  12  13  14  15  16  17  18  19  20 
    Number of SALCs per irrep:
     Irrep 1: 12
     Irrep 2: 9
    Number of geometries (including reference) is 34.
    Number of displacements per irrep:
      Irrep 1: 24
      Irrep 2: 9

  //>>>>>>>>>>>>>>>>>>>>>>>>>>>>>>>>>>>//
  //    Loading displacement 1 of 34   //
  //<<<<<<<<<<<<<<<<<<<<<<<<<<<<<<<<<<<//
gradient() will perform analytic gradient computation.

*** tstart() called on atlantis
*** at Tue Apr 19 15:18:39 2022

   => Loading Basis Set <=

    Name: 6-311++G**
    Role: ORBITAL
    Keyword: BASIS
    atoms 1-3 entry C          line   119 file /home/akrom/software/anaconda3/envs/ffpenv/share/psi4/basis/6-311ppgss.gbs 
    atoms 4-9 entry H          line    42 file /home/akrom/software/anaconda3/envs/ffpenv/share/psi4/basis/6-311ppgss.gbs 


         ---------------------------------------------------------
                                   SCF
               by Justin Turney, Rob Parrish, Andy Simmonett
                          and Daniel G. A. Smith
                              RHF Reference
                        1 Threads,    500 MiB Core
         ---------------------------------------------------------

  ==> Geometry <==

    Molecular point group: cs
    Full point group: Cs

    Geometry (in Angstrom), charge = 0, multiplicity = 1:

       Center              X                  Y                   Z               Mass       
    ------------   -----------------  -----------------  -----------------  -----------------
         C            0.321531939855     0.813261460475     0.000000000000    12.000000000000
         C           -0.865048060145    -0.128168539525     0.000000000000    12.000000000000
         C            0.543531939855    -0.685078539525     0.000000000000    12.000000000000
         H            0.537951939855     1.360691460475    -0.920390000000     1.007825032230
         H            0.537951939855     1.360691460475     0.920390000000     1.007825032230
         H           -1.447418060145    -0.214488539525     0.920340000000     1.007825032230
         H           -1.447418060145    -0.214488539525    -0.920340000000     1.007825032230
         H            0.909371939855    -1.146288539525    -0.920370000000     1.007825032230
         H            0.909371939855    -1.146288539525     0.920370000000     1.007825032230

  Running in cs symmetry.

  Rotational constants: A =      0.66472  B =      0.66470  C =      0.41647 [cm^-1]
  Rotational constants: A =  19927.70596  B =  19927.20236  C =  12485.44714 [MHz]
  Nuclear repulsion =   75.281464809014025

  Charge       = 0
  Multiplicity = 1
  Electrons    = 24
  Nalpha       = 12
  Nbeta        = 12

  ==> Algorithm <==

  SCF Algorithm Type is PK.
  DIIS enabled.
  MOM disabled.
  Fractional occupation disabled.
  Guess Type is SAD.
  Energy threshold   = 1.00e-10
  Density threshold  = 1.00e-10
  Integral threshold = 0.00e+00

  ==> Primary Basis <==

  Basis Set: 6-311++G**
    Blend: 6-311++G**
    Number of shells: 60
    Number of basis function: 108
    Number of Cartesian functions: 111
    Spherical Harmonics?: true
    Max angular momentum: 2

  ==> Pre-Iterations <==

   -------------------------------------------------------
    Irrep   Nso     Nmo     Nalpha   Nbeta   Ndocc  Nsocc
   -------------------------------------------------------
     A'        69      69       0       0       0       0
     A"        39      39       0       0       0       0
   -------------------------------------------------------
    Total     108     108      12      12      12       0
   -------------------------------------------------------

  ==> Integral Setup <==

  Using in-core PK algorithm.
   Calculation information:
      Number of atoms:                   9
      Number of AO shells:              60
      Number of primitives:             99
      Number of atomic orbitals:       111
      Number of basis functions:       108

      Integral cutoff                 1.00e-12
      Number of threads:                 1

  Performing in-core PK
  Using 34650882 doubles for integral storage.
  We computed 1673160 shell quartets total.
  Whereas there are 1675365 unique shell quartets.

  ==> DiskJK: Disk-Based J/K Matrices <==

    J tasked:                  Yes
    K tasked:                  Yes
    wK tasked:                  No
    Memory [MiB]:              375
    Schwarz Cutoff:          1E-12

    OpenMP threads:              1

  Minimum eigenvalue in the overlap matrix is 8.8978795942E-05.
  Using Symmetric Orthogonalization.

  SCF Guess: Superposition of Atomic Densities via on-the-fly atomic UHF.

  ==> Iterations <==

                        Total Energy        Delta E     RMS |[F,P]|

   @RHF iter SAD:  -116.63456427528010   -1.16635e+02   0.00000e+00 
   @RHF iter   1:  -116.96161622770749   -3.27052e-01   5.80793e-03 DIIS
   @RHF iter   2:  -117.05930420464273   -9.76880e-02   2.91135e-03 DIIS
   @RHF iter   3:  -117.08635843787832   -2.70542e-02   4.27148e-04 DIIS
   @RHF iter   4:  -117.08748661652544   -1.12818e-03   5.52623e-05 DIIS
   @RHF iter   5:  -117.08751449152749   -2.78750e-05   1.26364e-05 DIIS
   @RHF iter   6:  -117.08751606900978   -1.57748e-06   2.15142e-06 DIIS
   @RHF iter   7:  -117.08751612138977   -5.23800e-08   3.33492e-07 DIIS
   @RHF iter   8:  -117.08751612247664   -1.08687e-09   4.06213e-08 DIIS
   @RHF iter   9:  -117.08751612249060   -1.39551e-11   7.04137e-09 DIIS
   @RHF iter  10:  -117.08751612249100   -3.97904e-13   1.25509e-09 DIIS
   @RHF iter  11:  -117.08751612249077    2.27374e-13   4.30634e-10 DIIS
   @RHF iter  12:  -117.08751612249087   -9.94760e-14   4.67832e-11 DIIS
  Energy and wave function converged.


  ==> Post-Iterations <==

    Orbital Energies [Eh]
    ---------------------

    Doubly Occupied:                                                      

       1Ap   -11.228411     2Ap   -11.227439     3Ap   -11.227434  
       4Ap    -1.126349     5Ap    -0.814600     6Ap    -0.814594  
       1App   -0.663762     7Ap    -0.622866     2App   -0.510817  
       3App   -0.510802     8Ap    -0.417300     9Ap    -0.417292  

    Virtual:                                                              

      10Ap     0.049583     4App    0.060286    11Ap     0.060791  
      12Ap     0.060791     5App    0.091500     6App    0.091504  
      13Ap     0.136011    14Ap     0.136213    15Ap     0.136216  
      16Ap     0.174065    17Ap     0.180122    18Ap     0.180126  
       7App    0.207750     8App    0.211885     9App    0.211892  
      19Ap     0.222872    20Ap     0.224109    21Ap     0.224110  
      10App    0.284570    22Ap     0.294494    23Ap     0.336999  
      11App    0.363437    12App    0.363450    24Ap     0.381202  
      25Ap     0.381209    26Ap     0.471902    27Ap     0.471908  
      28Ap     0.545830    13App    0.588265    29Ap     0.653138  
      30Ap     0.653154    14App    0.715512    15App    0.715561  
      31Ap     0.752582    16App    0.850199    32Ap     0.861139  
      33Ap     0.864291    34Ap     0.864300    17App    0.880657  
      18App    0.880666    35Ap     0.910050    36Ap     0.910060  
      37Ap     0.967067    38Ap     1.119453    39Ap     1.119454  
      19App    1.432596    40Ap     1.471904    20App    1.479399  
      21App    1.479411    22App    1.624404    41Ap     1.718163  
      42Ap     1.718190    23App    1.776971    24App    1.777028  
      43Ap     1.859402    25App    1.897858    44Ap     1.925568  
      45Ap     1.925607    26App    2.031894    27App    2.031926  
      46Ap     2.032678    47Ap     2.114292    48Ap     2.114297  
      49Ap     2.329779    50Ap     2.329786    28App    2.350502  
      29App    2.350513    51Ap     2.412091    52Ap     2.536655  
      53Ap     2.536719    54Ap     2.602733    30App    2.684754  
      55Ap     2.719199    31App    2.778635    32App    2.861119  
      33App    2.861149    56Ap     2.993613    57Ap     2.993672  
      34App    3.036288    58Ap     3.072752    59Ap     3.077212  
      60Ap     3.077230    35App    3.324024    36App    3.324066  
      61Ap     3.325231    62Ap     3.325241    63Ap     3.785714  
      37App    3.926927    64Ap     3.930311    38App    4.260447  
      39App    4.260473    65Ap     4.818538    66Ap     4.818569  
      67Ap    25.045864    68Ap    25.045890    69Ap    25.060521  

    Final Occupation by Irrep:
             Ap   App 
    DOCC [     9,    3 ]

  @RHF Final Energy:  -117.08751612249087

   => Energetics <=

    Nuclear Repulsion Energy =             75.2814648090140253
    One-Electron Energy =                -305.5746288020408201
    Two-Electron Energy =                 113.2056478705359126
    Total Energy =                       -117.0875161224908680

Computation Completed


Properties will be evaluated at   0.000000,   0.000000,   0.000000 [a0]

Properties computed using the SCF density matrix

  Nuclear Dipole Moment: [e a0]
     X:    -0.0002      Y:    -0.0002      Z:     0.0000

  Electronic Dipole Moment: [e a0]
     X:     0.0001      Y:     0.0001      Z:     0.0000

  Dipole Moment: [e a0]
     X:    -0.0000      Y:    -0.0000      Z:     0.0000     Total:     0.0000

  Dipole Moment: [D]
     X:    -0.0001      Y:    -0.0001      Z:     0.0000     Total:     0.0001


*** tstop() called on atlantis at Tue Apr 19 15:18:42 2022
Module time:
	user time   =       2.28 seconds =       0.04 minutes
	system time =       0.08 seconds =       0.00 minutes
	total time  =          3 seconds =       0.05 minutes
Total time:
	user time   =      32.59 seconds =       0.54 minutes
	system time =      11.87 seconds =       0.20 minutes
	total time  =         45 seconds =       0.75 minutes
 MINTS: Wrapper to libmints.
   by Justin Turney

   Calculation information:
      Number of threads:                 1
      Number of atoms:                   9
      Number of AO shells:              60
      Number of SO shells:              45
      Number of primitives:             99
      Number of atomic orbitals:       111
      Number of basis functions:       108

      Number of irreps:                  2
      Integral cutoff                 0.00e+00
      Number of functions per irrep: [  69   39 ]

 OEINTS: Overlap, kinetic, potential, dipole, and quadrupole integrals
         stored in file 35.

      Computing two-electron integrals...done
      Computed 8695329 non-zero two-electron integrals.
        Stored in file 33.


*** tstart() called on atlantis
*** at Tue Apr 19 15:18:42 2022


	Wfn Parameters:
	--------------------
	Wavefunction         = CCSD
	Number of irreps     = 2
	Number of MOs        = 108
	Number of active MOs = 108
	AO-Basis             = NONE
	Semicanonical        = false
	Reference            = RHF
	Print Level          = 1

	IRREP	# MOs	# FZDC	# DOCC	# SOCC	# VIRT	# FZVR
	-----	-----	------	------	------	------	------
	 Ap	   69	    0	    9	    0	    60	    0
	 App	   39	    0	    3	    0	    36	    0
	Transforming integrals...
	IWL integrals will be deleted.
	(OO|OO)...
	Presorting SO-basis two-electron integrals.
	Sorting File: SO Ints (nn|nn) nbuckets = 1
	Transforming the one-electron integrals and constructing Fock matrices
	Starting first half-transformation.
	Sorting half-transformed integrals.
	First half integral transformation complete.
	Starting second half-transformation.
	Two-electron integral transformation complete.
	(OO|OV)...
	Starting second half-transformation.
	Two-electron integral transformation complete.
	(OO|VV)...
	Starting second half-transformation.
	Two-electron integral transformation complete.
	(OV|OO)...
	Starting first half-transformation.
	Sorting half-transformed integrals.
	First half integral transformation complete.
	Starting second half-transformation.
	Two-electron integral transformation complete.
	(OV|OV)...
	Starting second half-transformation.
	Two-electron integral transformation complete.
	(OV|VV)...
	Starting second half-transformation.
	Two-electron integral transformation complete.
	(VV|OO)...
	Starting first half-transformation.
	Sorting half-transformed integrals.
	First half integral transformation complete.
	Starting second half-transformation.
	Two-electron integral transformation complete.
	(VV|OV)...
	Starting second half-transformation.
	Two-electron integral transformation complete.
	(VV|VV)...
	Starting second half-transformation.
	Two-electron integral transformation complete.
	Frozen core energy     =      0.00000000000000

	Size of irrep 0 of <ab|cd> integrals:     23.971 (MW) /    191.767 (MB)
	Size of irrep 1 of <ab|cd> integrals:     18.662 (MW) /    149.299 (MB)
	Total:                                    42.633 (MW) /    341.066 (MB)

	Size of irrep 0 of <ia|bc> integrals:      3.173 (MW) /     25.381 (MB)
	Size of irrep 1 of <ia|bc> integrals:      2.177 (MW) /     17.418 (MB)
	Total:                                     5.350 (MW) /     42.799 (MB)

	Size of irrep 0 of tijab amplitudes:       0.441 (MW) /      3.525 (MB)
	Size of irrep 1 of tijab amplitudes:       0.233 (MW) /      1.866 (MB)
	Total:                                     0.674 (MW) /      5.391 (MB)

	Nuclear Rep. energy          =     75.28146480901403
	SCF energy                   =   -117.08751612249087
	One-electron energy          =   -305.57462880738581
	Two-electron energy          =    113.20564787588042
	Reference energy             =   -117.08751612249138

*** tstop() called on atlantis at Tue Apr 19 15:18:46 2022
Module time:
	user time   =       2.50 seconds =       0.04 minutes
	system time =       1.15 seconds =       0.02 minutes
	total time  =          4 seconds =       0.07 minutes
Total time:
	user time   =      35.96 seconds =       0.60 minutes
	system time =      13.06 seconds =       0.22 minutes
	total time  =         49 seconds =       0.82 minutes
            **************************
            *                        *
            *        CCENERGY        *
            *                        *
            **************************

    Nuclear Rep. energy (wfn)     =   75.281464809014025
    SCF energy          (wfn)     = -117.087516122490868
    Reference energy    (file100) = -117.087516122491380

    Input parameters:
    -----------------
    Wave function   =     CCSD
    Reference wfn   =     RHF
    Brueckner       =     No
    Memory (Mbytes) =     524.3
    Maxiter         =     50
    R_Convergence   =     1.0e-07
    E_Convergence   =     1.0e-08
    Restart         =     Yes
    DIIS            =     Yes
    AO Basis        =     NONE
    ABCD            =     NEW
    Cache Level     =     2
    Cache Type      =     LOW
    Print Level     =     1
    Num. of threads =     1
    # Amps to Print =     10
    Print MP2 Amps? =     No
    Analyze T2 Amps =     No
    Print Pair Ener =     No
    Local CC        =     No
    SCS-MP2         =     False
    SCSN-MP2        =     False
    SCS-CCSD        =     False

MP2 correlation energy -0.5077953997827407
                Solving CC Amplitude Equations
                ------------------------------
  Iter             Energy              RMS        T1Diag      D1Diag    New D1Diag    D2Diag
  ----     ---------------------    ---------   ----------  ----------  ----------   --------
     0        -0.507795399782741    0.000e+00    0.000000    0.000000    0.000000    0.135478
     1        -0.531224524666193    5.742e-02    0.005470    0.012732    0.012732    0.141863
     2        -0.544572170922900    1.870e-02    0.005942    0.013333    0.013333    0.148644
     3        -0.545686407424117    5.251e-03    0.006394    0.014513    0.014513    0.149995
     4        -0.545728982109943    1.398e-03    0.006405    0.014515    0.014515    0.150404
     5        -0.545768262842316    3.570e-04    0.006405    0.014507    0.014507    0.150485
     6        -0.545771913880470    1.099e-04    0.006404    0.014500    0.014500    0.150495
     7        -0.545771557378330    2.582e-05    0.006403    0.014496    0.014496    0.150495
     8        -0.545771956260917    6.932e-06    0.006403    0.014496    0.014496    0.150496
     9        -0.545771996777467    1.973e-06    0.006403    0.014496    0.014496    0.150496
    10        -0.545771931830111    5.773e-07    0.006403    0.014496    0.014496    0.150496
    11        -0.545771946386947    1.797e-07    0.006403    0.014496    0.014496    0.150496
    12        -0.545771942824469    4.095e-08    0.006403    0.014496    0.014496    0.150496
    13        -0.545771944089691    1.296e-08    0.006403    0.014496    0.014496    0.150496

    Iterations converged.


    Largest TIA Amplitudes:
              9  66         0.0096070726
              9  69        -0.0077330457
              7  31        -0.0071762675
              8  32         0.0071759767
              8  23        -0.0070965259
              7  24         0.0070963207
             11  73         0.0049283516
             10  74         0.0049277876
              9  72         0.0045400134
              7  51        -0.0044430285

    Largest TIjAb Amplitudes:
      7   7  13  13        -0.0412338330
      8   8  13  13        -0.0412324384
      7   7  13  22        -0.0194834158
      7   7  22  13        -0.0194834158
      8   8  13  22        -0.0194315958
      8   8  22  13        -0.0194315958
     11  11  73  73        -0.0185752908
     10  10  74  74        -0.0185750395
      7   8  13  16        -0.0139894845
      8   7  16  13        -0.0139894845

    SCF energy       (wfn)                    = -117.087516122490868
    Reference energy (file100)                = -117.087516122491380

    Opposite-spin MP2 correlation energy      =   -0.397706959042380
    Same-spin MP2 correlation energy          =   -0.110088440740361
    MP2 correlation energy                    =   -0.507795399782741
      * MP2 total energy                      = -117.595311522274116

    Opposite-spin CCSD correlation energy     =   -0.444050288885212
    Same-spin CCSD correlation energy         =   -0.101721655204480
    CCSD correlation energy                   =   -0.545771944089691
      * CCSD total energy                     = -117.633288066581073


			**************************
			*                        *
			*         CCHBAR         *
			*                        *
			**************************


			**************************
			*        CCLAMBDA        *
			**************************


	Nuclear Rep. energy (wfn)     =   75.281464809014025
	Reference           (wfn)     =                    0
	SCF energy          (wfn)     = -117.087516122490868
	Reference energy    (CC_INFO) = -117.087516122491380
	CCSD energy         (CC_INFO) =   -0.545771944089691
	Total CCSD energy   (CC_INFO) = -117.633288066581073

	Input parameters:
	-----------------
	Maxiter           =     50
	Convergence       = 1.0e-07
	Restart           =     No
	Cache Level       =     2
	Model III         =     No
	DIIS              =     Yes
	AO Basis          =     No
	ABCD              =     NEW
	Local CC          =     No
	Parameters for left-handed eigenvectors:
	    Irr   Root  Ground-State?    EOM energy        R0
	  1   0     0        Yes       0.0000000000   1.0000000000
	Labels for eigenvector 1:
	LIA 0 -1, Lia 0 -1, LIJAB 0 -1, Lijab 0 -1, LIjAb 0 -1, 2LIjAb - LIjbA 0 -1
	Symmetry of left-hand state: Ap
	Symmetry of left-hand eigenvector: Ap

	          Solving Lambda Equations
	          ------------------------
	Iter     PseudoEnergy or Norm         RMS  
	----     ---------------------     --------
	   0        -0.545850456991705    2.993e-08
	   1        -0.533005440859522    1.440e-02
	   2        -0.531286661091203    3.049e-03
	   3        -0.531035395299685    8.584e-04
	   4        -0.531030825169847    2.293e-04
	   5        -0.531038072691975    6.068e-05
	   6        -0.531036601557068    1.972e-05
	   7        -0.531036672439674    5.929e-06
	   8        -0.531036781428138    1.704e-06
	   9        -0.531036762539614    5.206e-07
	  10        -0.531036765847851    1.098e-07
	  11        -0.531036765104261    2.993e-08

	Largest LIA Amplitudes:
	          9  66         0.0066123080
	          7  31        -0.0063479721
	          8  32         0.0063476985
	          8  23        -0.0054854136
	          7  24         0.0054852463
	          9  69        -0.0053414683
	          9  78        -0.0038007774
	         11  88         0.0034596106
	         10  89         0.0034593608
	          7  51        -0.0032460622

	Largest LIjAb Amplitudes:
	  7   7  13  13        -0.0392055117
	  8   8  13  13        -0.0392041688
	  7   7  13  22        -0.0185506320
	  7   7  22  13        -0.0185506320
	  8   8  13  22        -0.0185010252
	  8   8  22  13        -0.0185010252
	 11  11  73  73        -0.0181432201
	 10  10  74  74        -0.0181429742
	 11  11  67  67        -0.0135509964
	 10  10  68  68        -0.0135497836

	Iterations converged.

	Overlap <L|e^T> =        0.81770353596

			**************************
			*                        *
			*        CCDENSITY       *
			*                        *
			**************************


	Input parameters:
	-----------------
	Wave function    =   CCSD
	Reference wfn    =   RHF
	Dertype          = 1
	Tolerance        = 1.0e-14
	Cache Level      = 2
	AO Basis         = No
	OPDM Only        = No
	Relax OPDM       = Yes
	Compute Xi       = No
	Use Zeta         = No
	Xi connected     = Yes
	Compute NO       = No

	Nuclear Rep. energy (wfn)     =   75.281464809014025
	SCF energy          (wfn)     = -117.087516122490868
	Reference energy    (file100) = -117.087516122491380
	CCSD energy         (CC_INFO) =   -0.545771944089691
	Total CCSD energy   (CC_INFO) = -117.633288066581073
	Number of States = 1

	Ground?  State     EOM Energy       R0
	  Yes     0 Ap    0.0000000000   1.00000000

	Virial Theorem Data:
	--------------------
	Kinetic energy (ref)   =  116.824346755803276
	Kinetic energy (corr)  =    0.590006324063276
	Kinetic energy (total) =  117.414353079866558
	-V/T (ref)             =    2.002252692816149
	-V/T (corr)            =    1.925027278235003
	-V/T (total)           =    2.001864635634159
  Cartesian Displacement SALCs
  By SALC:
  Number of SALCs: 15, nirreps: A'
  Project out translations: False
  Project out rotations: False
	irrep = 0, ncomponent = 1
		0: atom 0, direction x, coef 1.000000
	irrep = 0, ncomponent = 1
		0: atom 0, direction y, coef 1.000000
	irrep = 0, ncomponent = 1
		0: atom 1, direction x, coef 1.000000
	irrep = 0, ncomponent = 1
		0: atom 1, direction y, coef 1.000000
	irrep = 0, ncomponent = 1
		0: atom 2, direction x, coef 1.000000
	irrep = 0, ncomponent = 1
		0: atom 2, direction y, coef 1.000000
	irrep = 0, ncomponent = 2
		0: atom 3, direction x, coef 0.707107
		1: atom 4, direction x, coef 0.707107
	irrep = 0, ncomponent = 2
		0: atom 3, direction y, coef 0.707107
		1: atom 4, direction y, coef 0.707107
	irrep = 0, ncomponent = 2
		0: atom 3, direction z, coef 0.707107
		1: atom 4, direction z, coef -0.707107
	irrep = 0, ncomponent = 2
		0: atom 5, direction x, coef 0.707107
		1: atom 6, direction x, coef 0.707107
	irrep = 0, ncomponent = 2
		0: atom 5, direction y, coef 0.707107
		1: atom 6, direction y, coef 0.707107
	irrep = 0, ncomponent = 2
		0: atom 5, direction z, coef 0.707107
		1: atom 6, direction z, coef -0.707107
	irrep = 0, ncomponent = 2
		0: atom 7, direction x, coef 0.707107
		1: atom 8, direction x, coef 0.707107
	irrep = 0, ncomponent = 2
		0: atom 7, direction y, coef 0.707107
		1: atom 8, direction y, coef 0.707107
	irrep = 0, ncomponent = 2
		0: atom 7, direction z, coef 0.707107
		1: atom 8, direction z, coef -0.707107

  By Atomic Center:
  Number of atomic centers: 9
   Atomic Center 0:
	x component, size = 1
		0: salc 0, irrep 0, coef 1.000000
	y component, size = 1
		0: salc 1, irrep 0, coef 1.000000
	z component, size = 0
   Atomic Center 1:
	x component, size = 1
		0: salc 2, irrep 0, coef 1.000000
	y component, size = 1
		0: salc 3, irrep 0, coef 1.000000
	z component, size = 0
   Atomic Center 2:
	x component, size = 1
		0: salc 4, irrep 0, coef 1.000000
	y component, size = 1
		0: salc 5, irrep 0, coef 1.000000
	z component, size = 0
   Atomic Center 3:
	x component, size = 1
		0: salc 6, irrep 0, coef 0.707107
	y component, size = 1
		0: salc 7, irrep 0, coef 0.707107
	z component, size = 1
		0: salc 8, irrep 0, coef 0.707107
   Atomic Center 4:
	x component, size = 1
		0: salc 6, irrep 0, coef 0.707107
	y component, size = 1
		0: salc 7, irrep 0, coef 0.707107
	z component, size = 1
		0: salc 8, irrep 0, coef -0.707107
   Atomic Center 5:
	x component, size = 1
		0: salc 9, irrep 0, coef 0.707107
	y component, size = 1
		0: salc 10, irrep 0, coef 0.707107
	z component, size = 1
		0: salc 11, irrep 0, coef 0.707107
   Atomic Center 6:
	x component, size = 1
		0: salc 9, irrep 0, coef 0.707107
	y component, size = 1
		0: salc 10, irrep 0, coef 0.707107
	z component, size = 1
		0: salc 11, irrep 0, coef -0.707107
   Atomic Center 7:
	x component, size = 1
		0: salc 12, irrep 0, coef 0.707107
	y component, size = 1
		0: salc 13, irrep 0, coef 0.707107
	z component, size = 1
		0: salc 14, irrep 0, coef 0.707107
   Atomic Center 8:
	x component, size = 1
		0: salc 12, irrep 0, coef 0.707107
	y component, size = 1
		0: salc 13, irrep 0, coef 0.707107
	z component, size = 1
		0: salc 14, irrep 0, coef -0.707107

    Molecular point group: cs
    Full point group: Cs

    Geometry (in Bohr), charge = 0, multiplicity = 1:

       Center              X                  Y                   Z       
    ------------   -----------------  -----------------  -----------------
         C            0.607607306914     1.536841428687     0.000000000000
         C           -1.634703919032    -0.242203437603     0.000000000000
         C            1.027126506766    -1.294610814132     0.000000000000
         H            1.016581834986     2.571334201546    -1.739285028610
         H            1.016581834986     2.571334201546     1.739285028610
         H           -2.735223722715    -0.405324596752     1.739190542304
         H           -2.735223722715    -0.405324596752    -1.739190542304
         H            1.718463912503    -2.166171400454    -1.739247234088
         H            1.718463912503    -2.166171400454     1.739247234088

	Presorting MO-basis TPDM.
	Sorting File: MO TPDM (AA|AA) nbuckets = 1
	Starting first half-transformation.
	Sorting half-transformed TPDM.
	First half integral transformation complete.


  -Nuclear Repulsion Energy 1st Derivatives:
     Atom            X                  Y                   Z
    ------   -----------------  -----------------  -----------------
       1       -2.592111453938    -6.556100075531     0.000000000000
       2        6.973669949172     1.033154087036     0.000000000000
       3       -4.381860927033     5.522668221185     0.000000000000
       4       -0.529292910653    -1.338801441551     1.575980406544
       5       -0.529292910653    -1.338801441551    -1.575980406544
       6        1.424171732267     0.211061483034    -1.575901173652
       7        1.424171732267     0.211061483034     1.575901173652
       8       -0.894727605715     1.127878842172     1.575946927528
       9       -0.894727605715     1.127878842172    -1.575946927528


  -Core Hamiltonian Gradient:
     Atom            X                  Y                   Z
    ------   -----------------  -----------------  -----------------
       1        4.610609309795    11.661284226822     0.000000000000
       2      -12.403353280773    -1.837371053096     0.000000000000
       3        7.794094725293    -9.822705319222     0.000000000000
       4        1.296048566746     3.278347661718    -4.362764668317
       5        1.296048566746     3.278347661718     4.362764668317
       6       -3.487583751819    -0.516944875882     4.362341429889
       7       -3.487583751819    -0.516944875882    -4.362341429889
       8        2.190859807915    -2.762006713089    -4.362591065926
       9        2.190859807915    -2.762006713089     4.362591065926


  -Lagrangian contribution to gradient:
     Atom            X                  Y                   Z
    ------   -----------------  -----------------  -----------------
       1        0.002162867871     0.005487925199     0.000000000000
       2       -0.005873196673    -0.000888501812     0.000000000000
       3        0.003649194016    -0.004653630316     0.000000000000
       4       -0.038785850416    -0.098112547090     0.173924818979
       5       -0.038785850416    -0.098112547090    -0.173924818979
       6        0.104379391387     0.015475020818    -0.173903761408
       7        0.104379391387     0.015475020818     0.173903761408
       8       -0.065562973577     0.082664629737     0.173916063383
       9       -0.065562973577     0.082664629737    -0.173916063383


  -Two-electron contribution to gradient:
     Atom            X                  Y                   Z
    ------   -----------------  -----------------  -----------------
       1       -2.021264418013    -5.112197216025     0.000000000000
       2        5.437204274989     0.805352789330     0.000000000000
       3       -3.416904698867     4.305987717573     0.000000000000
       4       -0.727002282733    -1.838983075906     2.608533040628
       5       -0.727002282733    -1.838983075906    -2.608533040628
       6        1.956417842717     0.290018259443    -2.608219646068
       7        1.956417842717     0.290018259443     2.608219646068
       8       -1.228933139039     1.549393171024     2.608405357063
       9       -1.228933139039     1.549393171024    -2.608405357063


  -Total gradient:
     Atom            X                  Y                   Z
    ------   -----------------  -----------------  -----------------
       1       -0.000603694285    -0.001525139536     0.000000000000
       2        0.001647746715     0.000247321457     0.000000000000
[...]
         H            0.909191863074    -1.146744005218     0.920347686851     1.007825032230

  Running in c1 symmetry.

  Rotational constants: A =      0.66472  B =      0.66470  C =      0.41647 [cm^-1]
  Rotational constants: A =  19927.70296  B =  19927.19704  C =  12485.44609 [MHz]
  Nuclear repulsion =   75.281462451979493

  Charge       = 0
  Multiplicity = 1
  Electrons    = 24
  Nalpha       = 12
  Nbeta        = 12

  ==> Algorithm <==

  SCF Algorithm Type is PK.
  DIIS enabled.
  MOM disabled.
  Fractional occupation disabled.
  Guess Type is SAD.
  Energy threshold   = 1.00e-10
  Density threshold  = 1.00e-10
  Integral threshold = 0.00e+00

  ==> Primary Basis <==

  Basis Set: 6-311++G**
    Blend: 6-311++G**
    Number of shells: 60
    Number of basis function: 108
    Number of Cartesian functions: 111
    Spherical Harmonics?: true
    Max angular momentum: 2

  ==> Pre-Iterations <==

   -------------------------------------------------------
    Irrep   Nso     Nmo     Nalpha   Nbeta   Ndocc  Nsocc
   -------------------------------------------------------
     A        108     108       0       0       0       0
   -------------------------------------------------------
    Total     108     108      12      12      12       0
   -------------------------------------------------------

  ==> Integral Setup <==

  Using in-core PK algorithm.
   Calculation information:
      Number of atoms:                   9
      Number of AO shells:              60
      Number of primitives:             99
      Number of atomic orbitals:       111
      Number of basis functions:       108

      Integral cutoff                 1.00e-12
      Number of threads:                 1

  Performing in-core PK
  Using 34650882 doubles for integral storage.
  We computed 1673166 shell quartets total.
  Whereas there are 1675365 unique shell quartets.

  ==> DiskJK: Disk-Based J/K Matrices <==

    J tasked:                  Yes
    K tasked:                  Yes
    wK tasked:                  No
    Memory [MiB]:              375
    Schwarz Cutoff:          1E-12

    OpenMP threads:              1

  Minimum eigenvalue in the overlap matrix is 8.8978405865E-05.
  Using Symmetric Orthogonalization.

  SCF Guess: Superposition of Atomic Densities via on-the-fly atomic UHF.

  ==> Iterations <==

                        Total Energy        Delta E     RMS |[F,P]|

   @RHF iter SAD:  -116.63456244183298   -1.16635e+02   0.00000e+00 
   @RHF iter   1:  -116.96161400166432   -3.27052e-01   4.26232e-03 DIIS
   @RHF iter   2:  -117.05930209390382   -9.76881e-02   2.13658e-03 DIIS
   @RHF iter   3:  -117.08635638617771   -2.70543e-02   3.13476e-04 DIIS
   @RHF iter   4:  -117.08748457179541   -1.12819e-03   4.05563e-05 DIIS
   @RHF iter   5:  -117.08751244733232   -2.78755e-05   9.27372e-06 DIIS
   @RHF iter   6:  -117.08751402485524   -1.57752e-06   1.57890e-06 DIIS
   @RHF iter   7:  -117.08751407723624   -5.23810e-08   2.44758e-07 DIIS
   @RHF iter   8:  -117.08751407832324   -1.08700e-09   2.98407e-08 DIIS
   @RHF iter   9:  -117.08751407833702   -1.37845e-11   5.20645e-09 DIIS
   @RHF iter  10:  -117.08751407833749   -4.68958e-13   9.44319e-10 DIIS
   @RHF iter  11:  -117.08751407833751   -1.42109e-14   2.80320e-10 DIIS
   @RHF iter  12:  -117.08751407833758   -7.10543e-14   4.74451e-11 DIIS
  Energy and wave function converged.


  ==> Post-Iterations <==

    Orbital Energies [Eh]
    ---------------------

    Doubly Occupied:                                                      

       1A    -11.228412     2A    -11.227439     3A    -11.227434  
       4A     -1.126349     5A     -0.814601     6A     -0.814594  
       7A     -0.663762     8A     -0.622867     9A     -0.510816  
      10A     -0.510802    11A     -0.417300    12A     -0.417291  

    Virtual:                                                              

      13A      0.049583    14A      0.060286    15A      0.060791  
      16A      0.060791    17A      0.091500    18A      0.091504  
      19A      0.136011    20A      0.136213    21A      0.136216  
      22A      0.174065    23A      0.180122    24A      0.180126  
      25A      0.207750    26A      0.211885    27A      0.211891  
      28A      0.222873    29A      0.224109    30A      0.224110  
      31A      0.284570    32A      0.294494    33A      0.336999  
      34A      0.363436    35A      0.363450    36A      0.381201  
      37A      0.381209    38A      0.471902    39A      0.471908  
      40A      0.545830    41A      0.588265    42A      0.653138  
      43A      0.653154    44A      0.715512    45A      0.715560  
      46A      0.752583    47A      0.850198    48A      0.861139  
      49A      0.864290    50A      0.864299    51A      0.880657  
      52A      0.880664    53A      0.910053    54A      0.910060  
      55A      0.967070    56A      1.119453    57A      1.119454  
      58A      1.432596    59A      1.471901    60A      1.479400  
      61A      1.479411    62A      1.624403    63A      1.718163  
      64A      1.718190    65A      1.776969    66A      1.777028  
      67A      1.859404    68A      1.897859    69A      1.925568  
      70A      1.925607    71A      2.031889    72A      2.031924  
      73A      2.032681    74A      2.114291    75A      2.114297  
      76A      2.329778    77A      2.329785    78A      2.350499  
      79A      2.350514    80A      2.412093    81A      2.536654  
      82A      2.536718    83A      2.602733    84A      2.684753  
      85A      2.719185    86A      2.778637    87A      2.861119  
      88A      2.861155    89A      2.993613    90A      2.993667  
      91A      3.036293    92A      3.072754    93A      3.077213  
      94A      3.077231    95A      3.323901    96A      3.323959  
      97A      3.325299    98A      3.325410    99A      3.785717  
     100A      3.926928   101A      3.930311   102A      4.260440  
     103A      4.260473   104A      4.818537   105A      4.818569  
     106A     25.045865   107A     25.045890   108A     25.060525  

    Final Occupation by Irrep:
              A 
    DOCC [    12 ]

  @RHF Final Energy:  -117.08751407833758

   => Energetics <=

    Nuclear Repulsion Energy =             75.2814624519794933
    One-Electron Energy =                -305.5746178631117687
    Two-Electron Energy =                 113.2056413327946842
    Total Energy =                       -117.0875140783375770

Computation Completed


Properties will be evaluated at   0.000000,   0.000000,   0.000000 [a0]

Properties computed using the SCF density matrix

  Nuclear Dipole Moment: [e a0]
     X:    -0.0002      Y:    -0.0002      Z:     0.0021

  Electronic Dipole Moment: [e a0]
     X:     0.0001      Y:     0.0001      Z:    -0.0024

  Dipole Moment: [e a0]
     X:    -0.0000      Y:    -0.0000      Z:    -0.0004     Total:     0.0004

  Dipole Moment: [D]
     X:    -0.0001      Y:    -0.0001      Z:    -0.0009     Total:     0.0009


*** tstop() called on atlantis at Tue Apr 19 15:32:36 2022
Module time:
	user time   =       2.31 seconds =       0.04 minutes
	system time =       0.06 seconds =       0.00 minutes
	total time  =          2 seconds =       0.03 minutes
Total time:
	user time   =     601.99 seconds =      10.03 minutes
	system time =     266.63 seconds =       4.44 minutes
	total time  =        879 seconds =      14.65 minutes
 MINTS: Wrapper to libmints.
   by Justin Turney

   Calculation information:
      Number of threads:                 1
      Number of atoms:                   9
      Number of AO shells:              60
      Number of SO shells:              60
      Number of primitives:             99
      Number of atomic orbitals:       111
      Number of basis functions:       108

      Number of irreps:                  1
      Integral cutoff                 0.00e+00
      Number of functions per irrep: [ 108 ]

 OEINTS: Overlap, kinetic, potential, dipole, and quadrupole integrals
         stored in file 35.

      Computing two-electron integrals...done
      Computed 17262470 non-zero two-electron integrals.
        Stored in file 33.


*** tstart() called on atlantis
*** at Tue Apr 19 15:32:38 2022


	Wfn Parameters:
	--------------------
	Wavefunction         = CCSD
	Number of irreps     = 1
	Number of MOs        = 108
	Number of active MOs = 108
	AO-Basis             = NONE
	Semicanonical        = false
	Reference            = RHF
	Print Level          = 1

	IRREP	# MOs	# FZDC	# DOCC	# SOCC	# VIRT	# FZVR
	-----	-----	------	------	------	------	------
	 A	   108	    0	    12	    0	    96	    0
	Transforming integrals...
	IWL integrals will be deleted.
	(OO|OO)...
	Presorting SO-basis two-electron integrals.
	Sorting File: SO Ints (nn|nn) nbuckets = 1
	Transforming the one-electron integrals and constructing Fock matrices
	Starting first half-transformation.
	Sorting half-transformed integrals.
	First half integral transformation complete.
	Starting second half-transformation.
	Two-electron integral transformation complete.
	(OO|OV)...
	Starting second half-transformation.
	Two-electron integral transformation complete.
	(OO|VV)...
	Starting second half-transformation.
	Two-electron integral transformation complete.
	(OV|OO)...
	Starting first half-transformation.
	Sorting half-transformed integrals.
	First half integral transformation complete.
	Starting second half-transformation.
	Two-electron integral transformation complete.
	(OV|OV)...
	Starting second half-transformation.
	Two-electron integral transformation complete.
	(OV|VV)...
	Starting second half-transformation.
	Two-electron integral transformation complete.
	(VV|OO)...
	Starting first half-transformation.
	Sorting half-transformed integrals.
	First half integral transformation complete.
	Starting second half-transformation.
	Two-electron integral transformation complete.
	(VV|OV)...
	Starting second half-transformation.
	Two-electron integral transformation complete.
	(VV|VV)...
	Starting second half-transformation.
	Two-electron integral transformation complete.
	Frozen core energy     =      0.00000000000000

	Size of irrep 0 of <ab|cd> integrals:     84.935 (MW) /    679.477 (MB)
	Total:                                    84.935 (MW) /    679.477 (MB)

	Size of irrep 0 of <ia|bc> integrals:     10.617 (MW) /     84.935 (MB)
	Total:                                    10.617 (MW) /     84.935 (MB)

	Size of irrep 0 of tijab amplitudes:       1.327 (MW) /     10.617 (MB)
	Total:                                     1.327 (MW) /     10.617 (MB)

	Nuclear Rep. energy          =     75.28146245197949
	SCF energy                   =   -117.08751407833758
	One-electron energy          =   -305.57461786455679
	Two-electron energy          =    113.20564133423929
	Reference energy             =   -117.08751407833800

*** tstop() called on atlantis at Tue Apr 19 15:32:46 2022
Module time:
	user time   =       5.56 seconds =       0.09 minutes
	system time =       2.23 seconds =       0.04 minutes
	total time  =          8 seconds =       0.13 minutes
Total time:
	user time   =     609.05 seconds =      10.15 minutes
	system time =     268.95 seconds =       4.48 minutes
	total time  =        889 seconds =      14.82 minutes
            **************************
            *                        *
            *        CCENERGY        *
            *                        *
            **************************

    Nuclear Rep. energy (wfn)     =   75.281462451979493
    SCF energy          (wfn)     = -117.087514078337577
    Reference energy    (file100) = -117.087514078338003

    Input parameters:
    -----------------
    Wave function   =     CCSD
    Reference wfn   =     RHF
    Brueckner       =     No
    Memory (Mbytes) =     524.3
    Maxiter         =     50
    R_Convergence   =     1.0e-07
    E_Convergence   =     1.0e-08
    Restart         =     Yes
    DIIS            =     Yes
    AO Basis        =     NONE
    ABCD            =     NEW
    Cache Level     =     2
    Cache Type      =     LOW
    Print Level     =     1
    Num. of threads =     1
    # Amps to Print =     10
    Print MP2 Amps? =     No
    Analyze T2 Amps =     No
    Print Pair Ener =     No
    Local CC        =     No
    SCS-MP2         =     False
    SCSN-MP2        =     False
    SCS-CCSD        =     False

MP2 correlation energy -0.5077954775368165
                Solving CC Amplitude Equations
                ------------------------------
  Iter             Energy              RMS        T1Diag      D1Diag    New D1Diag    D2Diag
  ----     ---------------------    ---------   ----------  ----------  ----------   --------
     0        -0.507795477536817    0.000e+00    0.000000    0.000000    0.000000    0.135478
     1        -0.531224593377901    5.742e-02    0.005470    0.012732    0.012732    0.141863
     2        -0.544572260997250    1.870e-02    0.005942    0.013333    0.013333    0.148644
     3        -0.545686501634082    5.251e-03    0.006394    0.014513    0.014513    0.149995
     4        -0.545729076428387    1.398e-03    0.006405    0.014515    0.014515    0.150404
     5        -0.545768357215302    3.570e-04    0.006405    0.014507    0.014507    0.150485
     6        -0.545772008235563    1.099e-04    0.006404    0.014500    0.014500    0.150495
     7        -0.545771651728192    2.582e-05    0.006403    0.014497    0.014497    0.150496
     8        -0.545772050612120    6.932e-06    0.006403    0.014496    0.014496    0.150496
     9        -0.545772091127041    1.973e-06    0.006403    0.014496    0.014496    0.150496
    10        -0.545772026178251    5.773e-07    0.006403    0.014496    0.014496    0.150496
    11        -0.545772040735537    1.797e-07    0.006403    0.014496    0.014496    0.150496
    12        -0.545772037172874    4.096e-08    0.006403    0.014496    0.014496    0.150496
    13        -0.545772038438443    1.297e-08    0.006403    0.014496    0.014496    0.150496

    Iterations converged.


    Largest TIA Amplitudes:
              6  18         0.0096067542
              6  28        -0.0077330026
             10  50        -0.0071683194
             11  51         0.0071680749
             11  36        -0.0070903104
             10  37         0.0070899741
              9  38         0.0049438576
              8  39         0.0049434751
             10  84        -0.0047156328
             11  85         0.0045505497

    Largest TIjAb Amplitudes:
     10  10  20  20        -0.0412337997
     11  11  20  20        -0.0412321396
     10  10  20  35        -0.0194836994
     10  10  35  20        -0.0194836994
     11  11  20  35        -0.0194311483
     11  11  35  20        -0.0194311483
      9   9  38  38        -0.0186578794
      8   8  39  39        -0.0186557903
     10  11  20  25        -0.0140088302
     11  10  25  20        -0.0140088302

    SCF energy       (wfn)                    = -117.087514078337577
    Reference energy (file100)                = -117.087514078338003

    Opposite-spin MP2 correlation energy      =   -0.397707022653031
    Same-spin MP2 correlation energy          =   -0.110088454883786
    MP2 correlation energy                    =   -0.507795477536817
      * MP2 total energy                      = -117.595309555874820

    Opposite-spin CCSD correlation energy     =   -0.444050380381977
    Same-spin CCSD correlation energy         =   -0.101721658056465
    CCSD correlation energy                   =   -0.545772038438443
      * CCSD total energy                     = -117.633286116776446


			**************************
			*                        *
			*         CCHBAR         *
			*                        *
			**************************


			**************************
			*        CCLAMBDA        *
			**************************


	Nuclear Rep. energy (wfn)     =   75.281462451979493
	Reference           (wfn)     =                    0
	SCF energy          (wfn)     = -117.087514078337577
	Reference energy    (CC_INFO) = -117.087514078338003
	CCSD energy         (CC_INFO) =   -0.545772038438443
	Total CCSD energy   (CC_INFO) = -117.633286116776446

	Input parameters:
	-----------------
	Maxiter           =     50
	Convergence       = 1.0e-07
	Restart           =     No
	Cache Level       =     2
	Model III         =     No
	DIIS              =     Yes
	AO Basis          =     No
	ABCD              =     NEW
	Local CC          =     No
	Parameters for left-handed eigenvectors:
	    Irr   Root  Ground-State?    EOM energy        R0
	  1   0     0        Yes       0.0000000000   1.0000000000
	Labels for eigenvector 1:
	LIA 0 -1, Lia 0 -1, LIJAB 0 -1, Lijab 0 -1, LIjAb 0 -1, 2LIjAb - LIjbA 0 -1
	Symmetry of left-hand state: A
	Symmetry of left-hand eigenvector: A

	          Solving Lambda Equations
	          ------------------------
	Iter     PseudoEnergy or Norm         RMS  
	----     ---------------------     --------
	   0        -0.545850551752638    2.983e-08
	   1        -0.533005519800374    1.440e-02
	   2        -0.531286730945732    3.049e-03
	   3        -0.531035472001138    8.584e-04
	   4        -0.531030899812749    2.293e-04
	   5        -0.531038147704129    6.069e-05
	   6        -0.531036676491122    1.972e-05
	   7        -0.531036747394030    5.929e-06
	   8        -0.531036856380142    1.704e-06
	   9        -0.531036837490629    5.206e-07
	  10        -0.531036840799567    1.098e-07
	  11        -0.531036840055720    2.993e-08

	Largest LIA Amplitudes:
	          6  18         0.0066120868
	         10  50        -0.0063409403
	         11  51         0.0063407110
	         11  36        -0.0054805426
	         10  37         0.0054803394
	          6  28        -0.0053414451
	          6  49        -0.0038007564
	         10  84        -0.0034450240
	          9  74         0.0034334808
	          8  75         0.0034329987

	Largest LIjAb Amplitudes:
	 10  10  20  20        -0.0392054807
	 11  11  20  20        -0.0392038820
	 10  10  20  35        -0.0185509036
	 10  10  35  20        -0.0185509036
	 11  11  20  35        -0.0185005963
	 11  11  35  20        -0.0185005963
	  9   9  38  38        -0.0182238575
	  8   8  39  39        -0.0182218220
	  9   9  21  21        -0.0134887016
	  8   8  22  22        -0.0134873746

	Iterations converged.

	Overlap <L|e^T> =        0.81770337027

			**************************
			*                        *
			*        CCDENSITY       *
			*                        *
			**************************


	Input parameters:
	-----------------
	Wave function    =   CCSD
	Reference wfn    =   RHF
	Dertype          = 1
	Tolerance        = 1.0e-14
	Cache Level      = 2
	AO Basis         = No
	OPDM Only        = No
	Relax OPDM       = Yes
	Compute Xi       = No
	Use Zeta         = No
	Xi connected     = Yes
	Compute NO       = No

	Nuclear Rep. energy (wfn)     =   75.281462451979493
	SCF energy          (wfn)     = -117.087514078337577
	Reference energy    (file100) = -117.087514078338003
	CCSD energy         (CC_INFO) =   -0.545772038438443
	Total CCSD energy   (CC_INFO) = -117.633286116776446
	Number of States = 1

	Ground?  State     EOM Energy       R0
	  Yes     0  A    0.0000000000   1.00000000

	DPD File4 Cache Listing:

Cache Label            DPD File symm  pq  rs  use acc clean    pri lock size(kB)
--------------------------------------------------------------------------------
tauIjAb                 0   109   0    0   5    6 154    1       0   1   10616.8
--------------------------------------------------------------------------------
Total cached:  10616.8 kB; MRU =    214; LRU =    215
#LRU deletions =     12; #Low-priority deletions =      0
Core max size:   524288.0 kB
Core used:        21233.7 kB
Core available:  503054.3 kB
Core cached:      10616.8 kB
Locked cached:    10616.8 kB
Most recent entry  = 214
Least recent entry = 215
dpd_block_matrix: n = 9216  m = 9216
Error in: dpd_block_matrix: No memory left.
