
    -----------------------------------------------------------------------
          Psi4: An Open-Source Ab Initio Electronic Structure Package
                               Psi4 1.3.2 release

                         Git: Rev {HEAD} ecbda83 


    R. M. Parrish, L. A. Burns, D. G. A. Smith, A. C. Simmonett,
    A. E. DePrince III, E. G. Hohenstein, U. Bozkaya, A. Yu. Sokolov,
    R. Di Remigio, R. M. Richard, J. F. Gonthier, A. M. James,
    H. R. McAlexander, A. Kumar, M. Saitow, X. Wang, B. P. Pritchard,
    P. Verma, H. F. Schaefer III, K. Patkowski, R. A. King, E. F. Valeev,
    F. A. Evangelista, J. M. Turney, T. D. Crawford, and C. D. Sherrill,
    J. Chem. Theory Comput. 13(7) pp 3185--3197 (2017).
    (doi: 10.1021/acs.jctc.7b00174)


                         Additional Contributions by
    P. Kraus, H. Kruse, M. H. Lechner, M. C. Schieber, R. A. Shaw,
    A. Alenaizan, R. Galvelis, Z. L. Glick, S. Lehtola, and J. P. Misiewicz

    -----------------------------------------------------------------------


    Psi4 started on: Tuesday, 19 April 2022 12:36AM

    Process ID: 25620
    Host:       atlantis
    PSIDATADIR: /home/akrom/software/anaconda3/envs/ffpenv/share/psi4
    Memory:     500.0 MiB
    Threads:    1
    
  ==> Input File <==

--------------------------------------------------------------------------
set basis  6-31++G**
molecule {
0 1
   O        0.00000        0.00000        0.49152
   C        0.00000        0.00000       -0.65516
}
energy('m06-2x')
frequencies('m06-2x')
--------------------------------------------------------------------------

*** tstart() called on atlantis
*** at Tue Apr 19 00:36:52 2022

   => Loading Basis Set <=

    Name: 6-31++G**
    Role: ORBITAL
    Keyword: BASIS
    atoms 1 entry O          line   153 file /home/akrom/software/anaconda3/envs/ffpenv/share/psi4/basis/6-31ppgss.gbs 
    atoms 2 entry C          line   115 file /home/akrom/software/anaconda3/envs/ffpenv/share/psi4/basis/6-31ppgss.gbs 


         ---------------------------------------------------------
                                   SCF
               by Justin Turney, Rob Parrish, Andy Simmonett
                          and Daniel G. A. Smith
                              RKS Reference
                        1 Threads,    500 MiB Core
         ---------------------------------------------------------

  ==> Geometry <==

    Molecular point group: c2v
    Full point group: C_inf_v

    Geometry (in Angstrom), charge = 0, multiplicity = 1:

       Center              X                  Y                   Z               Mass       
    ------------   -----------------  -----------------  -----------------  -----------------
         O            0.000000000000     0.000000000000     0.491523556581    15.994914619570
         C            0.000000000000     0.000000000000    -0.655156443419    12.000000000000

  Running in c2v symmetry.

  Rotational constants: A = ************  B =      1.86994  C =      1.86994 [cm^-1]
  Rotational constants: A = ************  B =  56059.43274  C =  56059.43274 [MHz]
  Nuclear repulsion =   22.151346593783796

  Charge       = 0
  Multiplicity = 1
  Electrons    = 14
  Nalpha       = 7
  Nbeta        = 7

  ==> Algorithm <==

  SCF Algorithm Type is DF.
  DIIS enabled.
  MOM disabled.
  Fractional occupation disabled.
  Guess Type is SAD.
  Energy threshold   = 1.00e-06
  Density threshold  = 1.00e-06
  Integral threshold = 0.00e+00

  ==> Primary Basis <==

  Basis Set: 6-31++G**
    Blend: 6-31++G**
    Number of shells: 16
    Number of basis function: 38
    Number of Cartesian functions: 38
    Spherical Harmonics?: false
    Max angular momentum: 2

  ==> DFT Potential <==

   => Composite Functional: M06-2X <= 

    Hybrid M06-2X Meta-GGA XC Functional

    Y. Zhao and D. G. Truhlar,  Theor. Chem. Acc., 120, 215, 2008


    Deriv               =              1
    GGA                 =           TRUE
    Meta                =           TRUE

    Exchange Hybrid     =           TRUE
    MP2 Hybrid          =          FALSE

   => Exchange Functionals <=

    1.0000   XC_HYB_MGGA_X_M06_2X

   => Exact (HF) Exchange <=

    0.5400               HF 

   => Correlation Functionals <=

    1.0000   XC_MGGA_C_M06_2X

   => Molecular Quadrature <=

    Radial Scheme          =       TREUTLER
    Pruning Scheme         =           FLAT
    Nuclear Scheme         =       TREUTLER

    BS radius alpha        =              1
    Pruning alpha          =              1
    Radial Points          =             75
    Spherical Points       =            302
    Total Points           =          45300
    Total Blocks           =            420
    Max Points             =            256
    Max Functions          =             38

   => Loading Basis Set <=

    Name: (6-31++G** AUX)
    Role: JKFIT
    Keyword: DF_BASIS_SCF
    atoms 1 entry O          line   270 file /home/akrom/software/anaconda3/envs/ffpenv/share/psi4/basis/aug-cc-pvdz-jkfit.gbs 
    atoms 2 entry C          line   154 file /home/akrom/software/anaconda3/envs/ffpenv/share/psi4/basis/aug-cc-pvdz-jkfit.gbs 

  ==> Pre-Iterations <==

   -------------------------------------------------------
    Irrep   Nso     Nmo     Nalpha   Nbeta   Ndocc  Nsocc
   -------------------------------------------------------
     A1        20      20       0       0       0       0
     A2         2       2       0       0       0       0
     B1         8       8       0       0       0       0
     B2         8       8       0       0       0       0
   -------------------------------------------------------
    Total      38      38       7       7       7       0
   -------------------------------------------------------

  ==> Integral Setup <==

  DFHelper Memory: AOs need 0.003 GiB; user supplied 0.249 GiB. Using in-core AOs.

  ==> MemDFJK: Density-Fitted J/K Matrices <==

    J tasked:                   Yes
    K tasked:                   Yes
    wK tasked:                   No
    OpenMP threads:               1
    Memory [MiB]:               254
    Algorithm:                 Core
    Schwarz Cutoff:           1E-12
    Mask sparsity (%):       0.0000
    Fitting Condition:        1E-10

   => Auxiliary Basis Set <=

  Basis Set: (6-31++G** AUX)
    Blend: AUG-CC-PVDZ-JKFIT
    Number of shells: 56
    Number of basis function: 202
    Number of Cartesian functions: 202
    Spherical Harmonics?: false
    Max angular momentum: 3

  Cached 100.0% of DFT collocation blocks in 0.117 [GiB].

  Minimum eigenvalue in the overlap matrix is 5.3645347376E-03.
  Using Symmetric Orthogonalization.

  SCF Guess: Superposition of Atomic Densities via on-the-fly atomic UHF.

  ==> Iterations <==

                           Total Energy        Delta E     RMS |[F,P]|

   @DF-RKS iter SAD:  -112.60221368290567   -1.12602e+02   0.00000e+00 
   @DF-RKS iter   1:  -113.23797965841828   -6.35766e-01   1.41355e-02 DIIS
   @DF-RKS iter   2:  -113.18898983521166    4.89898e-02   2.15951e-02 DIIS
   @DF-RKS iter   3:  -113.27508472593362   -8.60949e-02   2.16792e-03 DIIS
   @DF-RKS iter   4:  -113.27627086561522   -1.18614e-03   2.46019e-04 DIIS
   @DF-RKS iter   5:  -113.27628361029429   -1.27447e-05   6.65986e-05 DIIS
   @DF-RKS iter   6:  -113.27628451266398   -9.02370e-07   1.00048e-05 DIIS
   @DF-RKS iter   7:  -113.27628453440505   -2.17411e-08   4.15368e-07 DIIS
  Energy and wave function converged.


  ==> Post-Iterations <==

    Orbital Energies [Eh]
    ---------------------

    Doubly Occupied:                                                      

       1A1   -19.761895     2A1   -10.681241     3A1    -1.285777  
       4A1    -0.671322     1B2    -0.548928     1B1    -0.548928  
       5A1    -0.451646  

    Virtual:                                                              

       2B1     0.004784     2B2     0.004784     6A1     0.035409  
       7A1     0.068819     3B2     0.084022     3B1     0.084022  
       8A1     0.200033     4B1     0.229568     4B2     0.229568  
       9A1     0.288444    10A1     0.456856     5B1     0.684424  
       5B2     0.684424    11A1     0.795248    12A1     1.073983  
      13A1     1.206379     6B2     1.211717     6B1     1.211717  
      14A1     1.519292     1A2     1.519303    15A1     1.528358  
       7B2     1.592002     7B1     1.592002    16A1     1.979822  
       2A2     1.979834    17A1     2.499028     8B1     2.634995  
       8B2     2.634995    18A1     3.067821    19A1     4.008763  
      20A1     4.171087  

    Final Occupation by Irrep:
             A1    A2    B1    B2 
    DOCC [     5,    0,    1,    1 ]

  @DF-RKS Final Energy:  -113.27628453440505

   => Energetics <=

    Nuclear Repulsion Energy =             22.1513465937837957
    One-Electron Energy =                -197.4465097704292020
    Two-Electron Energy =                  68.6647392058610109
    DFT Exchange-Correlation Energy =      -6.6458605636206389
    Empirical Dispersion Energy =           0.0000000000000000
    VV10 Nonlocal Energy =                  0.0000000000000000
    Total Energy =                       -113.2762845344050504

Computation Completed


Properties will be evaluated at   0.000000,   0.000000,   0.000000 [a0]

Properties computed using the SCF density matrix

  Nuclear Dipole Moment: [e a0]
     X:     0.0000      Y:     0.0000      Z:     0.0024

  Electronic Dipole Moment: [e a0]
     X:     0.0000      Y:     0.0000      Z:    -0.0306

  Dipole Moment: [e a0]
     X:     0.0000      Y:     0.0000      Z:    -0.0282     Total:     0.0282

  Dipole Moment: [D]
     X:     0.0000      Y:     0.0000      Z:    -0.0718     Total:     0.0718


*** tstop() called on atlantis at Tue Apr 19 00:36:54 2022
Module time:
	user time   =       1.19 seconds =       0.02 minutes
	system time =       0.03 seconds =       0.00 minutes
	total time  =          2 seconds =       0.03 minutes
Total time:
	user time   =       1.19 seconds =       0.02 minutes
	system time =       0.03 seconds =       0.00 minutes
	total time  =          2 seconds =       0.03 minutes
gradient() will perform analytic gradient computation.

*** tstart() called on atlantis
*** at Tue Apr 19 00:36:54 2022

   => Loading Basis Set <=

    Name: 6-31++G**
    Role: ORBITAL
    Keyword: BASIS
    atoms 1 entry O          line   153 file /home/akrom/software/anaconda3/envs/ffpenv/share/psi4/basis/6-31ppgss.gbs 
    atoms 2 entry C          line   115 file /home/akrom/software/anaconda3/envs/ffpenv/share/psi4/basis/6-31ppgss.gbs 


         ---------------------------------------------------------
                                   SCF
               by Justin Turney, Rob Parrish, Andy Simmonett
                          and Daniel G. A. Smith
                              RKS Reference
                        1 Threads,    500 MiB Core
         ---------------------------------------------------------

  ==> Geometry <==

    Molecular point group: c2v
    Full point group: C_inf_v

    Geometry (in Angstrom), charge = 0, multiplicity = 1:

       Center              X                  Y                   Z               Mass       
    ------------   -----------------  -----------------  -----------------  -----------------
         O            0.000000000000     0.000000000000     0.491523556581    15.994914619570
         C            0.000000000000     0.000000000000    -0.655156443419    12.000000000000

  Running in c2v symmetry.

  Rotational constants: A = ************  B =      1.86994  C =      1.86994 [cm^-1]
  Rotational constants: A = ************  B =  56059.43274  C =  56059.43274 [MHz]
  Nuclear repulsion =   22.151346593783796

  Charge       = 0
  Multiplicity = 1
  Electrons    = 14
  Nalpha       = 7
  Nbeta        = 7

  ==> Algorithm <==

  SCF Algorithm Type is DF.
  DIIS enabled.
  MOM disabled.
  Fractional occupation disabled.
  Guess Type is SAD.
  Energy threshold   = 1.00e-08
  Density threshold  = 1.00e-08
  Integral threshold = 0.00e+00

  ==> Primary Basis <==

  Basis Set: 6-31++G**
    Blend: 6-31++G**
    Number of shells: 16
    Number of basis function: 38
    Number of Cartesian functions: 38
    Spherical Harmonics?: false
    Max angular momentum: 2

  ==> DFT Potential <==

   => Composite Functional: M06-2X <= 

    Hybrid M06-2X Meta-GGA XC Functional

    Y. Zhao and D. G. Truhlar,  Theor. Chem. Acc., 120, 215, 2008


    Deriv               =              1
    GGA                 =           TRUE
    Meta                =           TRUE

    Exchange Hybrid     =           TRUE
    MP2 Hybrid          =          FALSE

   => Exchange Functionals <=

    1.0000   XC_HYB_MGGA_X_M06_2X

   => Exact (HF) Exchange <=

    0.5400               HF 

   => Correlation Functionals <=

    1.0000   XC_MGGA_C_M06_2X

   => Molecular Quadrature <=

    Radial Scheme          =       TREUTLER
    Pruning Scheme         =           FLAT
    Nuclear Scheme         =       TREUTLER

    BS radius alpha        =              1
    Pruning alpha          =              1
    Radial Points          =             75
    Spherical Points       =            302
    Total Points           =          45300
    Total Blocks           =            420
    Max Points             =            256
    Max Functions          =             38

   => Loading Basis Set <=

    Name: (6-31++G** AUX)
    Role: JKFIT
    Keyword: DF_BASIS_SCF
    atoms 1 entry O          line   270 file /home/akrom/software/anaconda3/envs/ffpenv/share/psi4/basis/aug-cc-pvdz-jkfit.gbs 
    atoms 2 entry C          line   154 file /home/akrom/software/anaconda3/envs/ffpenv/share/psi4/basis/aug-cc-pvdz-jkfit.gbs 

  ==> Pre-Iterations <==

   -------------------------------------------------------
    Irrep   Nso     Nmo     Nalpha   Nbeta   Ndocc  Nsocc
   -------------------------------------------------------
     A1        20      20       0       0       0       0
     A2         2       2       0       0       0       0
     B1         8       8       0       0       0       0
     B2         8       8       0       0       0       0
   -------------------------------------------------------
    Total      38      38       7       7       7       0
   -------------------------------------------------------

  ==> Integral Setup <==

  DFHelper Memory: AOs need 0.003 GiB; user supplied 0.249 GiB. Using in-core AOs.

  ==> MemDFJK: Density-Fitted J/K Matrices <==

    J tasked:                   Yes
    K tasked:                   Yes
    wK tasked:                   No
    OpenMP threads:               1
    Memory [MiB]:               254
    Algorithm:                 Core
    Schwarz Cutoff:           1E-12
    Mask sparsity (%):       0.0000
    Fitting Condition:        1E-10

   => Auxiliary Basis Set <=

  Basis Set: (6-31++G** AUX)
    Blend: AUG-CC-PVDZ-JKFIT
    Number of shells: 56
    Number of basis function: 202
    Number of Cartesian functions: 202
    Spherical Harmonics?: false
    Max angular momentum: 3

  Cached 100.0% of DFT collocation blocks in 0.117 [GiB].

  Minimum eigenvalue in the overlap matrix is 5.3645347376E-03.
  Using Symmetric Orthogonalization.

  SCF Guess: Superposition of Atomic Densities via on-the-fly atomic UHF.

  ==> Iterations <==

                           Total Energy        Delta E     RMS |[F,P]|

   @DF-RKS iter SAD:  -112.60221368290567   -1.12602e+02   0.00000e+00 
   @DF-RKS iter   1:  -113.23797965841828   -6.35766e-01   1.41355e-02 DIIS
   @DF-RKS iter   2:  -113.18898983521166    4.89898e-02   2.15951e-02 DIIS
   @DF-RKS iter   3:  -113.27508472593362   -8.60949e-02   2.16792e-03 DIIS
   @DF-RKS iter   4:  -113.27627086561522   -1.18614e-03   2.46019e-04 DIIS
   @DF-RKS iter   5:  -113.27628361029429   -1.27447e-05   6.65986e-05 DIIS
   @DF-RKS iter   6:  -113.27628451266398   -9.02370e-07   1.00048e-05 DIIS
   @DF-RKS iter   7:  -113.27628453440505   -2.17411e-08   4.15368e-07 DIIS
   @DF-RKS iter   8:  -113.27628453451263   -1.07576e-10   1.16609e-07 DIIS
   @DF-RKS iter   9:  -113.27628453451572   -3.09797e-12   5.50731e-09 DIIS
  Energy and wave function converged.


  ==> Post-Iterations <==

    Orbital Energies [Eh]
    ---------------------

    Doubly Occupied:                                                      

       1A1   -19.761896     2A1   -10.681240     3A1    -1.285777  
       4A1    -0.671322     1B2    -0.548928     1B1    -0.548928  
       5A1    -0.451645  

    Virtual:                                                              

       2B1     0.004785     2B2     0.004785     6A1     0.035409  
       7A1     0.068819     3B2     0.084022     3B1     0.084022  
       8A1     0.200033     4B1     0.229568     4B2     0.229568  
       9A1     0.288444    10A1     0.456856     5B1     0.684424  
       5B2     0.684424    11A1     0.795249    12A1     1.073984  
      13A1     1.206379     6B2     1.211717     6B1     1.211717  
      14A1     1.519292     1A2     1.519304    15A1     1.528358  
       7B2     1.592002     7B1     1.592002    16A1     1.979822  
       2A2     1.979834    17A1     2.499028     8B1     2.634995  
       8B2     2.634995    18A1     3.067821    19A1     4.008763  
      20A1     4.171087  

    Final Occupation by Irrep:
             A1    A2    B1    B2 
    DOCC [     5,    0,    1,    1 ]

  @DF-RKS Final Energy:  -113.27628453451572

   => Energetics <=

    Nuclear Repulsion Energy =             22.1513465937837957
    One-Electron Energy =                -197.4464825674878909
    Two-Electron Energy =                  68.6647103874401239
    DFT Exchange-Correlation Energy =      -6.6458589482517372
    Empirical Dispersion Energy =           0.0000000000000000
    VV10 Nonlocal Energy =                  0.0000000000000000
    Total Energy =                       -113.2762845345157245

Computation Completed


Properties will be evaluated at   0.000000,   0.000000,   0.000000 [a0]

Properties computed using the SCF density matrix

  Nuclear Dipole Moment: [e a0]
     X:     0.0000      Y:     0.0000      Z:     0.0024

  Electronic Dipole Moment: [e a0]
     X:     0.0000      Y:     0.0000      Z:    -0.0306

  Dipole Moment: [e a0]
     X:     0.0000      Y:     0.0000      Z:    -0.0282     Total:     0.0282

  Dipole Moment: [D]
     X:     0.0000      Y:     0.0000      Z:    -0.0718     Total:     0.0718


*** tstop() called on atlantis at Tue Apr 19 00:36:55 2022
Module time:
	user time   =       1.41 seconds =       0.02 minutes
	system time =       0.00 seconds =       0.00 minutes
	total time  =          1 seconds =       0.02 minutes
Total time:
	user time   =       2.60 seconds =       0.04 minutes
	system time =       0.03 seconds =       0.00 minutes
	total time  =          3 seconds =       0.05 minutes

*** tstart() called on atlantis
*** at Tue Apr 19 00:36:55 2022


         ------------------------------------------------------------
                                   SCF GRAD                          
                          Rob Parrish, Justin Turney,                
                       Andy Simmonett, and Alex Sokolov              
         ------------------------------------------------------------

  ==> Geometry <==

    Molecular point group: c2v
    Full point group: C_inf_v

    Geometry (in Angstrom), charge = 0, multiplicity = 1:

       Center              X                  Y                   Z               Mass       
    ------------   -----------------  -----------------  -----------------  -----------------
         O            0.000000000000     0.000000000000     0.491523556581    15.994914619570
         C            0.000000000000     0.000000000000    -0.655156443419    12.000000000000

  Nuclear repulsion =   22.151346593783796

  ==> Basis Set <==

  Basis Set: 6-31++G**
    Blend: 6-31++G**
    Number of shells: 16
    Number of basis function: 38
    Number of Cartesian functions: 38
    Spherical Harmonics?: false
    Max angular momentum: 2

  ==> DFJKGrad: Density-Fitted SCF Gradients <==

    Gradient:                    1
    J tasked:                  Yes
    K tasked:                  Yes
    wK tasked:                  No
    OpenMP threads:              1
    Integrals threads:           1
    Memory [MiB]:              375
    Schwarz Cutoff:          0E+00
    Fitting Condition:       1E-10

   => Auxiliary Basis Set <=

  Basis Set: (6-31++G** AUX)
    Blend: AUG-CC-PVDZ-JKFIT
    Number of shells: 56
    Number of basis function: 202
    Number of Cartesian functions: 202
    Spherical Harmonics?: false
    Max angular momentum: 3

  ==> DFT Potential <==

   => Composite Functional: M06-2X <= 

    Hybrid M06-2X Meta-GGA XC Functional

    Y. Zhao and D. G. Truhlar,  Theor. Chem. Acc., 120, 215, 2008


    Deriv               =              1
    GGA                 =           TRUE
    Meta                =           TRUE

    Exchange Hybrid     =           TRUE
    MP2 Hybrid          =          FALSE

   => Exchange Functionals <=

    1.0000   XC_HYB_MGGA_X_M06_2X

   => Exact (HF) Exchange <=

    0.5400               HF 

   => Correlation Functionals <=

    1.0000   XC_MGGA_C_M06_2X

   => Molecular Quadrature <=

    Radial Scheme          =       TREUTLER
    Pruning Scheme         =           FLAT
    Nuclear Scheme         =       TREUTLER

    BS radius alpha        =              1
    Pruning alpha          =              1
    Radial Points          =             75
    Spherical Points       =            302
    Total Points           =          45300
    Total Blocks           =            420
    Max Points             =            256
    Max Functions          =             38


  -Total Gradient:
     Atom            X                  Y                   Z
    ------   -----------------  -----------------  -----------------
       1       -0.000000000000    -0.000000000000     0.037965307828
       2        0.000000000000     0.000000000000    -0.037964734900


*** tstop() called on atlantis at Tue Apr 19 00:36:55 2022
Module time:
	user time   =       0.25 seconds =       0.00 minutes
	system time =       0.00 seconds =       0.00 minutes
	total time  =          0 seconds =       0.00 minutes
Total time:
	user time   =       2.85 seconds =       0.05 minutes
	system time =       0.03 seconds =       0.00 minutes
	total time  =          3 seconds =       0.05 minutes

  Based on options and gradient (rms=2.19E-02), recommend projecting translations and not projecting rotations.
hessian() will perform frequency computation by finite difference of analytic gradients.

         ----------------------------------------------------------
                                   FINDIF
                     R. A. King and Jonathon Misiewicz
         ---------------------------------------------------------

  Using finite-differences of gradients to determine vibrational frequencies and 
  normal modes.  Resulting frequencies are only valid at stationary points.
    Generating geometries for use with 3-point formula.
    Displacement size will be 5.00e-03.
    Number of atoms is 2.
    Number of irreps is 4.
    Number of SALCs is 3.
    Translations projected? 1. Rotations projected? 0.
    Index of SALCs per irrep:
     1 :  0 
     2 : 
     3 :  1 
     4 :  2 
    Number of SALCs per irrep:
     Irrep 1: 1
     Irrep 2: 0
     Irrep 3: 1
     Irrep 4: 1
    Number of geometries (including reference) is 5.
    Number of displacements per irrep:
      Irrep 1: 2
      Irrep 2: 0
      Irrep 3: 1
      Irrep 4: 1

  //>>>>>>>>>>>>>>>>>>>>>>>>>>>>>>>>>>>//
  //    Loading displacement 1 of 5    //
  //<<<<<<<<<<<<<<<<<<<<<<<<<<<<<<<<<<<//
gradient() will perform analytic gradient computation.

*** tstart() called on atlantis
*** at Tue Apr 19 00:36:56 2022

   => Loading Basis Set <=

    Name: 6-31++G**
    Role: ORBITAL
    Keyword: BASIS
    atoms 1 entry O          line   153 file /home/akrom/software/anaconda3/envs/ffpenv/share/psi4/basis/6-31ppgss.gbs 
    atoms 2 entry C          line   115 file /home/akrom/software/anaconda3/envs/ffpenv/share/psi4/basis/6-31ppgss.gbs 


         ---------------------------------------------------------
                                   SCF
               by Justin Turney, Rob Parrish, Andy Simmonett
                          and Daniel G. A. Smith
                              RKS Reference
                        1 Threads,    500 MiB Core
         ---------------------------------------------------------

  ==> Geometry <==

    Molecular point group: c2v
    Full point group: C_inf_v

    Geometry (in Angstrom), charge = 0, multiplicity = 1:

       Center              X                  Y                   Z               Mass       
    ------------   -----------------  -----------------  -----------------  -----------------
         O            0.000000000000     0.000000000000     0.491523556581    15.994914619570
         C            0.000000000000     0.000000000000    -0.655156443419    12.000000000000

  Running in c2v symmetry.

  Rotational constants: A = ************  B =      1.86994  C =      1.86994 [cm^-1]
  Rotational constants: A = ************  B =  56059.43274  C =  56059.43274 [MHz]
  Nuclear repulsion =   22.151346593783796

  Charge       = 0
  Multiplicity = 1
  Electrons    = 14
  Nalpha       = 7
  Nbeta        = 7

  ==> Algorithm <==

  SCF Algorithm Type is DF.
  DIIS enabled.
  MOM disabled.
  Fractional occupation disabled.
  Guess Type is SAD.
  Energy threshold   = 1.00e-08
  Density threshold  = 1.00e-08
  Integral threshold = 0.00e+00

  ==> Primary Basis <==

  Basis Set: 6-31++G**
    Blend: 6-31++G**
    Number of shells: 16
    Number of basis function: 38
    Number of Cartesian functions: 38
    Spherical Harmonics?: false
    Max angular momentum: 2

  ==> DFT Potential <==

   => Composite Functional: M06-2X <= 

    Hybrid M06-2X Meta-GGA XC Functional

    Y. Zhao and D. G. Truhlar,  Theor. Chem. Acc., 120, 215, 2008


    Deriv               =              1
    GGA                 =           TRUE
    Meta                =           TRUE

    Exchange Hybrid     =           TRUE
    MP2 Hybrid          =          FALSE

   => Exchange Functionals <=

    1.0000   XC_HYB_MGGA_X_M06_2X

   => Exact (HF) Exchange <=

    0.5400               HF 

   => Correlation Functionals <=

    1.0000   XC_MGGA_C_M06_2X

   => Molecular Quadrature <=

    Radial Scheme          =       TREUTLER
    Pruning Scheme         =           FLAT
    Nuclear Scheme         =       TREUTLER

    BS radius alpha        =              1
    Pruning alpha          =              1
    Radial Points          =             75
    Spherical Points       =            302
    Total Points           =          45300
    Total Blocks           =            420
    Max Points             =            256
    Max Functions          =             38

   => Loading Basis Set <=

    Name: (6-31++G** AUX)
    Role: JKFIT
    Keyword: DF_BASIS_SCF
    atoms 1 entry O          line   270 file /home/akrom/software/anaconda3/envs/ffpenv/share/psi4/basis/aug-cc-pvdz-jkfit.gbs 
    atoms 2 entry C          line   154 file /home/akrom/software/anaconda3/envs/ffpenv/share/psi4/basis/aug-cc-pvdz-jkfit.gbs 

  ==> Pre-Iterations <==

   -------------------------------------------------------
    Irrep   Nso     Nmo     Nalpha   Nbeta   Ndocc  Nsocc
   -------------------------------------------------------
     A1        20      20       0       0       0       0
     A2         2       2       0       0       0       0
     B1         8       8       0       0       0       0
     B2         8       8       0       0       0       0
   -------------------------------------------------------
    Total      38      38       7       7       7       0
   -------------------------------------------------------

  ==> Integral Setup <==

  DFHelper Memory: AOs need 0.003 GiB; user supplied 0.249 GiB. Using in-core AOs.

  ==> MemDFJK: Density-Fitted J/K Matrices <==

    J tasked:                   Yes
    K tasked:                   Yes
    wK tasked:                   No
    OpenMP threads:               1
    Memory [MiB]:               254
    Algorithm:                 Core
    Schwarz Cutoff:           1E-12
    Mask sparsity (%):       0.0000
    Fitting Condition:        1E-10

   => Auxiliary Basis Set <=

  Basis Set: (6-31++G** AUX)
    Blend: AUG-CC-PVDZ-JKFIT
    Number of shells: 56
    Number of basis function: 202
    Number of Cartesian functions: 202
    Spherical Harmonics?: false
    Max angular momentum: 3

  Cached 100.0% of DFT collocation blocks in 0.117 [GiB].

  Minimum eigenvalue in the overlap matrix is 5.3645347376E-03.
  Using Symmetric Orthogonalization.

  SCF Guess: Superposition of Atomic Densities via on-the-fly atomic UHF.

  ==> Iterations <==

                           Total Energy        Delta E     RMS |[F,P]|

   @DF-RKS iter SAD:  -112.60221368290567   -1.12602e+02   0.00000e+00 
   @DF-RKS iter   1:  -113.23797965841828   -6.35766e-01   1.41355e-02 DIIS
   @DF-RKS iter   2:  -113.18898983521166    4.89898e-02   2.15951e-02 DIIS
   @DF-RKS iter   3:  -113.27508472593362   -8.60949e-02   2.16792e-03 DIIS
   @DF-RKS iter   4:  -113.27627086561522   -1.18614e-03   2.46019e-04 DIIS
   @DF-RKS iter   5:  -113.27628361029429   -1.27447e-05   6.65986e-05 DIIS
   @DF-RKS iter   6:  -113.27628451266398   -9.02370e-07   1.00048e-05 DIIS
   @DF-RKS iter   7:  -113.27628453440505   -2.17411e-08   4.15368e-07 DIIS
   @DF-RKS iter   8:  -113.27628453451263   -1.07576e-10   1.16609e-07 DIIS
   @DF-RKS iter   9:  -113.27628453451572   -3.09797e-12   5.50731e-09 DIIS
  Energy and wave function converged.


  ==> Post-Iterations <==

    Orbital Energies [Eh]
    ---------------------

    Doubly Occupied:                                                      

       1A1   -19.761896     2A1   -10.681240     3A1    -1.285777  
       4A1    -0.671322     1B2    -0.548928     1B1    -0.548928  
       5A1    -0.451645  

    Virtual:                                                              

       2B1     0.004785     2B2     0.004785     6A1     0.035409  
       7A1     0.068819     3B2     0.084022     3B1     0.084022  
       8A1     0.200033     4B1     0.229568     4B2     0.229568  
       9A1     0.288444    10A1     0.456856     5B1     0.684424  
       5B2     0.684424    11A1     0.795249    12A1     1.073984  
      13A1     1.206379     6B2     1.211717     6B1     1.211717  
      14A1     1.519292     1A2     1.519304    15A1     1.528358  
       7B2     1.592002     7B1     1.592002    16A1     1.979822  
       2A2     1.979834    17A1     2.499028     8B1     2.634995  
       8B2     2.634995    18A1     3.067821    19A1     4.008763  
      20A1     4.171087  

    Final Occupation by Irrep:
             A1    A2    B1    B2 
    DOCC [     5,    0,    1,    1 ]

  @DF-RKS Final Energy:  -113.27628453451572

   => Energetics <=

    Nuclear Repulsion Energy =             22.1513465937837957
    One-Electron Energy =                -197.4464825674878909
    Two-Electron Energy =                  68.6647103874401239
    DFT Exchange-Correlation Energy =      -6.6458589482517372
    Empirical Dispersion Energy =           0.0000000000000000
    VV10 Nonlocal Energy =                  0.0000000000000000
    Total Energy =                       -113.2762845345157245

Computation Completed


Properties will be evaluated at   0.000000,   0.000000,   0.000000 [a0]

Properties computed using the SCF density matrix

  Nuclear Dipole Moment: [e a0]
     X:     0.0000      Y:     0.0000      Z:     0.0024

  Electronic Dipole Moment: [e a0]
     X:     0.0000      Y:     0.0000      Z:    -0.0306

  Dipole Moment: [e a0]
     X:     0.0000      Y:     0.0000      Z:    -0.0282     Total:     0.0282

  Dipole Moment: [D]
     X:     0.0000      Y:     0.0000      Z:    -0.0718     Total:     0.0718


*** tstop() called on atlantis at Tue Apr 19 00:36:57 2022
Module time:
	user time   =       1.37 seconds =       0.02 minutes
	system time =       0.02 seconds =       0.00 minutes
	total time  =          1 seconds =       0.02 minutes
Total time:
	user time   =       4.50 seconds =       0.07 minutes
	system time =       0.07 seconds =       0.00 minutes
	total time  =          5 seconds =       0.08 minutes

*** tstart() called on atlantis
*** at Tue Apr 19 00:36:57 2022


         ------------------------------------------------------------
                                   SCF GRAD                          
                          Rob Parrish, Justin Turney,                
                       Andy Simmonett, and Alex Sokolov              
         ------------------------------------------------------------

  ==> Geometry <==

    Molecular point group: c2v
    Full point group: C_inf_v

    Geometry (in Angstrom), charge = 0, multiplicity = 1:

       Center              X                  Y                   Z               Mass       
    ------------   -----------------  -----------------  -----------------  -----------------
         O            0.000000000000     0.000000000000     0.491523556581    15.994914619570
         C            0.000000000000     0.000000000000    -0.655156443419    12.000000000000

  Nuclear repulsion =   22.151346593783796

  ==> Basis Set <==

  Basis Set: 6-31++G**
    Blend: 6-31++G**
    Number of shells: 16
    Number of basis function: 38
    Number of Cartesian functions: 38
    Spherical Harmonics?: false
    Max angular momentum: 2

  ==> DFJKGrad: Density-Fitted SCF Gradients <==

    Gradient:                    1
    J tasked:                  Yes
    K tasked:                  Yes
    wK tasked:                  No
    OpenMP threads:              1
    Integrals threads:           1
    Memory [MiB]:              375
    Schwarz Cutoff:          0E+00
    Fitting Condition:       1E-10

   => Auxiliary Basis Set <=

  Basis Set: (6-31++G** AUX)
    Blend: AUG-CC-PVDZ-JKFIT
    Number of shells: 56
    Number of basis function: 202
    Number of Cartesian functions: 202
    Spherical Harmonics?: false
    Max angular momentum: 3

  ==> DFT Potential <==

   => Composite Functional: M06-2X <= 

    Hybrid M06-2X Meta-GGA XC Functional

    Y. Zhao and D. G. Truhlar,  Theor. Chem. Acc., 120, 215, 2008


    Deriv               =              1
    GGA                 =           TRUE
    Meta                =           TRUE

    Exchange Hybrid     =           TRUE
    MP2 Hybrid          =          FALSE

   => Exchange Functionals <=

    1.0000   XC_HYB_MGGA_X_M06_2X

   => Exact (HF) Exchange <=

    0.5400               HF 

   => Correlation Functionals <=

    1.0000   XC_MGGA_C_M06_2X

   => Molecular Quadrature <=

    Radial Scheme          =       TREUTLER
    Pruning Scheme         =           FLAT
    Nuclear Scheme         =       TREUTLER

    BS radius alpha        =              1
    Pruning alpha          =              1
    Radial Points          =             75
    Spherical Points       =            302
    Total Points           =          45300
    Total Blocks           =            420
    Max Points             =            256
    Max Functions          =             38


  -Total Gradient:
     Atom            X                  Y                   Z
    ------   -----------------  -----------------  -----------------
       1       -0.000000000000    -0.000000000000     0.037965307828
       2        0.000000000000     0.000000000000    -0.037964734900


*** tstop() called on atlantis at Tue Apr 19 00:36:57 2022
Module time:
	user time   =       0.25 seconds =       0.00 minutes
	system time =       0.00 seconds =       0.00 minutes
	total time  =          0 seconds =       0.00 minutes
Total time:
	user time   =       4.75 seconds =       0.08 minutes
	system time =       0.07 seconds =       0.00 minutes
	total time  =          5 seconds =       0.08 minutes

  //>>>>>>>>>>>>>>>>>>>>>>>>>>>>>>>>>>>//
  //    Loading displacement 2 of 5    //
  //<<<<<<<<<<<<<<<<<<<<<<<<<<<<<<<<<<<//
gradient() will perform analytic gradient computation.

*** tstart() called on atlantis
*** at Tue Apr 19 00:36:57 2022

   => Loading Basis Set <=

    Name: 6-31++G**
    Role: ORBITAL
    Keyword: BASIS
    atoms 1 entry O          line   153 file /home/akrom/software/anaconda3/envs/ffpenv/share/psi4/basis/6-31ppgss.gbs 
    atoms 2 entry C          line   115 file /home/akrom/software/anaconda3/envs/ffpenv/share/psi4/basis/6-31ppgss.gbs 


         ---------------------------------------------------------
                                   SCF
               by Justin Turney, Rob Parrish, Andy Simmonett
                          and Daniel G. A. Smith
                              RKS Reference
                        1 Threads,    500 MiB Core
         ---------------------------------------------------------

  ==> Geometry <==

    Molecular point group: c2v
    Full point group: C_inf_v

    Geometry (in Angstrom), charge = 0, multiplicity = 1:

       Center              X                  Y                   Z               Mass       
    ------------   -----------------  -----------------  -----------------  -----------------
         O            0.000000000000     0.000000000000     0.491090413658    15.994914619570
         C            0.000000000000     0.000000000000    -0.654579103079    12.000000000000

  Running in c2v symmetry.

  Rotational constants: A = ************  B =      1.87324  C =      1.87324 [cm^-1]
  Rotational constants: A = ************  B =  56158.36546  C =  56158.36546 [MHz]
  Nuclear repulsion =   22.170884134640527

  Charge       = 0
  Multiplicity = 1
  Electrons    = 14
  Nalpha       = 7
  Nbeta        = 7

  ==> Algorithm <==

  SCF Algorithm Type is DF.
  DIIS enabled.
  MOM disabled.
  Fractional occupation disabled.
  Guess Type is SAD.
  Energy threshold   = 1.00e-08
  Density threshold  = 1.00e-08
  Integral threshold = 0.00e+00

  ==> Primary Basis <==

  Basis Set: 6-31++G**
    Blend: 6-31++G**
    Number of shells: 16
    Number of basis function: 38
    Number of Cartesian functions: 38
    Spherical Harmonics?: false
    Max angular momentum: 2

  ==> DFT Potential <==

   => Composite Functional: M06-2X <= 

    Hybrid M06-2X Meta-GGA XC Functional

    Y. Zhao and D. G. Truhlar,  Theor. Chem. Acc., 120, 215, 2008


    Deriv               =              1
    GGA                 =           TRUE
    Meta                =           TRUE

    Exchange Hybrid     =           TRUE
    MP2 Hybrid          =          FALSE

   => Exchange Functionals <=

    1.0000   XC_HYB_MGGA_X_M06_2X

   => Exact (HF) Exchange <=

    0.5400               HF 

   => Correlation Functionals <=

    1.0000   XC_MGGA_C_M06_2X

   => Molecular Quadrature <=

    Radial Scheme          =       TREUTLER
    Pruning Scheme         =           FLAT
    Nuclear Scheme         =       TREUTLER

    BS radius alpha        =              1
    Pruning alpha          =              1
    Radial Points          =             75
    Spherical Points       =            302
    Total Points           =          45300
    Total Blocks           =            421
    Max Points             =            256
    Max Functions          =             38

   => Loading Basis Set <=

    Name: (6-31++G** AUX)
    Role: JKFIT
    Keyword: DF_BASIS_SCF
    atoms 1 entry O          line   270 file /home/akrom/software/anaconda3/envs/ffpenv/share/psi4/basis/aug-cc-pvdz-jkfit.gbs 
    atoms 2 entry C          line   154 file /home/akrom/software/anaconda3/envs/ffpenv/share/psi4/basis/aug-cc-pvdz-jkfit.gbs 

  ==> Pre-Iterations <==

   -------------------------------------------------------
    Irrep   Nso     Nmo     Nalpha   Nbeta   Ndocc  Nsocc
   -------------------------------------------------------
     A1        20      20       0       0       0       0
     A2         2       2       0       0       0       0
     B1         8       8       0       0       0       0
     B2         8       8       0       0       0       0
   -------------------------------------------------------
    Total      38      38       7       7       7       0
   -------------------------------------------------------

  ==> Integral Setup <==

  DFHelper Memory: AOs need 0.003 GiB; user supplied 0.249 GiB. Using in-core AOs.

  ==> MemDFJK: Density-Fitted J/K Matrices <==

    J tasked:                   Yes
    K tasked:                   Yes
    wK tasked:                   No
    OpenMP threads:               1
    Memory [MiB]:               254
    Algorithm:                 Core
    Schwarz Cutoff:           1E-12
    Mask sparsity (%):       0.0000
    Fitting Condition:        1E-10

   => Auxiliary Basis Set <=

  Basis Set: (6-31++G** AUX)
    Blend: AUG-CC-PVDZ-JKFIT
    Number of shells: 56
    Number of basis function: 202
    Number of Cartesian functions: 202
    Spherical Harmonics?: false
    Max angular momentum: 3

  Cached 100.0% of DFT collocation blocks in 0.117 [GiB].

  Minimum eigenvalue in the overlap matrix is 5.3486879286E-03.
  Using Symmetric Orthogonalization.

  SCF Guess: Superposition of Atomic Densities via on-the-fly atomic UHF.

  ==> Iterations <==

                           Total Energy        Delta E     RMS |[F,P]|

   @DF-RKS iter SAD:  -112.60388365576337   -1.12604e+02   0.00000e+00 
   @DF-RKS iter   1:  -113.23808607544041   -6.34202e-01   1.41292e-02 DIIS
   @DF-RKS iter   2:  -113.18967143740417    4.84146e-02   2.15249e-02 DIIS
   @DF-RKS iter   3:  -113.27515105173839   -8.54796e-02   2.17288e-03 DIIS
   @DF-RKS iter   4:  -113.27634139735416   -1.19035e-03   2.45351e-04 DIIS
   @DF-RKS iter   5:  -113.27635407791051   -1.26806e-05   6.64479e-05 DIIS
   @DF-RKS iter   6:  -113.27635497648258   -8.98572e-07   9.97199e-06 DIIS
   @DF-RKS iter   7:  -113.27635499807663   -2.15940e-08   4.13487e-07 DIIS
   @DF-RKS iter   8:  -113.27635499818304   -1.06411e-10   1.15660e-07 DIIS
   @DF-RKS iter   9:  -113.27635499818635   -3.31113e-12   5.49480e-09 DIIS
  Energy and wave function converged.


  ==> Post-Iterations <==

    Orbital Energies [Eh]
    ---------------------

    Doubly Occupied:                                                      

       1A1   -19.761870     2A1   -10.680895     3A1    -1.286371  
       4A1    -0.671346     1B2    -0.549300     1B1    -0.549300  
       5A1    -0.451548  

    Virtual:                                                              

       2B2     0.005082     2B1     0.005082     6A1     0.035396  
       7A1     0.068859     3B2     0.084124     3B1     0.084124  
       8A1     0.200058     4B2     0.229578     4B1     0.229578  
       9A1     0.288461    10A1     0.457248     5B2     0.684507  
       5B1     0.684507    11A1     0.796279    12A1     1.074293  
      13A1     1.206616     6B1     1.211657     6B2     1.211657  
      14A1     1.518982     1A2     1.518993    15A1     1.528586  
       7B2     1.592771     7B1     1.592771    16A1     1.980366  
       2A2     1.980378    17A1     2.500987     8B1     2.636111  
       8B2     2.636111    18A1     3.069770    19A1     4.009398  
      20A1     4.171437  

    Final Occupation by Irrep:
             A1    A2    B1    B2 
    DOCC [     5,    0,    1,    1 ]

  @DF-RKS Final Energy:  -113.27635499818635

   => Energetics <=

    Nuclear Repulsion Energy =             22.1708841346405272
    One-Electron Energy =                -197.4835334578267521
    Two-Electron Energy =                  68.6825980697316965
    DFT Exchange-Correlation Energy =      -6.6463037447318083
    Empirical Dispersion Energy =           0.0000000000000000
    VV10 Nonlocal Energy =                  0.0000000000000000
    Total Energy =                       -113.2763549981863491

Computation Completed


Properties will be evaluated at   0.000000,   0.000000,   0.000000 [a0]

Properties computed using the SCF density matrix

  Nuclear Dipole Moment: [e a0]
     X:     0.0000      Y:     0.0000      Z:     0.0024

  Electronic Dipole Moment: [e a0]
     X:     0.0000      Y:     0.0000      Z:    -0.0290

  Dipole Moment: [e a0]
     X:     0.0000      Y:     0.0000      Z:    -0.0266     Total:     0.0266

  Dipole Moment: [D]
     X:     0.0000      Y:     0.0000      Z:    -0.0676     Total:     0.0676


*** tstop() called on atlantis at Tue Apr 19 00:36:59 2022
Module time:
	user time   =       1.38 seconds =       0.02 minutes
	system time =       0.01 seconds =       0.00 minutes
	total time  =          2 seconds =       0.03 minutes
Total time:
	user time   =       6.14 seconds =       0.10 minutes
	system time =       0.08 seconds =       0.00 minutes
	total time  =          7 seconds =       0.12 minutes

*** tstart() called on atlantis
*** at Tue Apr 19 00:36:59 2022


         ------------------------------------------------------------
                                   SCF GRAD                          
                          Rob Parrish, Justin Turney,                
                       Andy Simmonett, and Alex Sokolov              
         ------------------------------------------------------------

  ==> Geometry <==

    Molecular point group: c2v
    Full point group: C_inf_v

    Geometry (in Angstrom), charge = 0, multiplicity = 1:

       Center              X                  Y                   Z               Mass       
    ------------   -----------------  -----------------  -----------------  -----------------
         O            0.000000000000     0.000000000000     0.491090413658    15.994914619570
         C            0.000000000000     0.000000000000    -0.654579103079    12.000000000000

  Nuclear repulsion =   22.170884134640527

  ==> Basis Set <==

  Basis Set: 6-31++G**
    Blend: 6-31++G**
    Number of shells: 16
    Number of basis function: 38
    Number of Cartesian functions: 38
    Spherical Harmonics?: false
    Max angular momentum: 2

  ==> DFJKGrad: Density-Fitted SCF Gradients <==

    Gradient:                    1
    J tasked:                  Yes
    K tasked:                  Yes
    wK tasked:                  No
    OpenMP threads:              1
    Integrals threads:           1
    Memory [MiB]:              375
    Schwarz Cutoff:          0E+00
    Fitting Condition:       1E-10

   => Auxiliary Basis Set <=

  Basis Set: (6-31++G** AUX)
    Blend: AUG-CC-PVDZ-JKFIT
    Number of shells: 56
    Number of basis function: 202
    Number of Cartesian functions: 202
    Spherical Harmonics?: false
    Max angular momentum: 3

  ==> DFT Potential <==

   => Composite Functional: M06-2X <= 

    Hybrid M06-2X Meta-GGA XC Functional

    Y. Zhao and D. G. Truhlar,  Theor. Chem. Acc., 120, 215, 2008


    Deriv               =              1
    GGA                 =           TRUE
    Meta                =           TRUE

    Exchange Hybrid     =           TRUE
    MP2 Hybrid          =          FALSE

   => Exchange Functionals <=

    1.0000   XC_HYB_MGGA_X_M06_2X

   => Exact (HF) Exchange <=

    0.5400               HF 

   => Correlation Functionals <=

    1.0000   XC_MGGA_C_M06_2X

   => Molecular Quadrature <=

    Radial Scheme          =       TREUTLER
    Pruning Scheme         =           FLAT
    Nuclear Scheme         =       TREUTLER

    BS radius alpha        =              1
    Pruning alpha          =              1
    Radial Points          =             75
    Spherical Points       =            302
    Total Points           =          45300
    Total Blocks           =            421
    Max Points             =            256
    Max Functions          =             38


  -Total Gradient:
     Atom            X                  Y                   Z
    ------   -----------------  -----------------  -----------------
       1        0.000000000000     0.000000000000     0.035656863706
       2        0.000000000000    -0.000000000000    -0.035652229998


*** tstop() called on atlantis at Tue Apr 19 00:36:59 2022
Module time:
	user time   =       0.26 seconds =       0.00 minutes
	system time =       0.00 seconds =       0.00 minutes
	total time  =          0 seconds =       0.00 minutes
Total time:
	user time   =       6.40 seconds =       0.11 minutes
	system time =       0.08 seconds =       0.00 minutes
	total time  =          7 seconds =       0.12 minutes

  //>>>>>>>>>>>>>>>>>>>>>>>>>>>>>>>>>>>//
  //    Loading displacement 3 of 5    //
  //<<<<<<<<<<<<<<<<<<<<<<<<<<<<<<<<<<<//
gradient() will perform analytic gradient computation.

*** tstart() called on atlantis
*** at Tue Apr 19 00:36:59 2022

   => Loading Basis Set <=

    Name: 6-31++G**
    Role: ORBITAL
    Keyword: BASIS
    atoms 1 entry O          line   153 file /home/akrom/software/anaconda3/envs/ffpenv/share/psi4/basis/6-31ppgss.gbs 
    atoms 2 entry C          line   115 file /home/akrom/software/anaconda3/envs/ffpenv/share/psi4/basis/6-31ppgss.gbs 


         ---------------------------------------------------------
                                   SCF
               by Justin Turney, Rob Parrish, Andy Simmonett
                          and Daniel G. A. Smith
                              RKS Reference
                        1 Threads,    500 MiB Core
         ---------------------------------------------------------

  ==> Geometry <==

    Molecular point group: c2v
    Full point group: C_inf_v

    Geometry (in Angstrom), charge = 0, multiplicity = 1:

       Center              X                  Y                   Z               Mass       
    ------------   -----------------  -----------------  -----------------  -----------------
         O            0.000000000000     0.000000000000     0.491956699505    15.994914619570
         C            0.000000000000     0.000000000000    -0.655733783759    12.000000000000

  Running in c2v symmetry.

  Rotational constants: A = ************  B =      1.86665  C =      1.86665 [cm^-1]
  Rotational constants: A = ************  B =  55960.76123  C =  55960.76123 [MHz]
  Nuclear repulsion =   22.131843456554755

  Charge       = 0
  Multiplicity = 1
  Electrons    = 14
  Nalpha       = 7
  Nbeta        = 7

  ==> Algorithm <==

  SCF Algorithm Type is DF.
  DIIS enabled.
  MOM disabled.
  Fractional occupation disabled.
  Guess Type is SAD.
  Energy threshold   = 1.00e-08
  Density threshold  = 1.00e-08
  Integral threshold = 0.00e+00

  ==> Primary Basis <==

  Basis Set: 6-31++G**
    Blend: 6-31++G**
    Number of shells: 16
    Number of basis function: 38
    Number of Cartesian functions: 38
    Spherical Harmonics?: false
    Max angular momentum: 2

  ==> DFT Potential <==

   => Composite Functional: M06-2X <= 

    Hybrid M06-2X Meta-GGA XC Functional

    Y. Zhao and D. G. Truhlar,  Theor. Chem. Acc., 120, 215, 2008


    Deriv               =              1
    GGA                 =           TRUE
    Meta                =           TRUE

    Exchange Hybrid     =           TRUE
    MP2 Hybrid          =          FALSE

   => Exchange Functionals <=

    1.0000   XC_HYB_MGGA_X_M06_2X

   => Exact (HF) Exchange <=

    0.5400               HF 

   => Correlation Functionals <=

    1.0000   XC_MGGA_C_M06_2X

   => Molecular Quadrature <=

    Radial Scheme          =       TREUTLER
    Pruning Scheme         =           FLAT
    Nuclear Scheme         =       TREUTLER

    BS radius alpha        =              1
    Pruning alpha          =              1
    Radial Points          =             75
    Spherical Points       =            302
    Total Points           =          45300
    Total Blocks           =            421
    Max Points             =            256
    Max Functions          =             38

   => Loading Basis Set <=

    Name: (6-31++G** AUX)
    Role: JKFIT
    Keyword: DF_BASIS_SCF
    atoms 1 entry O          line   270 file /home/akrom/software/anaconda3/envs/ffpenv/share/psi4/basis/aug-cc-pvdz-jkfit.gbs 
    atoms 2 entry C          line   154 file /home/akrom/software/anaconda3/envs/ffpenv/share/psi4/basis/aug-cc-pvdz-jkfit.gbs 

  ==> Pre-Iterations <==

   -------------------------------------------------------
    Irrep   Nso     Nmo     Nalpha   Nbeta   Ndocc  Nsocc
   -------------------------------------------------------
     A1        20      20       0       0       0       0
     A2         2       2       0       0       0       0
     B1         8       8       0       0       0       0
     B2         8       8       0       0       0       0
   -------------------------------------------------------
    Total      38      38       7       7       7       0
   -------------------------------------------------------

  ==> Integral Setup <==

  DFHelper Memory: AOs need 0.003 GiB; user supplied 0.249 GiB. Using in-core AOs.

  ==> MemDFJK: Density-Fitted J/K Matrices <==

    J tasked:                   Yes
    K tasked:                   Yes
    wK tasked:                   No
    OpenMP threads:               1
    Memory [MiB]:               254
    Algorithm:                 Core
    Schwarz Cutoff:           1E-12
    Mask sparsity (%):       0.0000
    Fitting Condition:        1E-10

   => Auxiliary Basis Set <=

  Basis Set: (6-31++G** AUX)
    Blend: AUG-CC-PVDZ-JKFIT
    Number of shells: 56
    Number of basis function: 202
    Number of Cartesian functions: 202
    Spherical Harmonics?: false
    Max angular momentum: 3

  Cached 100.0% of DFT collocation blocks in 0.117 [GiB].

  Minimum eigenvalue in the overlap matrix is 5.3803739182E-03.
  Using Symmetric Orthogonalization.

  SCF Guess: Superposition of Atomic Densities via on-the-fly atomic UHF.

  ==> Iterations <==

                           Total Energy        Delta E     RMS |[F,P]|

   @DF-RKS iter SAD:  -112.60054481359943   -1.12601e+02   0.00000e+00 
   @DF-RKS iter   1:  -113.23786769291772   -6.37323e-01   1.41419e-02 DIIS
   @DF-RKS iter   2:  -113.18829759730143    4.95701e-02   2.16658e-02 DIIS
   @DF-RKS iter   3:  -113.27501399102731   -8.67164e-02   2.16296e-03 DIIS
   @DF-RKS iter   4:  -113.27619593255916   -1.18194e-03   2.46692e-04 DIIS
   @DF-RKS iter   5:  -113.27620874215940   -1.28096e-05   6.67491e-05 DIIS
   @DF-RKS iter   6:  -113.27620964833288   -9.06173e-07   1.00376e-05 DIIS
   @DF-RKS iter   7:  -113.27620967022166   -2.18888e-08   4.17268e-07 DIIS
   @DF-RKS iter   8:  -113.27620967033059   -1.08926e-10   1.17566e-07 DIIS
   @DF-RKS iter   9:  -113.27620967033387   -3.28271e-12   5.51973e-09 DIIS
  Energy and wave function converged.


  ==> Post-Iterations <==

    Orbital Energies [Eh]
    ---------------------

    Doubly Occupied:                                                      

       1A1   -19.761921     2A1   -10.681585     3A1    -1.285183  
       4A1    -0.671298     1B2    -0.548556     1B1    -0.548556  
       5A1    -0.451741  

    Virtual:                                                              

       2B1     0.004487     2B2     0.004487     6A1     0.035422  
       7A1     0.068780     3B1     0.083922     3B2     0.083922  
       8A1     0.200008     4B2     0.229558     4B1     0.229558  
       9A1     0.288427    10A1     0.456461     5B1     0.684341  
       5B2     0.684341    11A1     0.794223    12A1     1.073674  
      13A1     1.206146     6B1     1.211775     6B2     1.211775  
      14A1     1.519603     1A2     1.519614    15A1     1.528133  
       7B2     1.591237     7B1     1.591237    16A1     1.979278  
       2A2     1.979291    17A1     2.497073     8B1     2.633879  
       8B2     2.633879    18A1     3.065882    19A1     4.008133  
      20A1     4.170735  

    Final Occupation by Irrep:
             A1    A2    B1    B2 
    DOCC [     5,    0,    1,    1 ]

  @DF-RKS Final Energy:  -113.27620967033387

   => Energetics <=

    Nuclear Repulsion Energy =             22.1318434565547548
    One-Electron Energy =                -197.4094885066048732
    Two-Electron Energy =                  68.6468505954811263
    DFT Exchange-Correlation Energy =      -6.6454152157648716
    Empirical Dispersion Energy =           0.0000000000000000
    VV10 Nonlocal Energy =                  0.0000000000000000
    Total Energy =                       -113.2762096703338699

Computation Completed


Properties will be evaluated at   0.000000,   0.000000,   0.000000 [a0]

Properties computed using the SCF density matrix

  Nuclear Dipole Moment: [e a0]
     X:     0.0000      Y:     0.0000      Z:     0.0024

  Electronic Dipole Moment: [e a0]
     X:     0.0000      Y:     0.0000      Z:    -0.0322

  Dipole Moment: [e a0]
     X:     0.0000      Y:     0.0000      Z:    -0.0299     Total:     0.0299

  Dipole Moment: [D]
     X:     0.0000      Y:     0.0000      Z:    -0.0759     Total:     0.0759


*** tstop() called on atlantis at Tue Apr 19 00:37:00 2022
Module time:
	user time   =       1.39 seconds =       0.02 minutes
	system time =       0.01 seconds =       0.00 minutes
	total time  =          1 seconds =       0.02 minutes
Total time:
	user time   =       7.79 seconds =       0.13 minutes
	system time =       0.09 seconds =       0.00 minutes
	total time  =          8 seconds =       0.13 minutes

*** tstart() called on atlantis
*** at Tue Apr 19 00:37:00 2022


         ------------------------------------------------------------
                                   SCF GRAD                          
                          Rob Parrish, Justin Turney,                
                       Andy Simmonett, and Alex Sokolov              
         ------------------------------------------------------------

  ==> Geometry <==

    Molecular point group: c2v
    Full point group: C_inf_v

    Geometry (in Angstrom), charge = 0, multiplicity = 1:

       Center              X                  Y                   Z               Mass       
    ------------   -----------------  -----------------  -----------------  -----------------
         O            0.000000000000     0.000000000000     0.491956699505    15.994914619570
         C            0.000000000000     0.000000000000    -0.655733783759    12.000000000000

  Nuclear repulsion =   22.131843456554755

  ==> Basis Set <==

  Basis Set: 6-31++G**
    Blend: 6-31++G**
    Number of shells: 16
    Number of basis function: 38
    Number of Cartesian functions: 38
    Spherical Harmonics?: false
    Max angular momentum: 2

  ==> DFJKGrad: Density-Fitted SCF Gradients <==

    Gradient:                    1
    J tasked:                  Yes
    K tasked:                  Yes
    wK tasked:                  No
    OpenMP threads:              1
    Integrals threads:           1
    Memory [MiB]:              375
    Schwarz Cutoff:          0E+00
    Fitting Condition:       1E-10

   => Auxiliary Basis Set <=

  Basis Set: (6-31++G** AUX)
    Blend: AUG-CC-PVDZ-JKFIT
    Number of shells: 56
    Number of basis function: 202
    Number of Cartesian functions: 202
    Spherical Harmonics?: false
    Max angular momentum: 3

  ==> DFT Potential <==

   => Composite Functional: M06-2X <= 

    Hybrid M06-2X Meta-GGA XC Functional

    Y. Zhao and D. G. Truhlar,  Theor. Chem. Acc., 120, 215, 2008


    Deriv               =              1
    GGA                 =           TRUE
    Meta                =           TRUE

    Exchange Hybrid     =           TRUE
    MP2 Hybrid          =          FALSE

   => Exchange Functionals <=

    1.0000   XC_HYB_MGGA_X_M06_2X

   => Exact (HF) Exchange <=

    0.5400               HF 

   => Correlation Functionals <=

    1.0000   XC_MGGA_C_M06_2X

   => Molecular Quadrature <=

    Radial Scheme          =       TREUTLER
    Pruning Scheme         =           FLAT
    Nuclear Scheme         =       TREUTLER

    BS radius alpha        =              1
    Pruning alpha          =              1
    Radial Points          =             75
    Spherical Points       =            302
    Total Points           =          45300
    Total Blocks           =            421
    Max Points             =            256
    Max Functions          =             38


  -Total Gradient:
     Atom            X                  Y                   Z
    ------   -----------------  -----------------  -----------------
       1        0.000000000000     0.000000000000     0.040257999384
       2        0.000000000000     0.000000000000    -0.040260643966


*** tstop() called on atlantis at Tue Apr 19 00:37:01 2022
Module time:
	user time   =       0.25 seconds =       0.00 minutes
	system time =       0.00 seconds =       0.00 minutes
	total time  =          1 seconds =       0.02 minutes
Total time:
	user time   =       8.05 seconds =       0.13 minutes
	system time =       0.09 seconds =       0.00 minutes
	total time  =          9 seconds =       0.15 minutes

  //>>>>>>>>>>>>>>>>>>>>>>>>>>>>>>>>>>>//
  //    Loading displacement 4 of 5    //
  //<<<<<<<<<<<<<<<<<<<<<<<<<<<<<<<<<<<//
gradient() will perform analytic gradient computation.

*** tstart() called on atlantis
*** at Tue Apr 19 00:37:01 2022

   => Loading Basis Set <=

    Name: 6-31++G**
    Role: ORBITAL
    Keyword: BASIS
    atoms 1 entry O          line   153 file /home/akrom/software/anaconda3/envs/ffpenv/share/psi4/basis/6-31ppgss.gbs 
    atoms 2 entry C          line   115 file /home/akrom/software/anaconda3/envs/ffpenv/share/psi4/basis/6-31ppgss.gbs 


         ---------------------------------------------------------
                                   SCF
               by Justin Turney, Rob Parrish, Andy Simmonett
                          and Daniel G. A. Smith
                              RKS Reference
                        1 Threads,    500 MiB Core
         ---------------------------------------------------------

  ==> Geometry <==

    Molecular point group: cs
    Full point group: C_inf_v

    Geometry (in Angstrom), charge = 0, multiplicity = 1:

       Center              X                  Y                   Z               Mass       
    ------------   -----------------  -----------------  -----------------  -----------------
         O           -0.000433142923     0.000000000000     0.491523556581    15.994914619570
         C            0.000577340340     0.000000000000    -0.655156443419    12.000000000000

  Running in cs symmetry.

  Rotational constants: A = ************  B =      1.86994  C =      1.86994 [cm^-1]
  Rotational constants: A = ************  B =  56059.38921  C =  56059.38921 [MHz]
  Nuclear repulsion =   22.151337992888561

  Charge       = 0
  Multiplicity = 1
  Electrons    = 14
  Nalpha       = 7
  Nbeta        = 7

  ==> Algorithm <==

  SCF Algorithm Type is DF.
  DIIS enabled.
  MOM disabled.
  Fractional occupation disabled.
  Guess Type is SAD.
  Energy threshold   = 1.00e-08
  Density threshold  = 1.00e-08
  Integral threshold = 0.00e+00

  ==> Primary Basis <==

  Basis Set: 6-31++G**
    Blend: 6-31++G**
    Number of shells: 16
    Number of basis function: 38
    Number of Cartesian functions: 38
    Spherical Harmonics?: false
    Max angular momentum: 2

  ==> DFT Potential <==

   => Composite Functional: M06-2X <= 

    Hybrid M06-2X Meta-GGA XC Functional

    Y. Zhao and D. G. Truhlar,  Theor. Chem. Acc., 120, 215, 2008


    Deriv               =              1
    GGA                 =           TRUE
    Meta                =           TRUE

    Exchange Hybrid     =           TRUE
    MP2 Hybrid          =          FALSE

   => Exchange Functionals <=

    1.0000   XC_HYB_MGGA_X_M06_2X

   => Exact (HF) Exchange <=

    0.5400               HF 

   => Correlation Functionals <=

    1.0000   XC_MGGA_C_M06_2X

   => Molecular Quadrature <=

    Radial Scheme          =       TREUTLER
    Pruning Scheme         =           FLAT
    Nuclear Scheme         =       TREUTLER

    BS radius alpha        =              1
    Pruning alpha          =              1
    Radial Points          =             75
    Spherical Points       =            302
    Total Points           =          45300
    Total Blocks           =            411
    Max Points             =            253
    Max Functions          =             38

   => Loading Basis Set <=

    Name: (6-31++G** AUX)
    Role: JKFIT
    Keyword: DF_BASIS_SCF
    atoms 1 entry O          line   270 file /home/akrom/software/anaconda3/envs/ffpenv/share/psi4/basis/aug-cc-pvdz-jkfit.gbs 
    atoms 2 entry C          line   154 file /home/akrom/software/anaconda3/envs/ffpenv/share/psi4/basis/aug-cc-pvdz-jkfit.gbs 

  ==> Pre-Iterations <==

   -------------------------------------------------------
    Irrep   Nso     Nmo     Nalpha   Nbeta   Ndocc  Nsocc
   -------------------------------------------------------
     A'        28      28       0       0       0       0
     A"        10      10       0       0       0       0
   -------------------------------------------------------
    Total      38      38       7       7       7       0
   -------------------------------------------------------

  ==> Integral Setup <==

  DFHelper Memory: AOs need 0.003 GiB; user supplied 0.249 GiB. Using in-core AOs.

  ==> MemDFJK: Density-Fitted J/K Matrices <==

    J tasked:                   Yes
    K tasked:                   Yes
    wK tasked:                   No
    OpenMP threads:               1
    Memory [MiB]:               254
    Algorithm:                 Core
    Schwarz Cutoff:           1E-12
    Mask sparsity (%):       0.0000
    Fitting Condition:        1E-10

   => Auxiliary Basis Set <=

  Basis Set: (6-31++G** AUX)
    Blend: AUG-CC-PVDZ-JKFIT
    Number of shells: 56
    Number of basis function: 202
    Number of Cartesian functions: 202
    Spherical Harmonics?: false
    Max angular momentum: 3

  Cached 100.0% of DFT collocation blocks in 0.117 [GiB].

  Minimum eigenvalue in the overlap matrix is 5.3645416675E-03.
  Using Symmetric Orthogonalization.

  SCF Guess: Superposition of Atomic Densities via on-the-fly atomic UHF.

  ==> Iterations <==

                           Total Energy        Delta E     RMS |[F,P]|

   @DF-RKS iter SAD:  -112.60221294731141   -1.12602e+02   0.00000e+00 
   @DF-RKS iter   1:  -113.23797961027704   -6.35767e-01   1.09658e-02 DIIS
   @DF-RKS iter   2:  -113.18898953251832    4.89901e-02   1.67527e-02 DIIS
   @DF-RKS iter   3:  -113.27508469570923   -8.60952e-02   1.68179e-03 DIIS
   @DF-RKS iter   4:  -113.27627083353933   -1.18614e-03   1.90853e-04 DIIS
   @DF-RKS iter   5:  -113.27628357824688   -1.27447e-05   5.16648e-05 DIIS
   @DF-RKS iter   6:  -113.27628448061823   -9.02371e-07   7.76137e-06 DIIS
   @DF-RKS iter   7:  -113.27628450235918   -2.17409e-08   3.22229e-07 DIIS
   @DF-RKS iter   8:  -113.27628450246696   -1.07789e-10   9.04610e-08 DIIS
   @DF-RKS iter   9:  -113.27628450247005   -3.08376e-12   4.27237e-09 DIIS
  Energy and wave function converged.


  ==> Post-Iterations <==

    Orbital Energies [Eh]
    ---------------------

    Doubly Occupied:                                                      

       1Ap   -19.761896     2Ap   -10.681240     3Ap    -1.285777  
       4Ap    -0.671322     1App   -0.548928     5Ap    -0.548928  
       6Ap    -0.451645  

    Virtual:                                                              

       7Ap     0.004785     2App    0.004785     8Ap     0.035409  
       9Ap     0.068819    10Ap     0.084022     3App    0.084022  
      11Ap     0.200033    12Ap     0.229568     4App    0.229568  
      13Ap     0.288444    14Ap     0.456856     5App    0.684424  
      15Ap     0.684424    16Ap     0.795249    17Ap     1.073983  
      18Ap     1.206379    19Ap     1.211717     6App    1.211717  
      20Ap     1.519292     7App    1.519304    21Ap     1.528358  
       8App    1.592002    22Ap     1.592002    23Ap     1.979822  
       9App    1.979834    24Ap     2.499028    10App    2.634995  
      25Ap     2.634995    26Ap     3.067820    27Ap     4.008762  
      28Ap     4.171087  

    Final Occupation by Irrep:
             Ap   App 
    DOCC [     6,    1 ]

  @DF-RKS Final Energy:  -113.27628450247005

   => Energetics <=

    Nuclear Repulsion Energy =             22.1513379928885605
    One-Electron Energy =                -197.4464662549352170
    Two-Electron Energy =                  68.6647025120799981
    DFT Exchange-Correlation Energy =      -6.6458587525033828
    Empirical Dispersion Energy =           0.0000000000000000
    VV10 Nonlocal Energy =                  0.0000000000000000
    Total Energy =                       -113.2762845024700482

Computation Completed


Properties will be evaluated at   0.000000,   0.000000,   0.000000 [a0]

Properties computed using the SCF density matrix

  Nuclear Dipole Moment: [e a0]
     X:    -0.0000      Y:     0.0000      Z:     0.0024

  Electronic Dipole Moment: [e a0]
     X:     0.0000      Y:     0.0000      Z:    -0.0306

  Dipole Moment: [e a0]
     X:     0.0000      Y:     0.0000      Z:    -0.0282     Total:     0.0282

  Dipole Moment: [D]
     X:     0.0001      Y:     0.0000      Z:    -0.0718     Total:     0.0718


*** tstop() called on atlantis at Tue Apr 19 00:37:02 2022
Module time:
	user time   =       1.36 seconds =       0.02 minutes
	system time =       0.01 seconds =       0.00 minutes
	total time  =          1 seconds =       0.02 minutes
Total time:
	user time   =       9.41 seconds =       0.16 minutes
	system time =       0.10 seconds =       0.00 minutes
	total time  =         10 seconds =       0.17 minutes

*** tstart() called on atlantis
*** at Tue Apr 19 00:37:02 2022


         ------------------------------------------------------------
                                   SCF GRAD                          
                          Rob Parrish, Justin Turney,                
                       Andy Simmonett, and Alex Sokolov              
         ------------------------------------------------------------

  ==> Geometry <==

    Molecular point group: cs
    Full point group: C_inf_v

    Geometry (in Angstrom), charge = 0, multiplicity = 1:

       Center              X                  Y                   Z               Mass       
    ------------   -----------------  -----------------  -----------------  -----------------
         O           -0.000433142923     0.000000000000     0.491523556581    15.994914619570
         C            0.000577340340     0.000000000000    -0.655156443419    12.000000000000

  Nuclear repulsion =   22.151337992888561

  ==> Basis Set <==

  Basis Set: 6-31++G**
    Blend: 6-31++G**
    Number of shells: 16
    Number of basis function: 38
    Number of Cartesian functions: 38
    Spherical Harmonics?: false
    Max angular momentum: 2

  ==> DFJKGrad: Density-Fitted SCF Gradients <==

    Gradient:                    1
    J tasked:                  Yes
    K tasked:                  Yes
    wK tasked:                  No
    OpenMP threads:              1
    Integrals threads:           1
    Memory [MiB]:              375
    Schwarz Cutoff:          0E+00
    Fitting Condition:       1E-10

   => Auxiliary Basis Set <=

  Basis Set: (6-31++G** AUX)
    Blend: AUG-CC-PVDZ-JKFIT
    Number of shells: 56
    Number of basis function: 202
    Number of Cartesian functions: 202
    Spherical Harmonics?: false
    Max angular momentum: 3

  ==> DFT Potential <==

   => Composite Functional: M06-2X <= 

    Hybrid M06-2X Meta-GGA XC Functional

    Y. Zhao and D. G. Truhlar,  Theor. Chem. Acc., 120, 215, 2008


    Deriv               =              1
    GGA                 =           TRUE
    Meta                =           TRUE

    Exchange Hybrid     =           TRUE
    MP2 Hybrid          =          FALSE

   => Exchange Functionals <=

    1.0000   XC_HYB_MGGA_X_M06_2X

   => Exact (HF) Exchange <=

    0.5400               HF 

   => Correlation Functionals <=

    1.0000   XC_MGGA_C_M06_2X

   => Molecular Quadrature <=

    Radial Scheme          =       TREUTLER
    Pruning Scheme         =           FLAT
    Nuclear Scheme         =       TREUTLER

    BS radius alpha        =              1
    Pruning alpha          =              1
    Radial Points          =             75
    Spherical Points       =            302
    Total Points           =          45300
    Total Blocks           =            411
    Max Points             =            253
    Max Functions          =             38


  -Total Gradient:
     Atom            X                  Y                   Z
    ------   -----------------  -----------------  -----------------
       1       -0.000033456844     0.000000000000     0.037966283390
       2        0.000033456340     0.000000000000    -0.037965712068


*** tstop() called on atlantis at Tue Apr 19 00:37:02 2022
Module time:
	user time   =       0.25 seconds =       0.00 minutes
	system time =       0.00 seconds =       0.00 minutes
	total time  =          0 seconds =       0.00 minutes
Total time:
	user time   =       9.66 seconds =       0.16 minutes
	system time =       0.10 seconds =       0.00 minutes
	total time  =         10 seconds =       0.17 minutes

  //>>>>>>>>>>>>>>>>>>>>>>>>>>>>>>>>>>>//
  //    Loading displacement 5 of 5    //
  //<<<<<<<<<<<<<<<<<<<<<<<<<<<<<<<<<<<//
gradient() will perform analytic gradient computation.

*** tstart() called on atlantis
*** at Tue Apr 19 00:37:02 2022

   => Loading Basis Set <=

    Name: 6-31++G**
    Role: ORBITAL
    Keyword: BASIS
    atoms 1 entry O          line   153 file /home/akrom/software/anaconda3/envs/ffpenv/share/psi4/basis/6-31ppgss.gbs 
    atoms 2 entry C          line   115 file /home/akrom/software/anaconda3/envs/ffpenv/share/psi4/basis/6-31ppgss.gbs 


         ---------------------------------------------------------
                                   SCF
               by Justin Turney, Rob Parrish, Andy Simmonett
                          and Daniel G. A. Smith
                              RKS Reference
                        1 Threads,    500 MiB Core
         ---------------------------------------------------------

  ==> Geometry <==

    Molecular point group: cs
    Full point group: C_inf_v

    Geometry (in Angstrom), charge = 0, multiplicity = 1:

       Center              X                  Y                   Z               Mass       
    ------------   -----------------  -----------------  -----------------  -----------------
         O            0.000000000000    -0.000433142923     0.491523556581    15.994914619570
         C            0.000000000000     0.000577340340    -0.655156443419    12.000000000000

  Running in cs symmetry.

  Rotational constants: A = ************  B =      1.86994  C =      1.86994 [cm^-1]
  Rotational constants: A = ************  B =  56059.38921  C =  56059.38921 [MHz]
  Nuclear repulsion =   22.151337992888561

  Charge       = 0
  Multiplicity = 1
  Electrons    = 14
  Nalpha       = 7
  Nbeta        = 7

  ==> Algorithm <==

  SCF Algorithm Type is DF.
  DIIS enabled.
  MOM disabled.
  Fractional occupation disabled.
  Guess Type is SAD.
  Energy threshold   = 1.00e-08
  Density threshold  = 1.00e-08
  Integral threshold = 0.00e+00

  ==> Primary Basis <==

  Basis Set: 6-31++G**
    Blend: 6-31++G**
    Number of shells: 16
    Number of basis function: 38
    Number of Cartesian functions: 38
    Spherical Harmonics?: false
    Max angular momentum: 2

  ==> DFT Potential <==

   => Composite Functional: M06-2X <= 

    Hybrid M06-2X Meta-GGA XC Functional

    Y. Zhao and D. G. Truhlar,  Theor. Chem. Acc., 120, 215, 2008


    Deriv               =              1
    GGA                 =           TRUE
    Meta                =           TRUE

    Exchange Hybrid     =           TRUE
    MP2 Hybrid          =          FALSE

   => Exchange Functionals <=

    1.0000   XC_HYB_MGGA_X_M06_2X

   => Exact (HF) Exchange <=

    0.5400               HF 

   => Correlation Functionals <=

    1.0000   XC_MGGA_C_M06_2X

   => Molecular Quadrature <=

    Radial Scheme          =       TREUTLER
    Pruning Scheme         =           FLAT
    Nuclear Scheme         =       TREUTLER

    BS radius alpha        =              1
    Pruning alpha          =              1
    Radial Points          =             75
    Spherical Points       =            302
    Total Points           =          45300
    Total Blocks           =            408
    Max Points             =            253
    Max Functions          =             38

   => Loading Basis Set <=

    Name: (6-31++G** AUX)
    Role: JKFIT
    Keyword: DF_BASIS_SCF
    atoms 1 entry O          line   270 file /home/akrom/software/anaconda3/envs/ffpenv/share/psi4/basis/aug-cc-pvdz-jkfit.gbs 
    atoms 2 entry C          line   154 file /home/akrom/software/anaconda3/envs/ffpenv/share/psi4/basis/aug-cc-pvdz-jkfit.gbs 

  ==> Pre-Iterations <==

   -------------------------------------------------------
    Irrep   Nso     Nmo     Nalpha   Nbeta   Ndocc  Nsocc
   -------------------------------------------------------
     A'        28      28       0       0       0       0
     A"        10      10       0       0       0       0
   -------------------------------------------------------
    Total      38      38       7       7       7       0
   -------------------------------------------------------

  ==> Integral Setup <==

  DFHelper Memory: AOs need 0.003 GiB; user supplied 0.249 GiB. Using in-core AOs.

  ==> MemDFJK: Density-Fitted J/K Matrices <==

    J tasked:                   Yes
    K tasked:                   Yes
    wK tasked:                   No
    OpenMP threads:               1
    Memory [MiB]:               254
    Algorithm:                 Core
    Schwarz Cutoff:           1E-12
    Mask sparsity (%):       0.0000
    Fitting Condition:        1E-10

   => Auxiliary Basis Set <=

  Basis Set: (6-31++G** AUX)
    Blend: AUG-CC-PVDZ-JKFIT
    Number of shells: 56
    Number of basis function: 202
    Number of Cartesian functions: 202
    Spherical Harmonics?: false
    Max angular momentum: 3

  Cached 100.0% of DFT collocation blocks in 0.117 [GiB].

  Minimum eigenvalue in the overlap matrix is 5.3645416675E-03.
  Using Symmetric Orthogonalization.

  SCF Guess: Superposition of Atomic Densities via on-the-fly atomic UHF.

  ==> Iterations <==

                           Total Energy        Delta E     RMS |[F,P]|

   @DF-RKS iter SAD:  -112.60221294730941   -1.12602e+02   0.00000e+00 
   @DF-RKS iter   1:  -113.23797961027500   -6.35767e-01   1.09658e-02 DIIS
   @DF-RKS iter   2:  -113.18898953252094    4.89901e-02   1.67527e-02 DIIS
   @DF-RKS iter   3:  -113.27508469570473   -8.60952e-02   1.68179e-03 DIIS
   @DF-RKS iter   4:  -113.27627083353499   -1.18614e-03   1.90853e-04 DIIS
   @DF-RKS iter   5:  -113.27628357824246   -1.27447e-05   5.16648e-05 DIIS
   @DF-RKS iter   6:  -113.27628448061391   -9.02371e-07   7.76137e-06 DIIS
   @DF-RKS iter   7:  -113.27628450235497   -2.17411e-08   3.22229e-07 DIIS
   @DF-RKS iter   8:  -113.27628450246263   -1.07661e-10   9.04610e-08 DIIS
   @DF-RKS iter   9:  -113.27628450246583   -3.19744e-12   4.27237e-09 DIIS
  Energy and wave function converged.


  ==> Post-Iterations <==

    Orbital Energies [Eh]
    ---------------------

    Doubly Occupied:                                                      

       1Ap   -19.761896     2Ap   -10.681240     3Ap    -1.285777  
       4Ap    -0.671322     5Ap    -0.548928     1App   -0.548928  
       6Ap    -0.451645  

    Virtual:                                                              

       7Ap     0.004785     2App    0.004785     8Ap     0.035409  
       9Ap     0.068819     3App    0.084022    10Ap     0.084022  
      11Ap     0.200033    12Ap     0.229568     4App    0.229568  
      13Ap     0.288444    14Ap     0.456856     5App    0.684424  
      15Ap     0.684424    16Ap     0.795249    17Ap     1.073983  
      18Ap     1.206379    19Ap     1.211717     6App    1.211717  
      20Ap     1.519292     7App    1.519304    21Ap     1.528358  
      22Ap     1.592002     8App    1.592002    23Ap     1.979822  
       9App    1.979834    24Ap     2.499028    10App    2.634995  
      25Ap     2.634995    26Ap     3.067820    27Ap     4.008762  
      28Ap     4.171087  

    Final Occupation by Irrep:
             Ap   App 
    DOCC [     6,    1 ]

  @DF-RKS Final Energy:  -113.27628450246583

   => Energetics <=

    Nuclear Repulsion Energy =             22.1513379928885605
    One-Electron Energy =                -197.4464662549215177
    Two-Electron Energy =                  68.6647025120701500
    DFT Exchange-Correlation Energy =      -6.6458587525030115
    Empirical Dispersion Energy =           0.0000000000000000
    VV10 Nonlocal Energy =                  0.0000000000000000
    Total Energy =                       -113.2762845024658276

Computation Completed


Properties will be evaluated at   0.000000,   0.000000,   0.000000 [a0]

Properties computed using the SCF density matrix

  Nuclear Dipole Moment: [e a0]
     X:     0.0000      Y:    -0.0000      Z:     0.0024

  Electronic Dipole Moment: [e a0]
     X:     0.0000      Y:     0.0000      Z:    -0.0306

  Dipole Moment: [e a0]
     X:     0.0000      Y:     0.0000      Z:    -0.0282     Total:     0.0282

  Dipole Moment: [D]
     X:     0.0000      Y:     0.0001      Z:    -0.0718     Total:     0.0718


*** tstop() called on atlantis at Tue Apr 19 00:37:04 2022
Module time:
	user time   =       1.35 seconds =       0.02 minutes
	system time =       0.02 seconds =       0.00 minutes
	total time  =          2 seconds =       0.03 minutes
Total time:
	user time   =      11.01 seconds =       0.18 minutes
	system time =       0.12 seconds =       0.00 minutes
	total time  =         12 seconds =       0.20 minutes

*** tstart() called on atlantis
*** at Tue Apr 19 00:37:04 2022


         ------------------------------------------------------------
                                   SCF GRAD                          
                          Rob Parrish, Justin Turney,                
                       Andy Simmonett, and Alex Sokolov              
         ------------------------------------------------------------

  ==> Geometry <==

    Molecular point group: cs
    Full point group: C_inf_v

    Geometry (in Angstrom), charge = 0, multiplicity = 1:

       Center              X                  Y                   Z               Mass       
    ------------   -----------------  -----------------  -----------------  -----------------
         O            0.000000000000    -0.000433142923     0.491523556581    15.994914619570
         C            0.000000000000     0.000577340340    -0.655156443419    12.000000000000

  Nuclear repulsion =   22.151337992888561

  ==> Basis Set <==

  Basis Set: 6-31++G**
    Blend: 6-31++G**
    Number of shells: 16
    Number of basis function: 38
    Number of Cartesian functions: 38
    Spherical Harmonics?: false
    Max angular momentum: 2

  ==> DFJKGrad: Density-Fitted SCF Gradients <==

    Gradient:                    1
    J tasked:                  Yes
    K tasked:                  Yes
    wK tasked:                  No
    OpenMP threads:              1
    Integrals threads:           1
    Memory [MiB]:              375
    Schwarz Cutoff:          0E+00
    Fitting Condition:       1E-10

   => Auxiliary Basis Set <=

  Basis Set: (6-31++G** AUX)
    Blend: AUG-CC-PVDZ-JKFIT
    Number of shells: 56
    Number of basis function: 202
    Number of Cartesian functions: 202
    Spherical Harmonics?: false
    Max angular momentum: 3

  ==> DFT Potential <==

   => Composite Functional: M06-2X <= 

    Hybrid M06-2X Meta-GGA XC Functional

    Y. Zhao and D. G. Truhlar,  Theor. Chem. Acc., 120, 215, 2008


    Deriv               =              1
    GGA                 =           TRUE
    Meta                =           TRUE

    Exchange Hybrid     =           TRUE
    MP2 Hybrid          =          FALSE

   => Exchange Functionals <=

    1.0000   XC_HYB_MGGA_X_M06_2X

   => Exact (HF) Exchange <=

    0.5400               HF 

   => Correlation Functionals <=

    1.0000   XC_MGGA_C_M06_2X

   => Molecular Quadrature <=

    Radial Scheme          =       TREUTLER
    Pruning Scheme         =           FLAT
    Nuclear Scheme         =       TREUTLER

    BS radius alpha        =              1
    Pruning alpha          =              1
    Radial Points          =             75
    Spherical Points       =            302
    Total Points           =          45300
    Total Blocks           =            408
    Max Points             =            253
    Max Functions          =             38


  -Total Gradient:
     Atom            X                  Y                   Z
    ------   -----------------  -----------------  -----------------
       1        0.000000000000    -0.000033456842     0.037966280992
       2        0.000000000000     0.000033456339    -0.037965709669


*** tstop() called on atlantis at Tue Apr 19 00:37:04 2022
Module time:
	user time   =       0.25 seconds =       0.00 minutes
	system time =       0.00 seconds =       0.00 minutes
	total time  =          0 seconds =       0.00 minutes
Total time:
	user time   =      11.26 seconds =       0.19 minutes
	system time =       0.12 seconds =       0.00 minutes
	total time  =         12 seconds =       0.20 minutes

         ----------------------------------------------------------
                                   FINDIF
                     R. A. King and Jonathon Misiewicz
         ---------------------------------------------------------

  Computing second-derivative from gradients using projected, 
  symmetry-adapted, cartesian coordinates.

  5 gradients passed in, including the reference geometry.
  Generating complete list of displacements from unique ones.

    Operation 2 takes plus displacements of irrep B1 to minus ones.
    Operation 2 takes plus displacements of irrep B2 to minus ones.

-------------------------------------------------------------


  ==> Harmonic Vibrational Analysis <==

  non-mass-weighted Hessian:       Symmetric? True   Hermitian? True   Lin Dep Dim?  3 (0)
  projection of translations (True) and rotations (False) removed 3 degrees of freedom (5)
  total projector:                 Symmetric? True   Hermitian? True   Lin Dep Dim?  3 (3)
  mass-weighted Hessian:           Symmetric? True   Hermitian? True   Lin Dep Dim?  3 (0)
  pre-proj  low-frequency mode:    0.0000i [cm^-1]
  pre-proj  low-frequency mode:    0.0000  [cm^-1]
  pre-proj  low-frequency mode:    0.0000  [cm^-1]
  pre-proj  low-frequency mode:  259.8597  [cm^-1]
  pre-proj  low-frequency mode:  259.8597  [cm^-1]
  pre-proj  all modes:['0.0000i' '0.0000' '0.0000' '259.8597' '259.8597' '2155.8173']
  projected mass-weighted Hessian: Symmetric? True   Hermitian? True   Lin Dep Dim?  3 (3)
  post-proj low-frequency mode:    0.0000i [cm^-1] (TR)
  post-proj low-frequency mode:    0.0000i [cm^-1] (TR)
  post-proj low-frequency mode:    0.0000  [cm^-1] (TR)
  post-proj low-frequency mode:  259.8597  [cm^-1] (V)
  post-proj low-frequency mode:  259.8597  [cm^-1] (V)
  post-proj  all modes:['0.0000i' '0.0000i' '0.0000' '259.8597' '259.8597' '2155.8173']

  Note that "Vibration"s include 2 un-projected rotation-like modes.
  Vibration                       4                   5                   6           
  Freq [cm^-1]                 259.8597            259.8597           2155.8173       
  Irrep                           B2                  B1                  A1          
  Reduced mass [u]             13.4388             13.4388             13.4388        
  Force const [mDyne/A]         0.5347              0.5347             36.7988        
  Turning point v=0 [a0]        0.1857              0.1857              0.0645        
  RMS dev v=0 [a0 u^1/2]        0.4813              0.4813              0.1671        
  Char temp [K]                373.8802            373.8802           3101.7411       
  ----------------------------------------------------------------------------------
      1   O                0.00 -0.60  0.00   -0.60  0.00  0.00    0.00  0.00 -0.60   
      2   C                0.00  0.80  0.00    0.80  0.00  0.00    0.00  0.00  0.80   

  ==> Thermochemistry Components <==

  Entropy, S
    Electronic S            0.000 [cal/(mol K)]        0.000 [J/(mol K)]       0.00000000 [mEh/K] (multiplicity = 1)
    Translational S        35.923 [cal/(mol K)]      150.302 [J/(mol K)]       0.05724692 [mEh/K] (mol. weight = 27.9949 [u], P = 101325.00 [Pa])
    Rotational S           11.343 [cal/(mol K)]       47.458 [J/(mol K)]       0.01807582 [mEh/K] (symmetry no. = 1)
    Vibrational S           3.326 [cal/(mol K)]       13.916 [J/(mol K)]       0.00530050 [mEh/K]
  Total S                  50.592 [cal/(mol K)]      211.676 [J/(mol K)]       0.08062325 [mEh/K]
  Correction S              0.000 [cal/(mol K)]        0.000 [J/(mol K)]       0.00000000 [mEh/K]

  Constant volume heat capacity, Cv
    Electronic Cv           0.000 [cal/(mol K)]        0.000 [J/(mol K)]       0.00000000 [mEh/K]
    Translational Cv        2.981 [cal/(mol K)]       12.472 [J/(mol K)]       0.00475022 [mEh/K]
    Rotational Cv           1.987 [cal/(mol K)]        8.314 [J/(mol K)]       0.00316681 [mEh/K]
    Vibrational Cv          3.499 [cal/(mol K)]       14.638 [J/(mol K)]       0.00557544 [mEh/K]
  Total Cv                  8.467 [cal/(mol K)]       35.424 [J/(mol K)]       0.01349247 [mEh/K]
  Correction Cv             0.000 [cal/(mol K)]        0.000 [J/(mol K)]       0.00000000 [mEh/K]

  Constant pressure heat capacity, Cp
    Electronic Cp           0.000 [cal/(mol K)]        0.000 [J/(mol K)]       0.00000000 [mEh/K]
    Translational Cp        4.968 [cal/(mol K)]       20.786 [J/(mol K)]       0.00791703 [mEh/K]
    Rotational Cp           1.987 [cal/(mol K)]        8.314 [J/(mol K)]       0.00316681 [mEh/K]
    Vibrational Cp          3.499 [cal/(mol K)]       14.638 [J/(mol K)]       0.00557544 [mEh/K]
  Total Cp                 10.454 [cal/(mol K)]       43.739 [J/(mol K)]       0.01665928 [mEh/K]
  Correction Cp             0.000 [cal/(mol K)]        0.000 [J/(mol K)]       0.00000000 [mEh/K]

  ==> Thermochemistry Energy Analysis <==

  Raw electronic energy, E0
  Total E0, Electronic energy at well bottom at 0 [K]                 -113.27628453 [Eh]

  Zero-point energy, ZPE_vib = Sum_i nu_i / 2
    Electronic ZPE          0.000 [kcal/mol]        0.000 [kJ/mol]       0.00000000 [Eh]
    Translational ZPE       0.000 [kcal/mol]        0.000 [kJ/mol]       0.00000000 [Eh]
    Rotational ZPE          0.000 [kcal/mol]        0.000 [kJ/mol]       0.00000000 [Eh]
    Vibrational ZPE         3.825 [kcal/mol]       16.003 [kJ/mol]       0.00609532 [Eh]        1337.768 [cm^-1]
  Correction ZPE            3.825 [kcal/mol]       16.003 [kJ/mol]       0.00609532 [Eh]        1337.768 [cm^-1]
  Total ZPE, Electronic energy at 0 [K]                               -113.27018921 [Eh]

  Thermal Energy, E (includes ZPE)
    Electronic E            0.000 [kcal/mol]        0.000 [kJ/mol]       0.00000000 [Eh]
    Translational E         0.889 [kcal/mol]        3.718 [kJ/mol]       0.00141628 [Eh]
    Rotational E            0.592 [kcal/mol]        2.479 [kJ/mol]       0.00094418 [Eh]
    Vibrational E           4.418 [kcal/mol]       18.487 [kJ/mol]       0.00704119 [Eh]
  Correction E              5.900 [kcal/mol]       24.684 [kJ/mol]       0.00940165 [Eh]
  Total E, Electronic energy at  298.15 [K]                           -113.26688289 [Eh]

  Enthalpy, H_trans = E_trans + k_B * T
    Electronic H            0.000 [kcal/mol]        0.000 [kJ/mol]       0.00000000 [Eh]
    Translational H         1.481 [kcal/mol]        6.197 [kJ/mol]       0.00236046 [Eh]
    Rotational H            0.592 [kcal/mol]        2.479 [kJ/mol]       0.00094418 [Eh]
    Vibrational H           4.418 [kcal/mol]       18.487 [kJ/mol]       0.00704119 [Eh]
  Correction H              6.492 [kcal/mol]       27.163 [kJ/mol]       0.01034583 [Eh]
  Total H, Enthalpy at  298.15 [K]                                    -113.26593870 [Eh]

  Gibbs free energy, G = H - T * S
    Electronic G            0.000 [kcal/mol]        0.000 [kJ/mol]       0.00000000 [Eh]
    Translational G        -9.229 [kcal/mol]      -38.615 [kJ/mol]      -0.01470771 [Eh]
    Rotational G           -2.789 [kcal/mol]      -11.671 [kJ/mol]      -0.00444512 [Eh]
    Vibrational G           3.427 [kcal/mol]       14.337 [kJ/mol]       0.00546084 [Eh]
  Correction G             -8.592 [kcal/mol]      -35.948 [kJ/mol]      -0.01369199 [Eh]
  Total G, Free enthalpy at  298.15 [K]                               -113.28997652 [Eh]

    Psi4 stopped on: Tuesday, 19 April 2022 12:37AM
    Psi4 wall time for execution: 0:00:11.50

*** Psi4 exiting successfully. Buy a developer a beer!
