
    -----------------------------------------------------------------------
          Psi4: An Open-Source Ab Initio Electronic Structure Package
                               Psi4 1.3.2 release

                         Git: Rev {HEAD} ecbda83 


    R. M. Parrish, L. A. Burns, D. G. A. Smith, A. C. Simmonett,
    A. E. DePrince III, E. G. Hohenstein, U. Bozkaya, A. Yu. Sokolov,
    R. Di Remigio, R. M. Richard, J. F. Gonthier, A. M. James,
    H. R. McAlexander, A. Kumar, M. Saitow, X. Wang, B. P. Pritchard,
    P. Verma, H. F. Schaefer III, K. Patkowski, R. A. King, E. F. Valeev,
    F. A. Evangelista, J. M. Turney, T. D. Crawford, and C. D. Sherrill,
    J. Chem. Theory Comput. 13(7) pp 3185--3197 (2017).
    (doi: 10.1021/acs.jctc.7b00174)


                         Additional Contributions by
    P. Kraus, H. Kruse, M. H. Lechner, M. C. Schieber, R. A. Shaw,
    A. Alenaizan, R. Galvelis, Z. L. Glick, S. Lehtola, and J. P. Misiewicz

    -----------------------------------------------------------------------


    Psi4 started on: Wednesday, 20 April 2022 02:58AM

    Process ID: 13022
    Host:       atlantis
    PSIDATADIR: /home/akrom/software/anaconda3/envs/ffpenv/share/psi4
    Memory:     500.0 MiB
    Threads:    1
    
  ==> Input File <==

--------------------------------------------------------------------------
set basis  6-31+G*
molecule {
0 1
   C       -1.22151       -0.69325        0.00000
   C       -1.21114        0.71122        0.00000
   C       -0.01037       -1.40452        0.00000
   C        0.01037        1.40452        0.00000
   C        1.21114       -0.71122        0.00000
   C        1.22151        0.69325        0.00000
   H       -2.17311       -1.23332        0.00000
   H       -2.15464        1.26533        0.00000
   H       -0.01848       -2.49865        0.00000
   H        0.01848        2.49865        0.00000
   H        2.15464       -1.26533        0.00000
   H        2.17311        1.23332        0.00000
}
energy('m06-2x')
frequencies('m06-2x')
--------------------------------------------------------------------------

*** tstart() called on atlantis
*** at Wed Apr 20 02:58:54 2022

   => Loading Basis Set <=

    Name: 6-31+G*
    Role: ORBITAL
    Keyword: BASIS
    atoms 1-6  entry C          line   119 file /home/akrom/software/anaconda3/envs/ffpenv/share/psi4/basis/6-31pgs.gbs 
    atoms 7-12 entry H          line    46 file /home/akrom/software/anaconda3/envs/ffpenv/share/psi4/basis/6-31pgs.gbs 


         ---------------------------------------------------------
                                   SCF
               by Justin Turney, Rob Parrish, Andy Simmonett
                          and Daniel G. A. Smith
                              RKS Reference
                        1 Threads,    500 MiB Core
         ---------------------------------------------------------

  ==> Geometry <==

    Molecular point group: c2h
    Full point group: C2h

    Geometry (in Angstrom), charge = 0, multiplicity = 1:

       Center              X                  Y                   Z               Mass       
    ------------   -----------------  -----------------  -----------------  -----------------
         C           -1.221510000000    -0.693250000000     0.000000000000    12.000000000000
         C           -1.211140000000     0.711220000000     0.000000000000    12.000000000000
         C           -0.010370000000    -1.404520000000     0.000000000000    12.000000000000
         C            0.010370000000     1.404520000000     0.000000000000    12.000000000000
         C            1.211140000000    -0.711220000000     0.000000000000    12.000000000000
         C            1.221510000000     0.693250000000     0.000000000000    12.000000000000
         H           -2.173110000000    -1.233320000000     0.000000000000     1.007825032230
         H           -2.154640000000     1.265330000000     0.000000000000     1.007825032230
         H           -0.018480000000    -2.498650000000     0.000000000000     1.007825032230
         H            0.018480000000     2.498650000000     0.000000000000     1.007825032230
         H            2.154640000000    -1.265330000000     0.000000000000     1.007825032230
         H            2.173110000000     1.233320000000     0.000000000000     1.007825032230

  Running in c2h symmetry.

  Rotational constants: A =      0.18753  B =      0.18752  C =      0.09376 [cm^-1]
  Rotational constants: A =   5621.92707  B =   5621.82252  C =   2810.93740 [MHz]
  Nuclear repulsion =  202.013308935380167

  Charge       = 0
  Multiplicity = 1
  Electrons    = 42
  Nalpha       = 21
  Nbeta        = 21

  ==> Algorithm <==

  SCF Algorithm Type is DF.
  DIIS enabled.
  MOM disabled.
  Fractional occupation disabled.
  Guess Type is SAD.
  Energy threshold   = 1.00e-06
  Density threshold  = 1.00e-06
  Integral threshold = 0.00e+00

  ==> Primary Basis <==

  Basis Set: 6-31+G*
    Blend: 6-31+G*
    Number of shells: 60
    Number of basis function: 126
    Number of Cartesian functions: 126
    Spherical Harmonics?: false
    Max angular momentum: 2

  ==> DFT Potential <==

   => Composite Functional: M06-2X <= 

    Hybrid M06-2X Meta-GGA XC Functional

    Y. Zhao and D. G. Truhlar,  Theor. Chem. Acc., 120, 215, 2008


    Deriv               =              1
    GGA                 =           TRUE
    Meta                =           TRUE

    Exchange Hybrid     =           TRUE
    MP2 Hybrid          =          FALSE

   => Exchange Functionals <=

    1.0000   XC_HYB_MGGA_X_M06_2X

   => Exact (HF) Exchange <=

    0.5400               HF 

   => Correlation Functionals <=

    1.0000   XC_MGGA_C_M06_2X

   => Molecular Quadrature <=

    Radial Scheme          =       TREUTLER
    Pruning Scheme         =           FLAT
    Nuclear Scheme         =       TREUTLER

    BS radius alpha        =              1
    Pruning alpha          =              1
    Radial Points          =             75
    Spherical Points       =            302
    Total Points           =         271800
    Total Blocks           =           2142
    Max Points             =            256
    Max Functions          =            126

   => Loading Basis Set <=

    Name: (6-31+G* AUX)
    Role: JKFIT
    Keyword: DF_BASIS_SCF
    atoms 1-6  entry C          line   194 file /home/akrom/software/anaconda3/envs/ffpenv/share/psi4/basis/heavy-aug-cc-pvdz-jkfit.gbs 
    atoms 7-12 entry H          line   116 file /home/akrom/software/anaconda3/envs/ffpenv/share/psi4/basis/heavy-aug-cc-pvdz-jkfit.gbs 

  ==> Pre-Iterations <==

   -------------------------------------------------------
    Irrep   Nso     Nmo     Nalpha   Nbeta   Ndocc  Nsocc
   -------------------------------------------------------
     Ag        48      48       0       0       0       0
     Bg        15      15       0       0       0       0
     Au        15      15       0       0       0       0
     Bu        48      48       0       0       0       0
   -------------------------------------------------------
    Total     126     126      21      21      21       0
   -------------------------------------------------------

  ==> Integral Setup <==

  DFHelper Memory: AOs need 0.097 GiB; user supplied 0.097 GiB. Using in-core AOs.

  ==> MemDFJK: Density-Fitted J/K Matrices <==

    J tasked:                   Yes
    K tasked:                   Yes
    wK tasked:                   No
    OpenMP threads:               1
    Memory [MiB]:                99
    Algorithm:                 Core
    Schwarz Cutoff:           1E-12
    Mask sparsity (%):       0.2268
    Fitting Condition:        1E-10

   => Auxiliary Basis Set <=

  Basis Set: (6-31+G* AUX)
    Blend: HEAVY-AUG-CC-PVDZ-JKFIT
    Number of shells: 222
    Number of basis function: 756
    Number of Cartesian functions: 756
    Spherical Harmonics?: false
    Max angular momentum: 3

  Cached 14.3% of DFT collocation blocks in 0.294 [GiB].

  Minimum eigenvalue in the overlap matrix is 6.7977624208E-06.
  Using Symmetric Orthogonalization.

  SCF Guess: Superposition of Atomic Densities via on-the-fly atomic UHF.

  ==> Iterations <==

                           Total Energy        Delta E     RMS |[F,P]|

   @DF-RKS iter SAD:  -231.52328122489413   -2.31523e+02   0.00000e+00 
   @DF-RKS iter   1:  -231.79270762061668   -2.69426e-01   1.10681e-02 DIIS
   @DF-RKS iter   2:  -231.85670706142596   -6.39994e-02   1.01799e-02 DIIS
   @DF-RKS iter   3:  -232.14273852439069   -2.86031e-01   5.16617e-04 DIIS
   @DF-RKS iter   4:  -232.14339763144559   -6.59107e-04   8.46778e-05 DIIS
   @DF-RKS iter   5:  -232.14342105540382   -2.34240e-05   9.96866e-06 DIIS
   @DF-RKS iter   6:  -232.14342145172981   -3.96326e-07   8.31098e-07 DIIS
  Energy and wave function converged.


  ==> Post-Iterations <==

    Orbital Energies [Eh]
    ---------------------

    Doubly Occupied:                                                      

       1Ag   -10.560951     1Bu   -10.560614     2Bu   -10.560607  
       2Ag   -10.559876     3Ag   -10.559869     3Bu   -10.559521  
       4Ag    -0.955453     4Bu    -0.841249     5Bu    -0.841242  
       5Ag    -0.685134     6Ag    -0.685119     7Ag    -0.597626  
       6Bu    -0.536060     7Bu    -0.509729     8Bu    -0.488316  
       9Bu    -0.488301     1Au    -0.434630     8Ag    -0.404185  
       9Ag    -0.404179     1Bg    -0.306220     2Bg    -0.306212  

    Virtual:                                                              

       2Au     0.017805     3Au     0.017811    10Ag     0.028923  
      10Bu     0.037145    11Bu     0.037148    11Ag     0.051633  
      12Ag     0.051635     4Au     0.080139    12Bu     0.082417  
      13Ag     0.102052     3Bg     0.103758     4Bg     0.103762  
      13Bu     0.106835     5Bg     0.147974    14Ag     0.148625  
      15Ag     0.148628     5Au     0.150584     6Au     0.150592  
      14Bu     0.176894    15Bu     0.176900    16Bu     0.197286  
      17Bu     0.197286    16Ag     0.218862    17Ag     0.225917  
      18Ag     0.225930     6Bg     0.233633    19Ag     0.256011  
      18Bu     0.257930    19Bu     0.272443    20Bu     0.272449  
      20Ag     0.312634    21Ag     0.312636    21Bu     0.345627  
      22Bu     0.383421    23Bu     0.383444    22Ag     0.387245  
      23Ag     0.387248    24Ag     0.613077    24Bu     0.614417  
      25Bu     0.648455    25Ag     0.660777     7Au     0.707172  
      26Ag     0.766669    27Ag     0.766692     7Bg     0.767681  
       8Bg     0.767700     8Au     0.797911     9Au     0.797915  
      26Bu     0.817294    27Bu     0.817326     9Bg     0.854194  
      28Ag     0.865916    28Bu     0.961982    29Ag     0.993731  
      30Ag     0.993773    29Bu     1.018263    30Bu     1.018294  
      31Ag     1.027559    32Ag     1.083881    31Bu     1.116985  
      32Bu     1.117030    33Bu     1.174819    34Bu     1.174890  
      33Ag     1.204439    34Ag     1.204453    10Bg     1.307196  
      35Bu     1.341136    10Au     1.446235    35Ag     1.467692  
      36Ag     1.467757    11Au     1.532108    12Au     1.532175  
      11Bg     1.559191    12Bg     1.559218    37Ag     1.785709  
      36Bu     1.855654    37Bu     1.923749    38Ag     1.930968  
      38Bu     2.038673    39Bu     2.038741    39Ag     2.135448  
      40Ag     2.135480    13Au     2.185187    14Au     2.185244  
      40Bu     2.186216    41Bu     2.186230    13Bg     2.326124  
      14Bg     2.326157    15Bg     2.353040    41Ag     2.593558  
      42Ag     2.593630    15Au     2.653392    43Ag     2.718177  
      44Ag     2.718228    42Bu     2.748478    43Bu     2.748520  
      44Bu     2.844686    45Ag     3.032035    45Bu     3.383837  
      46Ag     4.238878    46Bu     4.268217    47Bu     4.268231  
      47Ag     4.405591    48Ag     4.405617    48Bu     4.699547  

    Final Occupation by Irrep:
             Ag    Bg    Au    Bu 
    DOCC [     9,    2,    1,    9 ]

  @DF-RKS Final Energy:  -232.14342145172981

   => Energetics <=

    Nuclear Repulsion Energy =            202.0133089353801665
    One-Electron Energy =                -710.8798612287469041
    Two-Electron Energy =                 293.4111179531867606
    DFT Exchange-Correlation Energy =     -16.6879871115498020
    Empirical Dispersion Energy =           0.0000000000000000
    VV10 Nonlocal Energy =                  0.0000000000000000
    Total Energy =                       -232.1434214517297789

Computation Completed


Properties will be evaluated at   0.000000,   0.000000,   0.000000 [a0]

Properties computed using the SCF density matrix

  Nuclear Dipole Moment: [e a0]
     X:    -0.0000      Y:    -0.0000      Z:     0.0000

  Electronic Dipole Moment: [e a0]
     X:     0.0000      Y:     0.0000      Z:     0.0000

  Dipole Moment: [e a0]
     X:    -0.0000      Y:    -0.0000      Z:     0.0000     Total:     0.0000

  Dipole Moment: [D]
     X:    -0.0000      Y:    -0.0000      Z:     0.0000     Total:     0.0000


*** tstop() called on atlantis at Wed Apr 20 02:59:10 2022
Module time:
	user time   =      16.18 seconds =       0.27 minutes
	system time =       0.14 seconds =       0.00 minutes
	total time  =         16 seconds =       0.27 minutes
Total time:
	user time   =      16.18 seconds =       0.27 minutes
	system time =       0.14 seconds =       0.00 minutes
	total time  =         16 seconds =       0.27 minutes
gradient() will perform analytic gradient computation.

*** tstart() called on atlantis
*** at Wed Apr 20 02:59:10 2022

   => Loading Basis Set <=

    Name: 6-31+G*
    Role: ORBITAL
    Keyword: BASIS
    atoms 1-6  entry C          line   119 file /home/akrom/software/anaconda3/envs/ffpenv/share/psi4/basis/6-31pgs.gbs 
    atoms 7-12 entry H          line    46 file /home/akrom/software/anaconda3/envs/ffpenv/share/psi4/basis/6-31pgs.gbs 


         ---------------------------------------------------------
                                   SCF
               by Justin Turney, Rob Parrish, Andy Simmonett
                          and Daniel G. A. Smith
                              RKS Reference
                        1 Threads,    500 MiB Core
         ---------------------------------------------------------

  ==> Geometry <==

    Molecular point group: c2h
    Full point group: C2h

    Geometry (in Angstrom), charge = 0, multiplicity = 1:

       Center              X                  Y                   Z               Mass       
    ------------   -----------------  -----------------  -----------------  -----------------
         C           -1.221510000000    -0.693250000000     0.000000000000    12.000000000000
         C           -1.211140000000     0.711220000000     0.000000000000    12.000000000000
         C           -0.010370000000    -1.404520000000     0.000000000000    12.000000000000
         C            0.010370000000     1.404520000000     0.000000000000    12.000000000000
         C            1.211140000000    -0.711220000000     0.000000000000    12.000000000000
         C            1.221510000000     0.693250000000     0.000000000000    12.000000000000
         H           -2.173110000000    -1.233320000000     0.000000000000     1.007825032230
         H           -2.154640000000     1.265330000000     0.000000000000     1.007825032230
         H           -0.018480000000    -2.498650000000     0.000000000000     1.007825032230
         H            0.018480000000     2.498650000000     0.000000000000     1.007825032230
         H            2.154640000000    -1.265330000000     0.000000000000     1.007825032230
         H            2.173110000000     1.233320000000     0.000000000000     1.007825032230

  Running in c2h symmetry.

  Rotational constants: A =      0.18753  B =      0.18752  C =      0.09376 [cm^-1]
  Rotational constants: A =   5621.92707  B =   5621.82252  C =   2810.93740 [MHz]
  Nuclear repulsion =  202.013308935380167

  Charge       = 0
  Multiplicity = 1
  Electrons    = 42
  Nalpha       = 21
  Nbeta        = 21

  ==> Algorithm <==

  SCF Algorithm Type is DF.
  DIIS enabled.
  MOM disabled.
  Fractional occupation disabled.
  Guess Type is SAD.
  Energy threshold   = 1.00e-08
  Density threshold  = 1.00e-08
  Integral threshold = 0.00e+00

  ==> Primary Basis <==

  Basis Set: 6-31+G*
    Blend: 6-31+G*
    Number of shells: 60
    Number of basis function: 126
    Number of Cartesian functions: 126
    Spherical Harmonics?: false
    Max angular momentum: 2

  ==> DFT Potential <==

   => Composite Functional: M06-2X <= 

    Hybrid M06-2X Meta-GGA XC Functional

    Y. Zhao and D. G. Truhlar,  Theor. Chem. Acc., 120, 215, 2008


    Deriv               =              1
    GGA                 =           TRUE
    Meta                =           TRUE

    Exchange Hybrid     =           TRUE
    MP2 Hybrid          =          FALSE

   => Exchange Functionals <=

    1.0000   XC_HYB_MGGA_X_M06_2X

   => Exact (HF) Exchange <=

    0.5400               HF 

   => Correlation Functionals <=

    1.0000   XC_MGGA_C_M06_2X

   => Molecular Quadrature <=

    Radial Scheme          =       TREUTLER
    Pruning Scheme         =           FLAT
    Nuclear Scheme         =       TREUTLER

    BS radius alpha        =              1
    Pruning alpha          =              1
    Radial Points          =             75
    Spherical Points       =            302
    Total Points           =         271800
    Total Blocks           =           2142
    Max Points             =            256
    Max Functions          =            126

   => Loading Basis Set <=

    Name: (6-31+G* AUX)
    Role: JKFIT
    Keyword: DF_BASIS_SCF
    atoms 1-6  entry C          line   194 file /home/akrom/software/anaconda3/envs/ffpenv/share/psi4/basis/heavy-aug-cc-pvdz-jkfit.gbs 
    atoms 7-12 entry H          line   116 file /home/akrom/software/anaconda3/envs/ffpenv/share/psi4/basis/heavy-aug-cc-pvdz-jkfit.gbs 

  ==> Pre-Iterations <==

   -------------------------------------------------------
    Irrep   Nso     Nmo     Nalpha   Nbeta   Ndocc  Nsocc
   -------------------------------------------------------
     Ag        48      48       0       0       0       0
     Bg        15      15       0       0       0       0
     Au        15      15       0       0       0       0
     Bu        48      48       0       0       0       0
   -------------------------------------------------------
    Total     126     126      21      21      21       0
   -------------------------------------------------------

  ==> Integral Setup <==

  DFHelper Memory: AOs need 0.097 GiB; user supplied 0.097 GiB. Using in-core AOs.

  ==> MemDFJK: Density-Fitted J/K Matrices <==

    J tasked:                   Yes
    K tasked:                   Yes
    wK tasked:                   No
    OpenMP threads:               1
    Memory [MiB]:                99
    Algorithm:                 Core
    Schwarz Cutoff:           1E-12
    Mask sparsity (%):       0.2268
    Fitting Condition:        1E-10

   => Auxiliary Basis Set <=

  Basis Set: (6-31+G* AUX)
    Blend: HEAVY-AUG-CC-PVDZ-JKFIT
    Number of shells: 222
    Number of basis function: 756
    Number of Cartesian functions: 756
    Spherical Harmonics?: false
    Max angular momentum: 3

  Cached 14.3% of DFT collocation blocks in 0.294 [GiB].

  Minimum eigenvalue in the overlap matrix is 6.7977624213E-06.
  Using Symmetric Orthogonalization.

  SCF Guess: Superposition of Atomic Densities via on-the-fly atomic UHF.

  ==> Iterations <==

                           Total Energy        Delta E     RMS |[F,P]|

   @DF-RKS iter SAD:  -231.52328122396463   -2.31523e+02   0.00000e+00 
   @DF-RKS iter   1:  -231.79270761968974   -2.69426e-01   1.10681e-02 DIIS
   @DF-RKS iter   2:  -231.85670706055546   -6.39994e-02   1.01799e-02 DIIS
   @DF-RKS iter   3:  -232.14273852341447   -2.86031e-01   5.16617e-04 DIIS
   @DF-RKS iter   4:  -232.14339763046951   -6.59107e-04   8.46778e-05 DIIS
   @DF-RKS iter   5:  -232.14342105442756   -2.34240e-05   9.96866e-06 DIIS
   @DF-RKS iter   6:  -232.14342145075406   -3.96326e-07   8.31098e-07 DIIS
   @DF-RKS iter   7:  -232.14342145537580   -4.62174e-09   1.10308e-07 DIIS
   @DF-RKS iter   8:  -232.14342145540957   -3.37650e-11   9.13831e-08 DIIS
   @DF-RKS iter   9:  -232.14342145542943   -1.98668e-11   4.24096e-09 DIIS
  Energy and wave function converged.


  ==> Post-Iterations <==

    Orbital Energies [Eh]
    ---------------------

    Doubly Occupied:                                                      

       1Ag   -10.560952     1Bu   -10.560615     2Bu   -10.560609  
       2Ag   -10.559877     3Ag   -10.559871     3Bu   -10.559523  
       4Ag    -0.955455     4Bu    -0.841250     5Bu    -0.841244  
       5Ag    -0.685135     6Ag    -0.685120     7Ag    -0.597627  
       6Bu    -0.536060     7Bu    -0.509730     8Bu    -0.488316  
       9Bu    -0.488303     1Au    -0.434632     8Ag    -0.404186  
       9Ag    -0.404180     1Bg    -0.306221     2Bg    -0.306214  

    Virtual:                                                              

       2Au     0.017803     3Au     0.017810    10Ag     0.028924  
      10Bu     0.037146    11Bu     0.037149    11Ag     0.051633  
      12Ag     0.051635     4Au     0.080139    12Bu     0.082416  
      13Ag     0.102051     3Bg     0.103758     4Bg     0.103762  
      13Bu     0.106836     5Bg     0.147974    14Ag     0.148625  
      15Ag     0.148628     5Au     0.150583     6Au     0.150591  
      14Bu     0.176893    15Bu     0.176899    16Bu     0.197285  
      17Bu     0.197286    16Ag     0.218861    17Ag     0.225916  
      18Ag     0.225929     6Bg     0.233632    19Ag     0.256010  
      18Bu     0.257930    19Bu     0.272442    20Bu     0.272448  
      20Ag     0.312634    21Ag     0.312635    21Bu     0.345627  
      22Bu     0.383420    23Bu     0.383443    22Ag     0.387244  
      23Ag     0.387247    24Ag     0.613076    24Bu     0.614416  
      25Bu     0.648453    25Ag     0.660775     7Au     0.707171  
      26Ag     0.766668    27Ag     0.766691     7Bg     0.767679  
       8Bg     0.767699     8Au     0.797910     9Au     0.797913  
      26Bu     0.817293    27Bu     0.817325     9Bg     0.854192  
      28Ag     0.865915    28Bu     0.961982    29Ag     0.993730  
      30Ag     0.993773    29Bu     1.018262    30Bu     1.018293  
      31Ag     1.027558    32Ag     1.083880    31Bu     1.116984  
      32Bu     1.117029    33Bu     1.174819    34Bu     1.174890  
      33Ag     1.204438    34Ag     1.204452    10Bg     1.307195  
      35Bu     1.341136    10Au     1.446233    35Ag     1.467691  
      36Ag     1.467756    11Au     1.532107    12Au     1.532173  
      11Bg     1.559190    12Bg     1.559216    37Ag     1.785708  
      36Bu     1.855652    37Bu     1.923748    38Ag     1.930967  
      38Bu     2.038671    39Bu     2.038740    39Ag     2.135446  
      40Ag     2.135479    13Au     2.185185    14Au     2.185243  
      40Bu     2.186214    41Bu     2.186229    13Bg     2.326123  
      14Bg     2.326155    15Bg     2.353038    41Ag     2.593556  
      42Ag     2.593629    15Au     2.653391    43Ag     2.718175  
      44Ag     2.718227    42Bu     2.748477    43Bu     2.748519  
      44Bu     2.844685    45Ag     3.032034    45Bu     3.383836  
      46Ag     4.238876    46Bu     4.268215    47Bu     4.268230  
      47Ag     4.405590    48Ag     4.405615    48Bu     4.699545  

    Final Occupation by Irrep:
             Ag    Bg    Au    Bu 
    DOCC [     9,    2,    1,    9 ]

  @DF-RKS Final Energy:  -232.14342145542943

   => Energetics <=

    Nuclear Repulsion Energy =            202.0133089353801665
    One-Electron Energy =                -710.8794506922430401
    Two-Electron Energy =                 293.4106973796538114
    DFT Exchange-Correlation Energy =     -16.6879770782203813
    Empirical Dispersion Energy =           0.0000000000000000
    VV10 Nonlocal Energy =                  0.0000000000000000
    Total Energy =                       -232.1434214554294329

Computation Completed


Properties will be evaluated at   0.000000,   0.000000,   0.000000 [a0]

Properties computed using the SCF density matrix

  Nuclear Dipole Moment: [e a0]
     X:    -0.0000      Y:    -0.0000      Z:     0.0000

  Electronic Dipole Moment: [e a0]
     X:     0.0000      Y:     0.0000      Z:     0.0000

  Dipole Moment: [e a0]
     X:    -0.0000      Y:    -0.0000      Z:     0.0000     Total:     0.0000

  Dipole Moment: [D]
     X:    -0.0000      Y:    -0.0000      Z:     0.0000     Total:     0.0000


*** tstop() called on atlantis at Wed Apr 20 02:59:33 2022
Module time:
	user time   =      22.36 seconds =       0.37 minutes
	system time =       0.06 seconds =       0.00 minutes
	total time  =         23 seconds =       0.38 minutes
Total time:
	user time   =      38.55 seconds =       0.64 minutes
	system time =       0.20 seconds =       0.00 minutes
	total time  =         39 seconds =       0.65 minutes

*** tstart() called on atlantis
*** at Wed Apr 20 02:59:33 2022


         ------------------------------------------------------------
                                   SCF GRAD                          
                          Rob Parrish, Justin Turney,                
                       Andy Simmonett, and Alex Sokolov              
         ------------------------------------------------------------

  ==> Geometry <==

    Molecular point group: c2h
    Full point group: C2h

    Geometry (in Angstrom), charge = 0, multiplicity = 1:

       Center              X                  Y                   Z               Mass       
    ------------   -----------------  -----------------  -----------------  -----------------
         C           -1.221510000000    -0.693250000000     0.000000000000    12.000000000000
         C           -1.211140000000     0.711220000000     0.000000000000    12.000000000000
         C           -0.010370000000    -1.404520000000     0.000000000000    12.000000000000
         C            0.010370000000     1.404520000000     0.000000000000    12.000000000000
         C            1.211140000000    -0.711220000000     0.000000000000    12.000000000000
         C            1.221510000000     0.693250000000     0.000000000000    12.000000000000
         H           -2.173110000000    -1.233320000000     0.000000000000     1.007825032230
         H           -2.154640000000     1.265330000000     0.000000000000     1.007825032230
         H           -0.018480000000    -2.498650000000     0.000000000000     1.007825032230
         H            0.018480000000     2.498650000000     0.000000000000     1.007825032230
         H            2.154640000000    -1.265330000000     0.000000000000     1.007825032230
         H            2.173110000000     1.233320000000     0.000000000000     1.007825032230

  Nuclear repulsion =  202.013308935380167

  ==> Basis Set <==

  Basis Set: 6-31+G*
    Blend: 6-31+G*
    Number of shells: 60
    Number of basis function: 126
    Number of Cartesian functions: 126
    Spherical Harmonics?: false
    Max angular momentum: 2

  ==> DFJKGrad: Density-Fitted SCF Gradients <==

    Gradient:                    1
    J tasked:                  Yes
    K tasked:                  Yes
    wK tasked:                  No
    OpenMP threads:              1
    Integrals threads:           1
    Memory [MiB]:              375
    Schwarz Cutoff:          0E+00
    Fitting Condition:       1E-10

   => Auxiliary Basis Set <=

  Basis Set: (6-31+G* AUX)
    Blend: HEAVY-AUG-CC-PVDZ-JKFIT
    Number of shells: 222
    Number of basis function: 756
    Number of Cartesian functions: 756
    Spherical Harmonics?: false
    Max angular momentum: 3

  ==> DFT Potential <==

   => Composite Functional: M06-2X <= 

    Hybrid M06-2X Meta-GGA XC Functional

    Y. Zhao and D. G. Truhlar,  Theor. Chem. Acc., 120, 215, 2008


    Deriv               =              1
    GGA                 =           TRUE
    Meta                =           TRUE

    Exchange Hybrid     =           TRUE
    MP2 Hybrid          =          FALSE

   => Exchange Functionals <=

    1.0000   XC_HYB_MGGA_X_M06_2X

   => Exact (HF) Exchange <=

    0.5400               HF 

   => Correlation Functionals <=

    1.0000   XC_MGGA_C_M06_2X

   => Molecular Quadrature <=

    Radial Scheme          =       TREUTLER
    Pruning Scheme         =           FLAT
    Nuclear Scheme         =       TREUTLER

    BS radius alpha        =              1
    Pruning alpha          =              1
    Radial Points          =             75
    Spherical Points       =            302
    Total Points           =         271800
    Total Blocks           =           2142
    Max Points             =            256
    Max Functions          =            126


  -Total Gradient:
     Atom            X                  Y                   Z
    ------   -----------------  -----------------  -----------------
       1       -0.003644187517    -0.002046704467     0.000000000000
       2       -0.003623276704     0.002129787704     0.000000000000
       3       -0.000011100376    -0.004226719301     0.000000000000
       4        0.000011100376     0.004226719301     0.000000000000
       5        0.003623276704    -0.002129787704     0.000000000000
       6        0.003644187517     0.002046704467     0.000000000000
       7       -0.004828385172    -0.002776827089     0.000000000000
       8       -0.004788466542     0.002874440785     0.000000000000
       9       -0.000029167304    -0.005561423296     0.000000000000
      10        0.000029167304     0.005561423296     0.000000000000
      11        0.004788466542    -0.002874440785     0.000000000000
      12        0.004828385172     0.002776827089     0.000000000000


*** tstop() called on atlantis at Wed Apr 20 02:59:37 2022
Module time:
	user time   =       4.25 seconds =       0.07 minutes
	system time =       0.05 seconds =       0.00 minutes
	total time  =          4 seconds =       0.07 minutes
Total time:
	user time   =      42.80 seconds =       0.71 minutes
	system time =       0.25 seconds =       0.00 minutes
	total time  =         43 seconds =       0.72 minutes

  Based on options and gradient (rms=2.85E-03), recommend projecting translations and projecting rotations.
hessian() will perform frequency computation by finite difference of analytic gradients.

         ----------------------------------------------------------
                                   FINDIF
                     R. A. King and Jonathon Misiewicz
         ---------------------------------------------------------

  Using finite-differences of gradients to determine vibrational frequencies and 
  normal modes.  Resulting frequencies are only valid at stationary points.
    Generating geometries for use with 3-point formula.
    Displacement size will be 5.00e-03.
    Number of atoms is 12.
    Number of irreps is 4.
    Number of SALCs is 30.
    Translations projected? 1. Rotations projected? 1.
    Index of SALCs per irrep:
     1 :  0  1  2  3  4  5  6  7  8  9  10 
     2 :  11  12  13  14 
     3 :  15  16  17  18  19 
     4 :  20  21  22  23  24  25  26  27  28  29 
    Number of SALCs per irrep:
     Irrep 1: 11
     Irrep 2: 4
     Irrep 3: 5
     Irrep 4: 10
    Number of geometries (including reference) is 42.
    Number of displacements per irrep:
      Irrep 1: 22
      Irrep 2: 4
      Irrep 3: 5
      Irrep 4: 10

  //>>>>>>>>>>>>>>>>>>>>>>>>>>>>>>>>>>>//
  //    Loading displacement 1 of 42   //
  //<<<<<<<<<<<<<<<<<<<<<<<<<<<<<<<<<<<//
gradient() will perform analytic gradient computation.

*** tstart() called on atlantis
*** at Wed Apr 20 02:59:38 2022

   => Loading Basis Set <=

    Name: 6-31+G*
    Role: ORBITAL
    Keyword: BASIS
    atoms 1-6  entry C          line   119 file /home/akrom/software/anaconda3/envs/ffpenv/share/psi4/basis/6-31pgs.gbs 
    atoms 7-12 entry H          line    46 file /home/akrom/software/anaconda3/envs/ffpenv/share/psi4/basis/6-31pgs.gbs 


         ---------------------------------------------------------
                                   SCF
               by Justin Turney, Rob Parrish, Andy Simmonett
                          and Daniel G. A. Smith
                              RKS Reference
                        1 Threads,    500 MiB Core
         ---------------------------------------------------------

  ==> Geometry <==

    Molecular point group: c2h
    Full point group: C2h

    Geometry (in Angstrom), charge = 0, multiplicity = 1:

       Center              X                  Y                   Z               Mass       
    ------------   -----------------  -----------------  -----------------  -----------------
         C           -1.221510000000    -0.693250000000     0.000000000000    12.000000000000
         C           -1.211140000000     0.711220000000     0.000000000000    12.000000000000
         C           -0.010370000000    -1.404520000000     0.000000000000    12.000000000000
         C            0.010370000000     1.404520000000     0.000000000000    12.000000000000
         C            1.211140000000    -0.711220000000     0.000000000000    12.000000000000
         C            1.221510000000     0.693250000000     0.000000000000    12.000000000000
         H           -2.173110000000    -1.233320000000     0.000000000000     1.007825032230
         H           -2.154640000000     1.265330000000     0.000000000000     1.007825032230
         H           -0.018480000000    -2.498650000000     0.000000000000     1.007825032230
         H            0.018480000000     2.498650000000     0.000000000000     1.007825032230
         H            2.154640000000    -1.265330000000     0.000000000000     1.007825032230
         H            2.173110000000     1.233320000000     0.000000000000     1.007825032230

  Running in c2h symmetry.

  Rotational constants: A =      0.18753  B =      0.18752  C =      0.09376 [cm^-1]
  Rotational constants: A =   5621.92707  B =   5621.82252  C =   2810.93740 [MHz]
  Nuclear repulsion =  202.013308935380167

  Charge       = 0
  Multiplicity = 1
  Electrons    = 42
  Nalpha       = 21
  Nbeta        = 21

  ==> Algorithm <==

  SCF Algorithm Type is DF.
  DIIS enabled.
  MOM disabled.
  Fractional occupation disabled.
  Guess Type is SAD.
  Energy threshold   = 1.00e-08
  Density threshold  = 1.00e-08
  Integral threshold = 0.00e+00

  ==> Primary Basis <==

  Basis Set: 6-31+G*
    Blend: 6-31+G*
    Number of shells: 60
    Number of basis function: 126
    Number of Cartesian functions: 126
    Spherical Harmonics?: false
    Max angular momentum: 2

  ==> DFT Potential <==

   => Composite Functional: M06-2X <= 

    Hybrid M06-2X Meta-GGA XC Functional

    Y. Zhao and D. G. Truhlar,  Theor. Chem. Acc., 120, 215, 2008


    Deriv               =              1
    GGA                 =           TRUE
    Meta                =           TRUE

    Exchange Hybrid     =           TRUE
    MP2 Hybrid          =          FALSE

   => Exchange Functionals <=

    1.0000   XC_HYB_MGGA_X_M06_2X

   => Exact (HF) Exchange <=

    0.5400               HF 

   => Correlation Functionals <=

    1.0000   XC_MGGA_C_M06_2X

   => Molecular Quadrature <=

    Radial Scheme          =       TREUTLER
    Pruning Scheme         =           FLAT
    Nuclear Scheme         =       TREUTLER

    BS radius alpha        =              1
    Pruning alpha          =              1
    Radial Points          =             75
    Spherical Points       =            302
    Total Points           =         271800
    Total Blocks           =           2142
    Max Points             =            256
    Max Functions          =            126

   => Loading Basis Set <=

    Name: (6-31+G* AUX)
    Role: JKFIT
    Keyword: DF_BASIS_SCF
    atoms 1-6  entry C          line   194 file /home/akrom/software/anaconda3/envs/ffpenv/share/psi4/basis/heavy-aug-cc-pvdz-jkfit.gbs 
    atoms 7-12 entry H          line   116 file /home/akrom/software/anaconda3/envs/ffpenv/share/psi4/basis/heavy-aug-cc-pvdz-jkfit.gbs 

  ==> Pre-Iterations <==

   -------------------------------------------------------
    Irrep   Nso     Nmo     Nalpha   Nbeta   Ndocc  Nsocc
   -------------------------------------------------------
     Ag        48      48       0       0       0       0
     Bg        15      15       0       0       0       0
     Au        15      15       0       0       0       0
     Bu        48      48       0       0       0       0
   -------------------------------------------------------
    Total     126     126      21      21      21       0
   -------------------------------------------------------

  ==> Integral Setup <==

  DFHelper Memory: AOs need 0.097 GiB; user supplied 0.097 GiB. Using in-core AOs.

  ==> MemDFJK: Density-Fitted J/K Matrices <==

    J tasked:                   Yes
    K tasked:                   Yes
    wK tasked:                   No
    OpenMP threads:               1
    Memory [MiB]:                99
    Algorithm:                 Core
    Schwarz Cutoff:           1E-12
    Mask sparsity (%):       0.2268
    Fitting Condition:        1E-10

   => Auxiliary Basis Set <=

  Basis Set: (6-31+G* AUX)
    Blend: HEAVY-AUG-CC-PVDZ-JKFIT
    Number of shells: 222
    Number of basis function: 756
    Number of Cartesian functions: 756
    Spherical Harmonics?: false
    Max angular momentum: 3

  Cached 14.3% of DFT collocation blocks in 0.294 [GiB].

  Minimum eigenvalue in the overlap matrix is 6.7977624208E-06.
  Using Symmetric Orthogonalization.

  SCF Guess: Superposition of Atomic Densities via on-the-fly atomic UHF.

  ==> Iterations <==

                           Total Energy        Delta E     RMS |[F,P]|

   @DF-RKS iter SAD:  -231.52328122334126   -2.31523e+02   0.00000e+00 
   @DF-RKS iter   1:  -231.79270761912633   -2.69426e-01   1.10681e-02 DIIS
   @DF-RKS iter   2:  -231.85670705988929   -6.39994e-02   1.01799e-02 DIIS
   @DF-RKS iter   3:  -232.14273852285714   -2.86031e-01   5.16617e-04 DIIS
   @DF-RKS iter   4:  -232.14339762991185   -6.59107e-04   8.46778e-05 DIIS
   @DF-RKS iter   5:  -232.14342105387070   -2.34240e-05   9.96866e-06 DIIS
   @DF-RKS iter   6:  -232.14342145019634   -3.96326e-07   8.31098e-07 DIIS
   @DF-RKS iter   7:  -232.14342145481831   -4.62197e-09   1.10307e-07 DIIS
   @DF-RKS iter   8:  -232.14342145485244   -3.41345e-11   9.13826e-08 DIIS
   @DF-RKS iter   9:  -232.14342145487251   -2.00657e-11   4.24097e-09 DIIS
  Energy and wave function converged.


  ==> Post-Iterations <==

    Orbital Energies [Eh]
    ---------------------

    Doubly Occupied:                                                      

       1Ag   -10.560952     1Bu   -10.560615     2Bu   -10.560609  
       2Ag   -10.559877     3Ag   -10.559871     3Bu   -10.559523  
       4Ag    -0.955455     4Bu    -0.841250     5Bu    -0.841244  
       5Ag    -0.685135     6Ag    -0.685120     7Ag    -0.597627  
       6Bu    -0.536060     7Bu    -0.509730     8Bu    -0.488316  
       9Bu    -0.488303     1Au    -0.434632     8Ag    -0.404186  
       9Ag    -0.404180     1Bg    -0.306221     2Bg    -0.306214  

    Virtual:                                                              

       2Au     0.017803     3Au     0.017810    10Ag     0.028924  
      10Bu     0.037146    11Bu     0.037149    11Ag     0.051633  
      12Ag     0.051635     4Au     0.080139    12Bu     0.082416  
      13Ag     0.102051     3Bg     0.103758     4Bg     0.103762  
      13Bu     0.106836     5Bg     0.147974    14Ag     0.148625  
      15Ag     0.148628     5Au     0.150583     6Au     0.150591  
      14Bu     0.176893    15Bu     0.176899    16Bu     0.197285  
      17Bu     0.197286    16Ag     0.218861    17Ag     0.225916  
      18Ag     0.225929     6Bg     0.233632    19Ag     0.256009  
      18Bu     0.257929    19Bu     0.272442    20Bu     0.272448  
      20Ag     0.312634    21Ag     0.312635    21Bu     0.345627  
      22Bu     0.383420    23Bu     0.383443    22Ag     0.387244  
      23Ag     0.387247    24Ag     0.613076    24Bu     0.614416  
      25Bu     0.648453    25Ag     0.660775     7Au     0.707171  
      26Ag     0.766668    27Ag     0.766691     7Bg     0.767679  
       8Bg     0.767699     8Au     0.797910     9Au     0.797913  
      26Bu     0.817293    27Bu     0.817325     9Bg     0.854192  
      28Ag     0.865915    28Bu     0.961982    29Ag     0.993730  
      30Ag     0.993773    29Bu     1.018262    30Bu     1.018293  
      31Ag     1.027558    32Ag     1.083880    31Bu     1.116984  
      32Bu     1.117029    33Bu     1.174819    34Bu     1.174890  
      33Ag     1.204438    34Ag     1.204452    10Bg     1.307195  
      35Bu     1.341136    10Au     1.446233    35Ag     1.467691  
      36Ag     1.467756    11Au     1.532107    12Au     1.532173  
      11Bg     1.559190    12Bg     1.559216    37Ag     1.785708  
      36Bu     1.855652    37Bu     1.923748    38Ag     1.930967  
      38Bu     2.038671    39Bu     2.038740    39Ag     2.135446  
      40Ag     2.135479    13Au     2.185185    14Au     2.185243  
      40Bu     2.186214    41Bu     2.186229    13Bg     2.326123  
      14Bg     2.326155    15Bg     2.353038    41Ag     2.593556  
      42Ag     2.593629    15Au     2.653391    43Ag     2.718175  
      44Ag     2.718227    42Bu     2.748477    43Bu     2.748519  
      44Bu     2.844685    45Ag     3.032034    45Bu     3.383836  
      46Ag     4.238876    46Bu     4.268215    47Bu     4.268230  
      47Ag     4.405590    48Ag     4.405615    48Bu     4.699545  

    Final Occupation by Irrep:
             Ag    Bg    Au    Bu 
    DOCC [     9,    2,    1,    9 ]

  @DF-RKS Final Energy:  -232.14342145487251

   => Energetics <=

    Nuclear Repulsion Energy =            202.0133089353801665
    One-Electron Energy =                -710.8794506930940997
    Two-Electron Energy =                 293.4106973811515786
    DFT Exchange-Correlation Energy =     -16.6879770783101584
    Empirical Dispersion Energy =           0.0000000000000000
    VV10 Nonlocal Energy =                  0.0000000000000000
    Total Energy =                       -232.1434214548725095

Computation Completed


Properties will be evaluated at   0.000000,   0.000000,   0.000000 [a0]

Properties computed using the SCF density matrix

  Nuclear Dipole Moment: [e a0]
     X:    -0.0000      Y:    -0.0000      Z:     0.0000

  Electronic Dipole Moment: [e a0]
     X:     0.0000      Y:     0.0000      Z:     0.0000

  Dipole Moment: [e a0]
     X:    -0.0000      Y:    -0.0000      Z:     0.0000     Total:     0.0000

  Dipole Moment: [D]
     X:    -0.0000      Y:    -0.0000      Z:     0.0000     Total:     0.0000


*** tstop() called on atlantis at Wed Apr 20 03:00:00 2022
Module time:
	user time   =      22.37 seconds =       0.37 minutes
	system time =       0.08 seconds =       0.00 minutes
	total time  =         22 seconds =       0.37 minutes
Total time:
	user time   =      65.46 seconds =       1.09 minutes
	system time =       0.34 seconds =       0.01 minutes
	total time  =         66 seconds =       1.10 minutes

*** tstart() called on atlantis
*** at Wed Apr 20 03:00:00 2022


         ------------------------------------------------------------
                                   SCF GRAD                          
                          Rob Parrish, Justin Turney,                
                       Andy Simmonett, and Alex Sokolov              
         ------------------------------------------------------------

  ==> Geometry <==

    Molecular point group: c2h
    Full point group: C2h

    Geometry (in Angstrom), charge = 0, multiplicity = 1:

       Center              X                  Y                   Z               Mass       
    ------------   -----------------  -----------------  -----------------  -----------------
         C           -1.221510000000    -0.693250000000     0.000000000000    12.000000000000
         C           -1.211140000000     0.711220000000     0.000000000000    12.000000000000
         C           -0.010370000000    -1.404520000000     0.000000000000    12.000000000000
         C            0.010370000000     1.404520000000     0.000000000000    12.000000000000
         C            1.211140000000    -0.711220000000     0.000000000000    12.000000000000
         C            1.221510000000     0.693250000000     0.000000000000    12.000000000000
         H           -2.173110000000    -1.233320000000     0.000000000000     1.007825032230
         H           -2.154640000000     1.265330000000     0.000000000000     1.007825032230
         H           -0.018480000000    -2.498650000000     0.000000000000     1.007825032230
         H            0.018480000000     2.498650000000     0.000000000000     1.007825032230
         H            2.154640000000    -1.265330000000     0.000000000000     1.007825032230
         H            2.173110000000     1.233320000000     0.000000000000     1.007825032230

  Nuclear repulsion =  202.013308935380167

  ==> Basis Set <==

  Basis Set: 6-31+G*
    Blend: 6-31+G*
    Number of shells: 60
    Number of basis function: 126
    Number of Cartesian functions: 126
    Spherical Harmonics?: false
    Max angular momentum: 2

  ==> DFJKGrad: Density-Fitted SCF Gradients <==

    Gradient:                    1
    J tasked:                  Yes
    K tasked:                  Yes
    wK tasked:                  No
    OpenMP threads:              1
    Integrals threads:           1
    Memory [MiB]:              375
    Schwarz Cutoff:          0E+00
    Fitting Condition:       1E-10

   => Auxiliary Basis Set <=

  Basis Set: (6-31+G* AUX)
    Blend: HEAVY-AUG-CC-PVDZ-JKFIT
    Number of shells: 222
    Number of basis function: 756
    Number of Cartesian functions: 756
    Spherical Harmonics?: false
    Max angular momentum: 3

  ==> DFT Potential <==

   => Composite Functional: M06-2X <= 

    Hybrid M06-2X Meta-GGA XC Functional

    Y. Zhao and D. G. Truhlar,  Theor. Chem. Acc., 120, 215, 2008


    Deriv               =              1
    GGA                 =           TRUE
    Meta                =           TRUE

    Exchange Hybrid     =           TRUE
    MP2 Hybrid          =          FALSE

   => Exchange Functionals <=

    1.0000   XC_HYB_MGGA_X_M06_2X

   => Exact (HF) Exchange <=

    0.5400               HF 

   => Correlation Functionals <=

    1.0000   XC_MGGA_C_M06_2X

   => Molecular Quadrature <=

    Radial Scheme          =       TREUTLER
    Pruning Scheme         =           FLAT
    Nuclear Scheme         =       TREUTLER

    BS radius alpha        =              1
    Pruning alpha          =              1
    Radial Points          =             75
    Spherical Points       =            302
    Total Points           =         271800
    Total Blocks           =           2142
    Max Points             =            256
    Max Functions          =            126


  -Total Gradient:
     Atom            X                  Y                   Z
    ------   -----------------  -----------------  -----------------
       1       -0.003643943366    -0.002046602774     0.000000000000
       2       -0.003623020133     0.002129627650     0.000000000000
       3       -0.000011139398    -0.004226441372     0.000000000000
       4        0.000011139398     0.004226441372     0.000000000000
       5        0.003623020133    -0.002129627650     0.000000000000
       6        0.003643943366     0.002046602774     0.000000000000
       7       -0.004828011245    -0.002776607818     0.000000000000
       8       -0.004788171236     0.002874271566     0.000000000000
       9       -0.000029153428    -0.005561021259     0.000000000000
      10        0.000029153428     0.005561021259     0.000000000000
      11        0.004788171236    -0.002874271566     0.000000000000
      12        0.004828011245     0.002776607818     0.000000000000


*** tstop() called on atlantis at Wed Apr 20 03:00:04 2022
Module time:
	user time   =       4.26 seconds =       0.07 minutes
	system time =       0.05 seconds =       0.00 minutes
	total time  =          4 seconds =       0.07 minutes
Total time:
	user time   =      69.72 seconds =       1.16 minutes
	system time =       0.39 seconds =       0.01 minutes
	total time  =         70 seconds =       1.17 minutes

  //>>>>>>>>>>>>>>>>>>>>>>>>>>>>>>>>>>>//
  //    Loading displacement 2 of 42   //
  //<<<<<<<<<<<<<<<<<<<<<<<<<<<<<<<<<<<//
gradient() will perform analytic gradient computation.

*** tstart() called on atlantis
*** at Wed Apr 20 03:00:04 2022

   => Loading Basis Set <=

    Name: 6-31+G*
    Role: ORBITAL
    Keyword: BASIS
    atoms 1-6  entry C          line   119 file /home/akrom/software/anaconda3/envs/ffpenv/share/psi4/basis/6-31pgs.gbs 
    atoms 7-12 entry H          line    46 file /home/akrom/software/anaconda3/envs/ffpenv/share/psi4/basis/6-31pgs.gbs 


         ---------------------------------------------------------
                                   SCF
               by Justin Turney, Rob Parrish, Andy Simmonett
                          and Daniel G. A. Smith
                              RKS Reference
                        1 Threads,    500 MiB Core
         ---------------------------------------------------------

  ==> Geometry <==

    Molecular point group: c2h
    Full point group: C2h

    Geometry (in Angstrom), charge = 0, multiplicity = 1:

       Center              X                  Y                   Z               Mass       
    ------------   -----------------  -----------------  -----------------  -----------------
         C           -1.222032477591    -0.693313109608     0.000000000000    12.000000000000
         C           -1.211176745353     0.711157426160     0.000000000000    12.000000000000
         C           -0.010297435136    -1.404520535769     0.000000000000    12.000000000000
         C            0.010297435136     1.404520535769     0.000000000000    12.000000000000
         C            1.211176745353    -0.711157426160     0.000000000000    12.000000000000
         C            1.222032477591     0.693313109608     0.000000000000    12.000000000000
         H           -2.173046280225    -1.233432274252     0.000000000000     1.007825032230
         H           -2.154705373579     1.265218680005     0.000000000000     1.007825032230
         H           -0.018350906646    -2.498650954774     0.000000000000     1.007825032230
         H            0.018350906646     2.498650954774     0.000000000000     1.007825032230
         H            2.154705373579    -1.265218680005     0.000000000000     1.007825032230
         H            2.173046280225     1.233432274252     0.000000000000     1.007825032230

  Running in c2h symmetry.

  Rotational constants: A =      0.18753  B =      0.18745  C =      0.09375 [cm^-1]
  Rotational constants: A =   5621.97670  B =   5619.72613  C =   2810.42560 [MHz]
  Nuclear repulsion =  201.998047561272216

  Charge       = 0
  Multiplicity = 1
  Electrons    = 42
  Nalpha       = 21
  Nbeta        = 21

  ==> Algorithm <==

  SCF Algorithm Type is DF.
  DIIS enabled.
  MOM disabled.
  Fractional occupation disabled.
  Guess Type is SAD.
  Energy threshold   = 1.00e-08
  Density threshold  = 1.00e-08
  Integral threshold = 0.00e+00

  ==> Primary Basis <==

  Basis Set: 6-31+G*
    Blend: 6-31+G*
    Number of shells: 60
    Number of basis function: 126
    Number of Cartesian functions: 126
    Spherical Harmonics?: false
    Max angular momentum: 2

  ==> DFT Potential <==

   => Composite Functional: M06-2X <= 

    Hybrid M06-2X Meta-GGA XC Functional

    Y. Zhao and D. G. Truhlar,  Theor. Chem. Acc., 120, 215, 2008


    Deriv               =              1
    GGA                 =           TRUE
    Meta                =           TRUE

    Exchange Hybrid     =           TRUE
    MP2 Hybrid          =          FALSE

   => Exchange Functionals <=

    1.0000   XC_HYB_MGGA_X_M06_2X

   => Exact (HF) Exchange <=

    0.5400               HF 

   => Correlation Functionals <=

    1.0000   XC_MGGA_C_M06_2X

   => Molecular Quadrature <=

    Radial Scheme          =       TREUTLER
    Pruning Scheme         =           FLAT
    Nuclear Scheme         =       TREUTLER

    BS radius alpha        =              1
    Pruning alpha          =              1
    Radial Points          =             75
    Spherical Points       =            302
    Total Points           =         271800
    Total Blocks           =           2142
    Max Points             =            256
    Max Functions          =            126

   => Loading Basis Set <=

    Name: (6-31+G* AUX)
    Role: JKFIT
    Keyword: DF_BASIS_SCF
    atoms 1-6  entry C          line   194 file /home/akrom/software/anaconda3/envs/ffpenv/share/psi4/basis/heavy-aug-cc-pvdz-jkfit.gbs 
    atoms 7-12 entry H          line   116 file /home/akrom/software/anaconda3/envs/ffpenv/share/psi4/basis/heavy-aug-cc-pvdz-jkfit.gbs 

  ==> Pre-Iterations <==

   -------------------------------------------------------
    Irrep   Nso     Nmo     Nalpha   Nbeta   Ndocc  Nsocc
   -------------------------------------------------------
     Ag        48      48       0       0       0       0
     Bg        15      15       0       0       0       0
     Au        15      15       0       0       0       0
     Bu        48      48       0       0       0       0
   -------------------------------------------------------
    Total     126     126      21      21      21       0
   -------------------------------------------------------

  ==> Integral Setup <==

  DFHelper Memory: AOs need 0.097 GiB; user supplied 0.097 GiB. Using in-core AOs.

  ==> MemDFJK: Density-Fitted J/K Matrices <==

    J tasked:                   Yes
    K tasked:                   Yes
    wK tasked:                   No
    OpenMP threads:               1
    Memory [MiB]:                99
    Algorithm:                 Core
    Schwarz Cutoff:           1E-12
    Mask sparsity (%):       0.2268
    Fitting Condition:        1E-10

   => Auxiliary Basis Set <=

  Basis Set: (6-31+G* AUX)
    Blend: HEAVY-AUG-CC-PVDZ-JKFIT
    Number of shells: 222
    Number of basis function: 756
    Number of Cartesian functions: 756
    Spherical Harmonics?: false
    Max angular momentum: 3

  Cached 14.3% of DFT collocation blocks in 0.305 [GiB].

  Minimum eigenvalue in the overlap matrix is 6.8050935198E-06.
  Using Symmetric Orthogonalization.

  SCF Guess: Superposition of Atomic Densities via on-the-fly atomic UHF.

  ==> Iterations <==

                           Total Energy        Delta E     RMS |[F,P]|

   @DF-RKS iter SAD:  -231.52249631186811   -2.31522e+02   0.00000e+00 
   @DF-RKS iter   1:  -231.79310170274027   -2.70605e-01   1.10637e-02 DIIS
   @DF-RKS iter   2:  -231.85729843639095   -6.41967e-02   1.01716e-02 DIIS
   @DF-RKS iter   3:  -232.14286723026871   -2.85569e-01   5.16566e-04 DIIS
   @DF-RKS iter   4:  -232.14352601240105   -6.58782e-04   8.46415e-05 DIIS
   @DF-RKS iter   5:  -232.14354941886995   -2.34065e-05   1.00435e-05 DIIS
   @DF-RKS iter   6:  -232.14354981342848   -3.94559e-07   1.68661e-06 DIIS
   @DF-RKS iter   7:  -232.14354981822351   -4.79503e-09   1.44269e-06 DIIS
   @DF-RKS iter   8:  -232.14354982335246   -5.12895e-09   5.65283e-08 DIIS
   @DF-RKS iter   9:  -232.14354982336766   -1.52056e-11   3.22736e-09 DIIS
  Energy and wave function converged.


  ==> Post-Iterations <==

    Orbital Energies [Eh]
    ---------------------

    Doubly Occupied:                                                      

       1Ag   -10.560974     1Bu   -10.560645     2Bu   -10.560623  
       2Ag   -10.559908     3Ag   -10.559885     3Bu   -10.559545  
       4Ag    -0.955381     4Bu    -0.841271     5Bu    -0.841164  
       5Ag    -0.685218     6Ag    -0.685054     7Ag    -0.597636  
       6Bu    -0.536154     7Bu    -0.509682     8Bu    -0.488401  
       9Bu    -0.488254     1Au    -0.434566     8Ag    -0.404355  
       9Ag    -0.404055     1Bg    -0.306247     2Bg    -0.306126  

    Virtual:                                                              

       2Au     0.017722     3Au     0.017848    10Ag     0.028939  
      10Bu     0.037146    11Bu     0.037155    11Ag     0.051631  
      12Ag     0.051631     4Au     0.080116    12Bu     0.082415  
      13Ag     0.102032     3Bg     0.103768     4Bg     0.103775  
      13Bu     0.106842     5Bg     0.147953    14Ag     0.148623  
      15Ag     0.148629     5Au     0.150577     6Au     0.150601  
      14Bu     0.176897    15Bu     0.176913    16Bu     0.197271  
      17Bu     0.197294    16Ag     0.218931    17Ag     0.225916  
      18Ag     0.225927     6Bg     0.233576    19Ag     0.256005  
      18Bu     0.257944    19Bu     0.272418    20Bu     0.272606  
      20Ag     0.312581    21Ag     0.312667    21Bu     0.345643  
      22Bu     0.383235    23Bu     0.383424    22Ag     0.387160  
      23Ag     0.387316    24Ag     0.612917    24Bu     0.614461  
      25Bu     0.648278    25Ag     0.660671     7Au     0.707222  
      26Ag     0.766529    27Ag     0.766742     7Bg     0.767668  
       8Bg     0.767707     8Au     0.797885     9Au     0.797931  
      26Bu     0.817203    27Bu     0.817377     9Bg     0.854176  
      28Ag     0.865914    28Bu     0.962073    29Ag     0.993784  
      30Ag     0.994112    29Bu     1.018223    30Bu     1.018635  
      31Ag     1.027470    32Ag     1.084114    31Bu     1.116862  
      32Bu     1.117097    33Bu     1.174513    34Bu     1.174702  
      33Ag     1.204313    34Ag     1.204414    10Bg     1.307209  
      35Bu     1.341053    10Au     1.446335    35Ag     1.467759  
      36Ag     1.467825    11Au     1.532012    12Au     1.532196  
      11Bg     1.559124    12Bg     1.559319    37Ag     1.785736  
      36Bu     1.855537    37Bu     1.923770    38Ag     1.931377  
      38Bu     2.038716    39Bu     2.039504    39Ag     2.135206  
      40Ag     2.135368    13Au     2.185029    14Au     2.185273  
      40Bu     2.185737    41Bu     2.186051    13Bg     2.325619  
      14Bg     2.326431    15Bg     2.352874    41Ag     2.593571  
      42Ag     2.593736    15Au     2.653132    43Ag     2.718155  
      44Ag     2.718291    42Bu     2.748247    43Bu     2.748511  
      44Bu     2.844790    45Ag     3.031939    45Bu     3.383759  
      46Ag     4.238864    46Bu     4.268244    47Bu     4.268450  
      47Ag     4.405787    48Ag     4.405847    48Bu     4.699705  

    Final Occupation by Irrep:
             Ag    Bg    Au    Bu 
    DOCC [     9,    2,    1,    9 ]

  @DF-RKS Final Energy:  -232.14354982336766

   => Energetics <=

    Nuclear Repulsion Energy =            201.9980475612722159
    One-Electron Energy =                -710.8491119475888809
    Two-Electron Energy =                 293.3955213971883040
    DFT Exchange-Correlation Energy =     -16.6880068342392853
    Empirical Dispersion Energy =           0.0000000000000000
    VV10 Nonlocal Energy =                  0.0000000000000000
    Total Energy =                       -232.1435498233676640

Computation Completed


Properties will be evaluated at   0.000000,   0.000000,   0.000000 [a0]

Properties computed using the SCF density matrix

  Nuclear Dipole Moment: [e a0]
     X:     0.0000      Y:     0.0000      Z:     0.0000

  Electronic Dipole Moment: [e a0]
     X:     0.0000      Y:     0.0000      Z:     0.0000

  Dipole Moment: [e a0]
     X:     0.0000      Y:     0.0000      Z:     0.0000     Total:     0.0000

  Dipole Moment: [D]
     X:     0.0000      Y:     0.0000      Z:     0.0000     Total:     0.0000


*** tstop() called on atlantis at Wed Apr 20 03:00:27 2022
Module time:
	user time   =      22.33 seconds =       0.37 minutes
	system time =       0.09 seconds =       0.00 minutes
	total time  =         23 seconds =       0.38 minutes
Total time:
	user time   =      92.05 seconds =       1.53 minutes
	system time =       0.48 seconds =       0.01 minutes
	total time  =         93 seconds =       1.55 minutes

*** tstart() called on atlantis
*** at Wed Apr 20 03:00:27 2022


         ------------------------------------------------------------
                                   SCF GRAD                          
                          Rob Parrish, Justin Turney,                
                       Andy Simmonett, and Alex Sokolov              
         ------------------------------------------------------------

  ==> Geometry <==

    Molecular point group: c2h
    Full point group: C2h

    Geometry (in Angstrom), charge = 0, multiplicity = 1:

       Center              X                  Y                   Z               Mass       
    ------------   -----------------  -----------------  -----------------  -----------------
         C           -1.222032477591    -0.693313109608     0.000000000000    12.000000000000
         C           -1.211176745353     0.711157426160     0.000000000000    12.000000000000
         C           -0.010297435136    -1.404520535769     0.000000000000    12.000000000000
         C            0.010297435136     1.404520535769     0.000000000000    12.000000000000
         C            1.211176745353    -0.711157426160     0.000000000000    12.000000000000
         C            1.222032477591     0.693313109608     0.000000000000    12.000000000000
         H           -2.173046280225    -1.233432274252     0.000000000000     1.007825032230
         H           -2.154705373579     1.265218680005     0.000000000000     1.007825032230
         H           -0.018350906646    -2.498650954774     0.000000000000     1.007825032230
         H            0.018350906646     2.498650954774     0.000000000000     1.007825032230
         H            2.154705373579    -1.265218680005     0.000000000000     1.007825032230
         H            2.173046280225     1.233432274252     0.000000000000     1.007825032230

  Nuclear repulsion =  201.998047561272216

  ==> Basis Set <==

  Basis Set: 6-31+G*
    Blend: 6-31+G*
    Number of shells: 60
    Number of basis function: 126
    Number of Cartesian functions: 126
    Spherical Harmonics?: false
    Max angular momentum: 2

  ==> DFJKGrad: Density-Fitted SCF Gradients <==

    Gradient:                    1
    J tasked:                  Yes
    K tasked:                  Yes
    wK tasked:                  No
    OpenMP threads:              1
    Integrals threads:           1
    Memory [MiB]:              375
    Schwarz Cutoff:          0E+00
    Fitting Condition:       1E-10

   => Auxiliary Basis Set <=

  Basis Set: (6-31+G* AUX)
    Blend: HEAVY-AUG-CC-PVDZ-JKFIT
    Number of shells: 222
    Number of basis function: 756
    Number of Cartesian functions: 756
    Spherical Harmonics?: false
    Max angular momentum: 3

  ==> DFT Potential <==

   => Composite Functional: M06-2X <= 

    Hybrid M06-2X Meta-GGA XC Functional

    Y. Zhao and D. G. Truhlar,  Theor. Chem. Acc., 120, 215, 2008


    Deriv               =              1
    GGA                 =           TRUE
    Meta                =           TRUE

    Exchange Hybrid     =           TRUE
    MP2 Hybrid          =          FALSE

   => Exchange Functionals <=

    1.0000   XC_HYB_MGGA_X_M06_2X

   => Exact (HF) Exchange <=

    0.5400               HF 

   => Correlation Functionals <=

    1.0000   XC_MGGA_C_M06_2X

   => Molecular Quadrature <=

    Radial Scheme          =       TREUTLER
    Pruning Scheme         =           FLAT
    Nuclear Scheme         =       TREUTLER

    BS radius alpha        =              1
    Pruning alpha          =              1
    Radial Points          =             75
    Spherical Points       =            302
    Total Points           =         271800
    Total Blocks           =           2142
    Max Points             =            256
    Max Functions          =            126


  -Total Gradient:
     Atom            X                  Y                   Z
    ------   -----------------  -----------------  -----------------
       1       -0.004440406033    -0.002099302252     0.000000000000
       2       -0.003603392473     0.002142579697     0.000000000000
       3        0.000247642319    -0.004427918955     0.000000000000
       4       -0.000247642319     0.004427918955     0.000000000000
       5        0.003603392473    -0.002142579697     0.000000000000
       6        0.004440406033     0.002099302252     0.000000000000
       7       -0.004620656640    -0.002633140598     0.000000000000
       8       -0.004807730931     0.002798213509     0.000000000000
       9       -0.000063477347    -0.005618868874     0.000000000000
      10        0.000063477347     0.005618868874     0.000000000000
      11        0.004807730931    -0.002798213509     0.000000000000
      12        0.004620656640     0.002633140598     0.000000000000


*** tstop() called on atlantis at Wed Apr 20 03:00:31 2022
Module time:
	user time   =       4.25 seconds =       0.07 minutes
	system time =       0.05 seconds =       0.00 minutes
	total time  =          4 seconds =       0.07 minutes
Total time:
	user time   =      96.30 seconds =       1.60 minutes
	system time =       0.53 seconds =       0.01 minutes
	total time  =         97 seconds =       1.62 minutes

  //>>>>>>>>>>>>>>>>>>>>>>>>>>>>>>>>>>>//
  //    Loading displacement 3 of 42   //
  //<<<<<<<<<<<<<<<<<<<<<<<<<<<<<<<<<<<//
gradient() will perform analytic gradient computation.

*** tstart() called on atlantis
*** at Wed Apr 20 03:00:31 2022

   => Loading Basis Set <=

    Name: 6-31+G*
    Role: ORBITAL
    Keyword: BASIS
    atoms 1-6  entry C          line   119 file /home/akrom/software/anaconda3/envs/ffpenv/share/psi4/basis/6-31pgs.gbs 
    atoms 7-12 entry H          line    46 file /home/akrom/software/anaconda3/envs/ffpenv/share/psi4/basis/6-31pgs.gbs 


         ---------------------------------------------------------
                                   SCF
               by Justin Turney, Rob Parrish, Andy Simmonett
                          and Daniel G. A. Smith
                              RKS Reference
                        1 Threads,    500 MiB Core
         ---------------------------------------------------------

  ==> Geometry <==

    Molecular point group: c2h
    Full point group: C2h

    Geometry (in Angstrom), charge = 0, multiplicity = 1:

       Center              X                  Y                   Z               Mass       
    ------------   -----------------  -----------------  -----------------  -----------------
         C           -1.220987522409    -0.693186890392     0.000000000000    12.000000000000
         C           -1.211103254647     0.711282573840     0.000000000000    12.000000000000
         C           -0.010442564864    -1.404519464231     0.000000000000    12.000000000000
         C            0.010442564864     1.404519464231     0.000000000000    12.000000000000
         C            1.211103254647    -0.711282573840     0.000000000000    12.000000000000
         C            1.220987522409     0.693186890392     0.000000000000    12.000000000000
         H           -2.173173719775    -1.233207725748     0.000000000000     1.007825032230
         H           -2.154574626421     1.265441319995     0.000000000000     1.007825032230
         H           -0.018609093354    -2.498649045226     0.000000000000     1.007825032230
         H            0.018609093354     2.498649045226     0.000000000000     1.007825032230
         H            2.154574626421    -1.265441319995     0.000000000000     1.007825032230
         H            2.173173719775     1.233207725748     0.000000000000     1.007825032230

  Running in c2h symmetry.

  Rotational constants: A =      0.18760  B =      0.18752  C =      0.09378 [cm^-1]
  Rotational constants: A =   5624.12726  B =   5621.66993  C =   2811.44916 [MHz]
  Nuclear repulsion =  202.028576396706484

  Charge       = 0
  Multiplicity = 1
  Electrons    = 42
  Nalpha       = 21
  Nbeta        = 21

  ==> Algorithm <==

  SCF Algorithm Type is DF.
  DIIS enabled.
  MOM disabled.
  Fractional occupation disabled.
  Guess Type is SAD.
  Energy threshold   = 1.00e-08
  Density threshold  = 1.00e-08
  Integral threshold = 0.00e+00

  ==> Primary Basis <==

  Basis Set: 6-31+G*
    Blend: 6-31+G*
    Number of shells: 60
    Number of basis function: 126
    Number of Cartesian functions: 126
    Spherical Harmonics?: false
    Max angular momentum: 2

  ==> DFT Potential <==

   => Composite Functional: M06-2X <= 

    Hybrid M06-2X Meta-GGA XC Functional

    Y. Zhao and D. G. Truhlar,  Theor. Chem. Acc., 120, 215, 2008


    Deriv               =              1
    GGA                 =           TRUE
    Meta                =           TRUE

    Exchange Hybrid     =           TRUE
    MP2 Hybrid          =          FALSE

   => Exchange Functionals <=

    1.0000   XC_HYB_MGGA_X_M06_2X

   => Exact (HF) Exchange <=

    0.5400               HF 

   => Correlation Functionals <=

    1.0000   XC_MGGA_C_M06_2X

   => Molecular Quadrature <=

    Radial Scheme          =       TREUTLER
    Pruning Scheme         =           FLAT
    Nuclear Scheme         =       TREUTLER

    BS radius alpha        =              1
    Pruning alpha          =              1
    Radial Points          =             75
    Spherical Points       =            302
    Total Points           =         271800
    Total Blocks           =           2140
    Max Points             =            256
    Max Functions          =            126

   => Loading Basis Set <=

    Name: (6-31+G* AUX)
    Role: JKFIT
    Keyword: DF_BASIS_SCF
    atoms 1-6  entry C          line   194 file /home/akrom/software/anaconda3/envs/ffpenv/share/psi4/basis/heavy-aug-cc-pvdz-jkfit.gbs 
    atoms 7-12 entry H          line   116 file /home/akrom/software/anaconda3/envs/ffpenv/share/psi4/basis/heavy-aug-cc-pvdz-jkfit.gbs 

  ==> Pre-Iterations <==

   -------------------------------------------------------
    Irrep   Nso     Nmo     Nalpha   Nbeta   Ndocc  Nsocc
   -------------------------------------------------------
     Ag        48      48       0       0       0       0
     Bg        15      15       0       0       0       0
     Au        15      15       0       0       0       0
     Bu        48      48       0       0       0       0
   -------------------------------------------------------
    Total     126     126      21      21      21       0
   -------------------------------------------------------

  ==> Integral Setup <==

  DFHelper Memory: AOs need 0.097 GiB; user supplied 0.097 GiB. Using in-core AOs.

  ==> MemDFJK: Density-Fitted J/K Matrices <==

    J tasked:                   Yes
    K tasked:                   Yes
    wK tasked:                   No
    OpenMP threads:               1
    Memory [MiB]:                99
    Algorithm:                 Core
    Schwarz Cutoff:           1E-12
    Mask sparsity (%):       0.2268
    Fitting Condition:        1E-10

   => Auxiliary Basis Set <=

  Basis Set: (6-31+G* AUX)
    Blend: HEAVY-AUG-CC-PVDZ-JKFIT
    Number of shells: 222
    Number of basis function: 756
    Number of Cartesian functions: 756
    Spherical Harmonics?: false
    Max angular momentum: 3

  Cached 14.3% of DFT collocation blocks in 0.286 [GiB].

  Minimum eigenvalue in the overlap matrix is 6.7904437937E-06.
  Using Symmetric Orthogonalization.

  SCF Guess: Superposition of Atomic Densities via on-the-fly atomic UHF.

  ==> Iterations <==

                           Total Energy        Delta E     RMS |[F,P]|

   @DF-RKS iter SAD:  -231.52430353918504   -2.31524e+02   0.00000e+00 
   @DF-RKS iter   1:  -231.79256381575001   -2.68260e-01   1.10729e-02 DIIS
   @DF-RKS iter   2:  -231.85645153183606   -6.38877e-02   1.01872e-02 DIIS
   @DF-RKS iter   3:  -232.14288544871005   -2.86434e-01   5.16888e-04 DIIS
   @DF-RKS iter   4:  -232.14354516979355   -6.59721e-04   8.47283e-05 DIIS
   @DF-RKS iter   5:  -232.14356861399051   -2.34442e-05   1.00726e-05 DIIS
   @DF-RKS iter   6:  -232.14356900981363   -3.95823e-07   1.75476e-06 DIIS
   @DF-RKS iter   7:  -232.14356901490362   -5.08999e-09   1.48230e-06 DIIS
   @DF-RKS iter   8:  -232.14356902032185   -5.41823e-09   5.57935e-08 DIIS
   @DF-RKS iter   9:  -232.14356902033722   -1.53761e-11   3.24134e-09 DIIS
  Energy and wave function converged.


  ==> Post-Iterations <==

    Orbital Energies [Eh]
    ---------------------

    Doubly Occupied:                                                      

       1Ag   -10.560930     1Bu   -10.560600     2Bu   -10.560577  
       2Ag   -10.559862     3Ag   -10.559838     3Bu   -10.559498  
       4Ag    -0.955546     4Bu    -0.841334     5Bu    -0.841216  
       5Ag    -0.685183     6Ag    -0.685053     7Ag    -0.597647  
       6Bu    -0.535969     7Bu    -0.509786     8Bu    -0.488383  
       9Bu    -0.488226     1Au    -0.434688     8Ag    -0.404285  
       9Ag    -0.404030     1Bg    -0.306291     2Bg    -0.306190  

    Virtual:                                                              

       2Au     0.017778     3Au     0.017917    10Ag     0.028918  
      10Bu     0.037144    11Bu     0.037153    11Ag     0.051639  
      12Ag     0.051641     4Au     0.080091    12Bu     0.082419  
      13Ag     0.101997     3Bg     0.103748     4Bg     0.103767  
      13Bu     0.106839     5Bg     0.147999    14Ag     0.148626  
      15Ag     0.148637     5Au     0.150577     6Au     0.150617  
      14Bu     0.176895    15Bu     0.176912    16Bu     0.197282  
      17Bu     0.197299    16Ag     0.218826    17Ag     0.225925  
      18Ag     0.225934     6Bg     0.233705    19Ag     0.256012  
      18Bu     0.257930    19Bu     0.272347    20Bu     0.272448  
      20Ag     0.312627    21Ag     0.312723    21Bu     0.345641  
      22Bu     0.383390    23Bu     0.383646    22Ag     0.387224  
      23Ag     0.387359    24Ag     0.613225    24Bu     0.614351  
      25Bu     0.648662    25Ag     0.660869     7Au     0.707186  
      26Ag     0.766649    27Ag     0.766854     7Bg     0.767622  
       8Bg     0.767672     8Au     0.797911     9Au     0.797928  
      26Bu     0.817301    27Bu     0.817411     9Bg     0.854212  
      28Ag     0.865920    28Bu     0.961994    29Ag     0.993566  
      30Ag     0.993847    29Bu     1.018056    30Bu     1.018275  
      31Ag     1.027682    32Ag     1.083883    31Bu     1.116965  
      32Bu     1.117061    33Bu     1.174749    34Bu     1.174921  
      33Ag     1.204465    34Ag     1.204524    10Bg     1.307207  
      35Bu     1.341267    10Au     1.446222    35Ag     1.467670  
      36Ag     1.467976    11Au     1.532062    12Au     1.532365  
      11Bg     1.559153    12Bg     1.559383    37Ag     1.785698  
      36Bu     1.855846    37Bu     1.923921    38Ag     1.931151  
      38Bu     2.038598    39Bu     2.039132    39Ag     2.135679  
      40Ag     2.135860    13Au     2.185233    14Au     2.185586  
      40Bu     2.186205    41Bu     2.186544    13Bg     2.326034  
      14Bg     2.326660    15Bg     2.353326    41Ag     2.593567  
      42Ag     2.593846    15Au     2.653758    43Ag     2.718333  
      44Ag     2.718948    42Bu     2.748522    43Bu     2.749033  
      44Bu     2.844788    45Ag     3.032368    45Bu     3.384451  
      46Ag     4.239230    46Bu     4.268275    47Bu     4.268461  
      47Ag     4.405784    48Ag     4.405856    48Bu     4.699927  

    Final Occupation by Irrep:
             Ag    Bg    Au    Bu 
    DOCC [     9,    2,    1,    9 ]

  @DF-RKS Final Energy:  -232.14356902033722

   => Energetics <=

    Nuclear Repulsion Energy =            202.0285763967064838
    One-Electron Energy =                -710.9100365987444547
    Two-Electron Energy =                 293.4260919287282263
    DFT Exchange-Correlation Energy =     -16.6882007470275084
    Empirical Dispersion Energy =           0.0000000000000000
    VV10 Nonlocal Energy =                  0.0000000000000000
    Total Energy =                       -232.1435690203372246

Computation Completed


Properties will be evaluated at   0.000000,   0.000000,   0.000000 [a0]

Properties computed using the SCF density matrix

  Nuclear Dipole Moment: [e a0]
     X:     0.0000      Y:     0.0000      Z:     0.0000

  Electronic Dipole Moment: [e a0]
     X:     0.0000      Y:     0.0000      Z:     0.0000

  Dipole Moment: [e a0]
     X:     0.0000      Y:     0.0000      Z:     0.0000     Total:     0.0000

  Dipole Moment: [D]
     X:     0.0000      Y:     0.0000      Z:     0.0000     Total:     0.0000


*** tstop() called on atlantis at Wed Apr 20 03:00:53 2022
Module time:
	user time   =      22.35 seconds =       0.37 minutes
	system time =       0.08 seconds =       0.00 minutes
	total time  =         22 seconds =       0.37 minutes
Total time:
	user time   =     118.65 seconds =       1.98 minutes
	system time =       0.61 seconds =       0.01 minutes
	total time  =        119 seconds =       1.98 minutes

*** tstart() called on atlantis
*** at Wed Apr 20 03:00:53 2022


         ------------------------------------------------------------
                                   SCF GRAD                          
                          Rob Parrish, Justin Turney,                
                       Andy Simmonett, and Alex Sokolov              
         ------------------------------------------------------------

  ==> Geometry <==

    Molecular point group: c2h
    Full point group: C2h

    Geometry (in Angstrom), charge = 0, multiplicity = 1:

       Center              X                  Y                   Z               Mass       
    ------------   -----------------  -----------------  -----------------  -----------------
         C           -1.220987522409    -0.693186890392     0.000000000000    12.000000000000
         C           -1.211103254647     0.711282573840     0.000000000000    12.000000000000
         C           -0.010442564864    -1.404519464231     0.000000000000    12.000000000000
         C            0.010442564864     1.404519464231     0.000000000000    12.000000000000
         C            1.211103254647    -0.711282573840     0.000000000000    12.000000000000
         C            1.220987522409     0.693186890392     0.000000000000    12.000000000000
         H           -2.173173719775    -1.233207725748     0.000000000000     1.007825032230
         H           -2.154574626421     1.265441319995     0.000000000000     1.007825032230
         H           -0.018609093354    -2.498649045226     0.000000000000     1.007825032230
         H            0.018609093354     2.498649045226     0.000000000000     1.007825032230
         H            2.154574626421    -1.265441319995     0.000000000000     1.007825032230
         H            2.173173719775     1.233207725748     0.000000000000     1.007825032230

  Nuclear repulsion =  202.028576396706484

  ==> Basis Set <==

  Basis Set: 6-31+G*
    Blend: 6-31+G*
    Number of shells: 60
    Number of basis function: 126
    Number of Cartesian functions: 126
    Spherical Harmonics?: false
    Max angular momentum: 2

  ==> DFJKGrad: Density-Fitted SCF Gradients <==

    Gradient:                    1
    J tasked:                  Yes
    K tasked:                  Yes
    wK tasked:                  No
    OpenMP threads:              1
    Integrals threads:           1
    Memory [MiB]:              375
    Schwarz Cutoff:          0E+00
    Fitting Condition:       1E-10

[...]
      5   C                0.17  0.06 -0.00   -0.00  0.00  0.20    0.00  0.00 -0.03   
      6   C                0.26  0.02 -0.00   -0.00  0.00 -0.20    0.00  0.00 -0.03   
      7   H               -0.08 -0.33  0.00   -0.00 -0.00  0.36    0.00 -0.00  0.41   
      8   H               -0.02  0.22 -0.00    0.00 -0.00 -0.35   -0.00  0.00  0.41   
      9   H                0.01  0.34  0.00    0.00 -0.00 -0.36   -0.00 -0.00  0.41   
     10   H               -0.01 -0.34 -0.00   -0.00  0.00  0.36    0.00 -0.00  0.41   
     11   H                0.02 -0.22 -0.00   -0.00  0.00  0.35    0.00 -0.00  0.41   
     12   H                0.08  0.33 -0.00    0.00 -0.00 -0.36   -0.00  0.00  0.41   

  Vibration                       13                  14                  15          
  Freq [cm^-1]                 905.9348            908.1737           1003.6904       
  Irrep                           Bg                  Bg                  Ag          
  Reduced mass [u]              1.2479              1.2479              4.1317        
  Force const [mDyne/A]         0.6034              0.6064              2.4523        
  Turning point v=0 [a0]        0.3263              0.3259              0.1704        
  RMS dev v=0 [a0 u^1/2]        0.2578              0.2575              0.2449        
  Char temp [K]               1303.4385           1306.6598           1444.0870       
  ----------------------------------------------------------------------------------
      1   C                0.00 -0.00 -0.07    0.00  0.00 -0.05    0.16  0.15 -0.00   
      2   C               -0.00  0.00  0.00   -0.00  0.00 -0.08    0.17 -0.11 -0.00   
      3   C               -0.00 -0.00 -0.08    0.00 -0.00  0.04    0.04  0.23 -0.00   
      4   C                0.00 -0.00  0.08    0.00 -0.00 -0.04   -0.04 -0.23  0.00   
      5   C               -0.00  0.00 -0.00    0.00 -0.00  0.08   -0.17  0.11  0.00   
      6   C                0.00 -0.00  0.07    0.00  0.00  0.05   -0.16 -0.15 -0.00   
      7   H                0.00 -0.00  0.48    0.00  0.00  0.31    0.05  0.40  0.00   
      8   H               -0.00 -0.00 -0.02   -0.00  0.00  0.57    0.16 -0.17  0.00   
      9   H                0.00 -0.00  0.50   -0.00 -0.00 -0.27    0.29  0.24  0.00   
     10   H                0.00 -0.00 -0.50    0.00 -0.00  0.27   -0.29 -0.24 -0.00   
     11   H                0.00  0.00  0.02   -0.00 -0.00 -0.57   -0.16  0.17 -0.00   
     12   H               -0.00  0.00 -0.48   -0.00  0.00 -0.31   -0.05 -0.40  0.00   

  Vibration                       16                  17                  18          
  Freq [cm^-1]                1009.3666           1023.1745           1025.0464       
  Irrep                           Bu                  Au                  Au          
  Reduced mass [u]              6.5263              1.3571              1.3530        
  Force const [mDyne/A]         3.9176              0.8371              0.8376        
  Turning point v=0 [a0]        0.1352              0.2945              0.2946        
  RMS dev v=0 [a0 u^1/2]        0.2442              0.2426              0.2423        
  Char temp [K]               1452.2539           1472.1202           1474.8135       
  ----------------------------------------------------------------------------------
      1   C               -0.25 -0.14 -0.00    0.00 -0.00  0.09    0.00  0.00  0.06   
      2   C                0.25 -0.15 -0.00    0.00  0.00  0.01    0.00 -0.00 -0.10   
      3   C                0.00  0.29 -0.00   -0.00 -0.00 -0.09   -0.00 -0.00  0.05   
      4   C                0.00  0.29  0.00    0.00 -0.00 -0.09   -0.00 -0.00  0.05   
      5   C                0.25 -0.15  0.00   -0.00  0.00  0.01    0.00 -0.00 -0.10   
      6   C               -0.25 -0.14  0.00   -0.00 -0.00  0.09   -0.00  0.00  0.06   
      7   H               -0.25 -0.14  0.00    0.00 -0.00 -0.48    0.00  0.00 -0.31   
      8   H                0.25 -0.15  0.00    0.00 -0.00 -0.03   -0.00 -0.00  0.57   
      9   H               -0.00  0.29  0.00    0.00 -0.00  0.51   -0.00 -0.00 -0.25   
     10   H               -0.00  0.29 -0.00    0.00 -0.00  0.51    0.00 -0.00 -0.25   
     11   H                0.25 -0.15 -0.00    0.00  0.00 -0.03    0.00  0.00  0.57   
     12   H               -0.25 -0.14 -0.00   -0.00  0.00 -0.48   -0.00  0.00 -0.31   

  Vibration                       19                  20                  21          
  Freq [cm^-1]                1052.4752           1064.6874           1064.9558       
  Irrep                           Bg                  Bu                  Bu          
  Reduced mass [u]              1.2434              1.7286              1.7321        
  Force const [mDyne/A]         0.8115              1.1545              1.1574        
  Turning point v=0 [a0]        0.3033              0.2558              0.2555        
  RMS dev v=0 [a0 u^1/2]        0.2392              0.2378              0.2378        
  Char temp [K]               1514.2774           1531.8481           1532.2343       
  ----------------------------------------------------------------------------------
      1   C                0.00 -0.00 -0.06   -0.07 -0.09  0.00    0.09 -0.04  0.00   
      2   C               -0.00  0.00  0.06   -0.07  0.09 -0.00   -0.09 -0.03 -0.00   
      3   C                0.00  0.00  0.06    0.09 -0.00  0.00    0.00  0.12 -0.00   
      4   C                0.00  0.00 -0.06    0.09 -0.00  0.00    0.00  0.12  0.00   
      5   C               -0.00  0.00 -0.06   -0.07  0.09  0.00   -0.09 -0.03  0.00   
      6   C               -0.00 -0.00  0.06   -0.07 -0.09 -0.00    0.09 -0.04  0.00   
      7   H                0.00 -0.00  0.40    0.03 -0.28 -0.00    0.29 -0.38 -0.00   
      8   H               -0.00 -0.00 -0.41    0.05  0.30  0.00   -0.29 -0.36  0.00   
      9   H                0.00  0.00 -0.40    0.54 -0.01 -0.00    0.02  0.13  0.00   
     10   H                0.00  0.00  0.40    0.54 -0.01 -0.00    0.02  0.13 -0.00   
     11   H               -0.00 -0.00  0.41    0.05  0.30 -0.00   -0.29 -0.36 -0.00   
     12   H                0.00 -0.00 -0.40    0.03 -0.28  0.00    0.29 -0.38 -0.00   

  Vibration                       22                  23                  24          
  Freq [cm^-1]                1102.8975           1167.2346           1244.7937       
  Irrep                           Ag                  Bu                  Ag          
  Reduced mass [u]              1.3141              1.2777              1.1472        
  Force const [mDyne/A]         0.9418              1.0256              1.0473        
  Turning point v=0 [a0]        0.2882              0.2841              0.2904        
  RMS dev v=0 [a0 u^1/2]        0.2336              0.2271              0.2199        
  Char temp [K]               1586.8240           1679.3907           1790.9809       
  ----------------------------------------------------------------------------------
      1   C               -0.07  0.02  0.00   -0.03  0.06  0.00    0.01 -0.03  0.00   
      2   C               -0.05 -0.02 -0.00   -0.03 -0.06 -0.00    0.03  0.03 -0.00   
      3   C                0.07 -0.04 -0.00    0.06 -0.00 -0.00    0.05  0.00 -0.00   
      4   C               -0.07  0.04  0.00    0.06 -0.00  0.00   -0.05 -0.00  0.00   
      5   C                0.05  0.02 -0.00   -0.03 -0.06  0.00   -0.03 -0.03 -0.00   
      6   C                0.07 -0.02  0.00   -0.03  0.06 -0.00   -0.01  0.03  0.00   
      7   H               -0.36  0.53  0.00   -0.20  0.35 -0.00    0.06 -0.11  0.00   
      8   H               -0.02  0.03  0.00   -0.20 -0.35  0.00    0.34  0.56  0.00   
      9   H                0.27 -0.04  0.00    0.40 -0.00  0.00    0.23  0.00  0.00   
     10   H               -0.27  0.04 -0.00    0.40 -0.00  0.00   -0.23 -0.00 -0.00   
     11   H                0.02 -0.03  0.00   -0.20 -0.35 -0.00   -0.34 -0.56  0.00   
     12   H                0.36 -0.53 -0.00   -0.20  0.35  0.00   -0.06  0.11 -0.00   

  Vibration                       25                  26                  27          
  Freq [cm^-1]                1306.4829           1322.9446           1520.1374       
  Irrep                           Bu                  Ag                  Bu          
  Reduced mass [u]              3.4142              1.2964              1.9765        
  Force const [mDyne/A]         3.4336              1.3368              2.6910        
  Turning point v=0 [a0]        0.1643              0.2650              0.2002        
  RMS dev v=0 [a0 u^1/2]        0.2147              0.2133              0.1990        
  Char temp [K]               1879.7379           1903.4227           2187.1392       
  ----------------------------------------------------------------------------------
      1   C               -0.09  0.17  0.00   -0.04  0.07  0.00    0.02  0.11 -0.00   
      2   C               -0.10 -0.16 -0.00    0.00  0.08  0.00    0.04 -0.09  0.00   
      3   C                0.19 -0.00 -0.00   -0.02 -0.02  0.00   -0.14 -0.01 -0.00   
      4   C                0.19 -0.00  0.00    0.02  0.02 -0.00   -0.14 -0.01  0.00   
      5   C               -0.10 -0.16 -0.00   -0.00 -0.08  0.00    0.04 -0.09  0.00   
      6   C               -0.09  0.17  0.00    0.04 -0.07 -0.00    0.02  0.11  0.00   
      7   H                0.18 -0.31  0.00    0.14 -0.25 -0.00    0.24 -0.24  0.00   
      8   H                0.18  0.31  0.00   -0.15 -0.19 -0.00    0.19  0.13 -0.00   
      9   H               -0.36  0.00  0.00    0.59 -0.02 -0.00    0.53 -0.02  0.00   
     10   H               -0.36  0.00 -0.00   -0.59  0.02  0.00    0.53 -0.02 -0.00   
     11   H                0.18  0.31  0.00    0.15  0.19 -0.00    0.19  0.13 -0.00   
     12   H                0.18 -0.31 -0.00   -0.14  0.25  0.00    0.24 -0.24 -0.00   

  Vibration                       28                  29                  30          
  Freq [cm^-1]                1520.1978           1640.5993           1666.0114       
  Irrep                           Bu                  Ag                  Ag          
  Reduced mass [u]              1.9715              5.1600              4.1807        
  Force const [mDyne/A]         2.6844              8.1829              6.8368        
  Turning point v=0 [a0]        0.2004              0.1193              0.1315        
  RMS dev v=0 [a0 u^1/2]        0.1990              0.1916              0.1901        
  Char temp [K]               2187.2262           2360.4571           2397.0195       
  ----------------------------------------------------------------------------------
      1   C                0.10 -0.07  0.00   -0.04 -0.20 -0.00   -0.17  0.18 -0.00   
      2   C               -0.10 -0.10 -0.00    0.16  0.28 -0.00    0.11 -0.07 -0.00   
      3   C               -0.02  0.09 -0.00    0.16  0.13  0.00    0.24 -0.06 -0.00   
      4   C               -0.02  0.09  0.00   -0.16 -0.13 -0.00   -0.24  0.06  0.00   
      5   C               -0.10 -0.10 -0.00   -0.16 -0.28 -0.00   -0.11  0.07  0.00   
      6   C                0.10 -0.07 -0.00    0.04  0.20 -0.00    0.17 -0.18 -0.00   
      7   H               -0.15  0.41 -0.00   -0.23  0.12  0.00    0.12 -0.37  0.00   
      8   H                0.22  0.45  0.00   -0.22 -0.38  0.00    0.12 -0.10  0.00   
      9   H                0.07  0.11  0.00   -0.17  0.14 -0.00   -0.42 -0.07  0.00   
     10   H                0.07  0.11  0.00    0.17 -0.14  0.00    0.42  0.07 -0.00   
     11   H                0.22  0.45  0.00    0.22  0.38  0.00   -0.12  0.10 -0.00   
     12   H               -0.15  0.41  0.00    0.23 -0.12  0.00   -0.12  0.37 -0.00   

  Vibration                       31                  32                  33          
  Freq [cm^-1]                3141.1027           3143.3386           3152.1770       
  Irrep                           Bu                  Ag                  Ag          
  Reduced mass [u]              1.0842              1.0903              1.0872        
  Force const [mDyne/A]         6.3026              6.3474              6.3648        
  Turning point v=0 [a0]        0.1880              0.1874              0.1874        
  RMS dev v=0 [a0 u^1/2]        0.1384              0.1384              0.1382        
  Char temp [K]               4519.3475           4522.5643           4535.2809       
  ----------------------------------------------------------------------------------
      1   C                0.03  0.02 -0.00    0.01  0.00 -0.00   -0.05 -0.03 -0.00   
      2   C               -0.03  0.02 -0.00   -0.04  0.02 -0.00    0.01 -0.00  0.00   
      3   C               -0.00 -0.03 -0.00   -0.00  0.04  0.00    0.00  0.03  0.00   
      4   C               -0.00 -0.03 -0.00    0.00 -0.04  0.00   -0.00 -0.03  0.00   
      5   C               -0.03  0.02  0.00    0.04 -0.02 -0.00   -0.01  0.00 -0.00   
      6   C                0.03  0.02  0.00   -0.01 -0.00 -0.00    0.05  0.03 -0.00   
      7   H               -0.36 -0.20  0.00   -0.11 -0.06  0.00    0.53  0.30  0.00   
      8   H                0.35 -0.20  0.00    0.46 -0.27 -0.00   -0.11  0.06  0.00   
      9   H                0.00  0.41  0.00   -0.00 -0.44 -0.00   -0.00 -0.33  0.00   
     10   H                0.00  0.41  0.00    0.00  0.44 -0.00    0.00  0.33 -0.00   
     11   H                0.35 -0.20 -0.00   -0.46  0.27  0.00    0.11 -0.06 -0.00   
     12   H               -0.36 -0.20 -0.00    0.11  0.06  0.00   -0.53 -0.30  0.00   

  Vibration                       34                  35                  36          
  Freq [cm^-1]                3164.7714           3164.9589           3175.8506       
  Irrep                           Bu                  Bu                  Ag          
  Reduced mass [u]              1.0954              1.0954              1.0977        
  Force const [mDyne/A]         6.4644              6.4650              6.5232        
  Turning point v=0 [a0]        0.1864              0.1864              0.1858        
  RMS dev v=0 [a0 u^1/2]        0.1379              0.1379              0.1377        
  Char temp [K]               4553.4015           4553.6712           4569.3419       
  ----------------------------------------------------------------------------------
      1   C               -0.02 -0.01  0.00   -0.04 -0.02 -0.00   -0.03 -0.01 -0.00   
      2   C                0.03 -0.01  0.00   -0.03  0.02 -0.00   -0.03  0.02  0.00   
      3   C               -0.00 -0.05 -0.00    0.00 -0.01 -0.00   -0.00 -0.04 -0.00   
      4   C               -0.00 -0.05 -0.00    0.00 -0.01 -0.00    0.00  0.04  0.00   
      5   C                0.03 -0.01 -0.00   -0.03  0.02  0.00    0.03 -0.02 -0.00   
      6   C               -0.02 -0.01  0.00   -0.04 -0.02 -0.00    0.03  0.01 -0.00   
      7   H                0.17  0.09  0.00    0.47  0.27 -0.00    0.28  0.16  0.00   
      8   H               -0.32  0.19 -0.00    0.38 -0.23  0.00    0.38 -0.22  0.00   
      9   H                0.01  0.57  0.00   -0.00  0.11 -0.00   -0.00  0.44  0.00   
     10   H                0.01  0.57 -0.00   -0.00  0.11  0.00    0.00 -0.44 -0.00   
     11   H               -0.32  0.19  0.00    0.38 -0.23 -0.00   -0.38  0.22  0.00   
     12   H                0.17  0.09 -0.00    0.47  0.27  0.00   -0.28 -0.16  0.00   

  ==> Thermochemistry Components <==

  Entropy, S
    Electronic S            0.000 [cal/(mol K)]        0.000 [J/(mol K)]       0.00000000 [mEh/K] (multiplicity = 1)
    Translational S        38.979 [cal/(mol K)]      163.089 [J/(mol K)]       0.06211726 [mEh/K] (mol. weight = 78.0470 [u], P = 101325.00 [Pa])
    Rotational S           24.318 [cal/(mol K)]      101.746 [J/(mol K)]       0.03875307 [mEh/K] (symmetry no. = 2)
    Vibrational S           4.235 [cal/(mol K)]       17.718 [J/(mol K)]       0.00674853 [mEh/K]
  Total S                  67.532 [cal/(mol K)]      282.553 [J/(mol K)]       0.10761887 [mEh/K]
  Correction S              0.000 [cal/(mol K)]        0.000 [J/(mol K)]       0.00000000 [mEh/K]

  Constant volume heat capacity, Cv
    Electronic Cv           0.000 [cal/(mol K)]        0.000 [J/(mol K)]       0.00000000 [mEh/K]
    Translational Cv        2.981 [cal/(mol K)]       12.472 [J/(mol K)]       0.00475022 [mEh/K]
    Rotational Cv           2.981 [cal/(mol K)]       12.472 [J/(mol K)]       0.00475022 [mEh/K]
    Vibrational Cv         10.988 [cal/(mol K)]       45.974 [J/(mol K)]       0.01751068 [mEh/K]
  Total Cv                 16.950 [cal/(mol K)]       70.918 [J/(mol K)]       0.02701112 [mEh/K]
  Correction Cv             0.000 [cal/(mol K)]        0.000 [J/(mol K)]       0.00000000 [mEh/K]

  Constant pressure heat capacity, Cp
    Electronic Cp           0.000 [cal/(mol K)]        0.000 [J/(mol K)]       0.00000000 [mEh/K]
    Translational Cp        4.968 [cal/(mol K)]       20.786 [J/(mol K)]       0.00791703 [mEh/K]
    Rotational Cp           2.981 [cal/(mol K)]       12.472 [J/(mol K)]       0.00475022 [mEh/K]
    Vibrational Cp         10.988 [cal/(mol K)]       45.974 [J/(mol K)]       0.01751068 [mEh/K]
  Total Cp                 18.937 [cal/(mol K)]       79.232 [J/(mol K)]       0.03017793 [mEh/K]
  Correction Cp             0.000 [cal/(mol K)]        0.000 [J/(mol K)]       0.00000000 [mEh/K]

  ==> Thermochemistry Energy Analysis <==

  Raw electronic energy, E0
  Total E0, Electronic energy at well bottom at 0 [K]                 -232.14342145 [Eh]

  Zero-point energy, ZPE_vib = Sum_i nu_i / 2
    Electronic ZPE          0.000 [kcal/mol]        0.000 [kJ/mol]       0.00000000 [Eh]
    Translational ZPE       0.000 [kcal/mol]        0.000 [kJ/mol]       0.00000000 [Eh]
    Rotational ZPE          0.000 [kcal/mol]        0.000 [kJ/mol]       0.00000000 [Eh]
    Vibrational ZPE        62.912 [kcal/mol]      263.224 [kJ/mol]       0.10025659 [Eh]       22003.779 [cm^-1]
  Correction ZPE           62.912 [kcal/mol]      263.224 [kJ/mol]       0.10025659 [Eh]       22003.779 [cm^-1]
  Total ZPE, Electronic energy at 0 [K]                               -232.04316486 [Eh]

  Thermal Energy, E (includes ZPE)
    Electronic E            0.000 [kcal/mol]        0.000 [kJ/mol]       0.00000000 [Eh]
    Translational E         0.889 [kcal/mol]        3.718 [kJ/mol]       0.00141628 [Eh]
    Rotational E            0.889 [kcal/mol]        3.718 [kJ/mol]       0.00141628 [Eh]
    Vibrational E          63.860 [kcal/mol]      267.189 [kJ/mol]       0.10176685 [Eh]
  Correction E             65.637 [kcal/mol]      274.626 [kJ/mol]       0.10459940 [Eh]
  Total E, Electronic energy at  298.15 [K]                           -232.03882205 [Eh]

  Enthalpy, H_trans = E_trans + k_B * T
    Electronic H            0.000 [kcal/mol]        0.000 [kJ/mol]       0.00000000 [Eh]
    Translational H         1.481 [kcal/mol]        6.197 [kJ/mol]       0.00236046 [Eh]
    Rotational H            0.889 [kcal/mol]        3.718 [kJ/mol]       0.00141628 [Eh]
    Vibrational H          63.860 [kcal/mol]      267.189 [kJ/mol]       0.10176685 [Eh]
  Correction H             66.230 [kcal/mol]      277.105 [kJ/mol]       0.10554359 [Eh]
  Total H, Enthalpy at  298.15 [K]                                    -232.03787787 [Eh]

  Gibbs free energy, G = H - T * S
    Electronic G            0.000 [kcal/mol]        0.000 [kJ/mol]       0.00000000 [Eh]
    Translational G       -10.140 [kcal/mol]      -42.428 [kJ/mol]      -0.01615980 [Eh]
    Rotational G           -6.362 [kcal/mol]      -26.617 [kJ/mol]      -0.01013795 [Eh]
    Vibrational G          62.597 [kcal/mol]      261.906 [kJ/mol]       0.09975477 [Eh]
  Correction G             46.095 [kcal/mol]      192.861 [kJ/mol]       0.07345702 [Eh]
  Total G, Free enthalpy at  298.15 [K]                               -232.06996443 [Eh]

    Psi4 stopped on: Wednesday, 20 April 2022 03:18AM
    Psi4 wall time for execution: 0:19:46.54

*** Psi4 exiting successfully. Buy a developer a beer!
