
    -----------------------------------------------------------------------
          Psi4: An Open-Source Ab Initio Electronic Structure Package
                               Psi4 1.3.2 release

                         Git: Rev {HEAD} ecbda83 


    R. M. Parrish, L. A. Burns, D. G. A. Smith, A. C. Simmonett,
    A. E. DePrince III, E. G. Hohenstein, U. Bozkaya, A. Yu. Sokolov,
    R. Di Remigio, R. M. Richard, J. F. Gonthier, A. M. James,
    H. R. McAlexander, A. Kumar, M. Saitow, X. Wang, B. P. Pritchard,
    P. Verma, H. F. Schaefer III, K. Patkowski, R. A. King, E. F. Valeev,
    F. A. Evangelista, J. M. Turney, T. D. Crawford, and C. D. Sherrill,
    J. Chem. Theory Comput. 13(7) pp 3185--3197 (2017).
    (doi: 10.1021/acs.jctc.7b00174)


                         Additional Contributions by
    P. Kraus, H. Kruse, M. H. Lechner, M. C. Schieber, R. A. Shaw,
    A. Alenaizan, R. Galvelis, Z. L. Glick, S. Lehtola, and J. P. Misiewicz

    -----------------------------------------------------------------------


    Psi4 started on: Tuesday, 19 April 2022 03:46PM

    Process ID: 5197
    Host:       atlantis
    PSIDATADIR: /home/akrom/software/anaconda3/envs/ffpenv/share/psi4
    Memory:     500.0 MiB
    Threads:    1
    
  ==> Input File <==

--------------------------------------------------------------------------
set basis  6-31G
molecule {
0 1
   C        0.32153        0.81326        0.00000
   C       -0.86505       -0.12817        0.00000
   C        0.54353       -0.68508        0.00000
   H        0.53795        1.36069       -0.92039
   H        0.53795        1.36069        0.92039
   H       -1.44742       -0.21449        0.92034
   H       -1.44742       -0.21449       -0.92034
   H        0.90937       -1.14629       -0.92037
   H        0.90937       -1.14629        0.92037
}
energy('CCSD')
frequencies('CCSD')
--------------------------------------------------------------------------

*** tstart() called on atlantis
*** at Tue Apr 19 15:46:42 2022

   => Loading Basis Set <=

    Name: 6-31G
    Role: ORBITAL
    Keyword: BASIS
    atoms 1-3 entry C          line    87 file /home/akrom/software/anaconda3/envs/ffpenv/share/psi4/basis/6-31g.gbs 
    atoms 4-9 entry H          line    26 file /home/akrom/software/anaconda3/envs/ffpenv/share/psi4/basis/6-31g.gbs 


         ---------------------------------------------------------
                                   SCF
               by Justin Turney, Rob Parrish, Andy Simmonett
                          and Daniel G. A. Smith
                              RHF Reference
                        1 Threads,    500 MiB Core
         ---------------------------------------------------------

  ==> Geometry <==

    Molecular point group: cs
    Full point group: Cs

    Geometry (in Angstrom), charge = 0, multiplicity = 1:

       Center              X                  Y                   Z               Mass       
    ------------   -----------------  -----------------  -----------------  -----------------
         C            0.321531939855     0.813261460475     0.000000000000    12.000000000000
         C           -0.865048060145    -0.128168539525     0.000000000000    12.000000000000
         C            0.543531939855    -0.685078539525     0.000000000000    12.000000000000
         H            0.537951939855     1.360691460475    -0.920390000000     1.007825032230
         H            0.537951939855     1.360691460475     0.920390000000     1.007825032230
         H           -1.447418060145    -0.214488539525     0.920340000000     1.007825032230
         H           -1.447418060145    -0.214488539525    -0.920340000000     1.007825032230
         H            0.909371939855    -1.146288539525    -0.920370000000     1.007825032230
         H            0.909371939855    -1.146288539525     0.920370000000     1.007825032230

  Running in cs symmetry.

  Rotational constants: A =      0.66472  B =      0.66470  C =      0.41647 [cm^-1]
  Rotational constants: A =  19927.70596  B =  19927.20236  C =  12485.44714 [MHz]
  Nuclear repulsion =   75.281464809014025

  Charge       = 0
  Multiplicity = 1
  Electrons    = 24
  Nalpha       = 12
  Nbeta        = 12

  ==> Algorithm <==

  SCF Algorithm Type is PK.
  DIIS enabled.
  MOM disabled.
  Fractional occupation disabled.
  Guess Type is SAD.
  Energy threshold   = 1.00e-08
  Density threshold  = 1.00e-08
  Integral threshold = 0.00e+00

  ==> Primary Basis <==

  Basis Set: 6-31G
    Blend: 6-31G
    Number of shells: 27
    Number of basis function: 39
    Number of Cartesian functions: 39
    Spherical Harmonics?: false
    Max angular momentum: 1

  ==> Pre-Iterations <==

   -------------------------------------------------------
    Irrep   Nso     Nmo     Nalpha   Nbeta   Ndocc  Nsocc
   -------------------------------------------------------
     A'        27      27       0       0       0       0
     A"        12      12       0       0       0       0
   -------------------------------------------------------
    Total      39      39      12      12      12       0
   -------------------------------------------------------

  ==> Integral Setup <==

  Using in-core PK algorithm.
   Calculation information:
      Number of atoms:                   9
      Number of AO shells:              27
      Number of primitives:             66
      Number of atomic orbitals:        39
      Number of basis functions:        39

      Integral cutoff                 1.00e-12
      Number of threads:                 1

  Performing in-core PK
  Using 609180 doubles for integral storage.
  We computed 71625 shell quartets total.
  Whereas there are 71631 unique shell quartets.

  ==> DiskJK: Disk-Based J/K Matrices <==

    J tasked:                  Yes
    K tasked:                  Yes
    wK tasked:                  No
    Memory [MiB]:              375
    Schwarz Cutoff:          1E-12

    OpenMP threads:              1

  Minimum eigenvalue in the overlap matrix is 9.9475880981E-03.
  Using Symmetric Orthogonalization.

  SCF Guess: Superposition of Atomic Densities via on-the-fly atomic UHF.

  ==> Iterations <==

                        Total Energy        Delta E     RMS |[F,P]|

   @RHF iter SAD:  -116.54542551550338   -1.16545e+02   0.00000e+00 
   @RHF iter   1:  -116.95975552267022   -4.14330e-01   9.01971e-03 DIIS
   @RHF iter   2:  -117.00004783271540   -4.02923e-02   3.46718e-03 DIIS
   @RHF iter   3:  -117.00583333990417   -5.78551e-03   6.44894e-04 DIIS
   @RHF iter   4:  -117.00616687725511   -3.33537e-04   6.69923e-05 DIIS
   @RHF iter   5:  -117.00617163419966   -4.75694e-06   5.99784e-06 DIIS
   @RHF iter   6:  -117.00617168072854   -4.65289e-08   8.84164e-07 DIIS
   @RHF iter   7:  -117.00617168167734   -9.48802e-10   1.15538e-07 DIIS
   @RHF iter   8:  -117.00617168168876   -1.14113e-11   1.45864e-08 DIIS
   @RHF iter   9:  -117.00617168168898   -2.27374e-13   2.29641e-09 DIIS
  Energy and wave function converged.


  ==> Post-Iterations <==

    Orbital Energies [Eh]
    ---------------------

    Doubly Occupied:                                                      

       1Ap   -11.229649     2Ap   -11.228732     3Ap   -11.228727  
       4Ap    -1.134537     5Ap    -0.813730     6Ap    -0.813724  
       1App   -0.666967     7Ap    -0.620074     2App   -0.507786  
       3App   -0.507771     8Ap    -0.416158     9Ap    -0.416150  

    Virtual:                                                              

      10Ap     0.240922     4App    0.253326    11Ap     0.299820  
      12Ap     0.299826    13Ap     0.316084     5App    0.378266  
       6App    0.378271    14Ap     0.419320    15Ap     0.419330  
      16Ap     0.700388     7App    0.783599    17Ap     0.795688  
      18Ap     0.795710    19Ap     0.916422    20Ap     0.916436  
      21Ap     0.958949    22Ap     1.009901     8App    1.046824  
       9App    1.046886    10App    1.203342    23Ap     1.243014  
      24Ap     1.243025    25Ap     1.271190    11App    1.286299  
      12App    1.286348    26Ap     1.540342    27Ap     1.540350  

    Final Occupation by Irrep:
             Ap   App 
    DOCC [     9,    3 ]

  @RHF Final Energy:  -117.00617168168898

   => Energetics <=

    Nuclear Repulsion Energy =             75.2814648090140253
    One-Electron Energy =                -305.4072669003979854
    Two-Electron Energy =                 113.1196304096949632
    Total Energy =                       -117.0061716816889827

Computation Completed


Properties will be evaluated at   0.000000,   0.000000,   0.000000 [a0]

Properties computed using the SCF density matrix

  Nuclear Dipole Moment: [e a0]
     X:    -0.0002      Y:    -0.0002      Z:     0.0000

  Electronic Dipole Moment: [e a0]
     X:     0.0001      Y:     0.0001      Z:     0.0000

  Dipole Moment: [e a0]
     X:    -0.0000      Y:    -0.0000      Z:     0.0000     Total:     0.0000

  Dipole Moment: [D]
     X:    -0.0001      Y:    -0.0001      Z:     0.0000     Total:     0.0001


*** tstop() called on atlantis at Tue Apr 19 15:46:42 2022
Module time:
	user time   =       0.44 seconds =       0.01 minutes
	system time =       0.00 seconds =       0.00 minutes
	total time  =          0 seconds =       0.00 minutes
Total time:
	user time   =       0.44 seconds =       0.01 minutes
	system time =       0.00 seconds =       0.00 minutes
	total time  =          0 seconds =       0.00 minutes
 MINTS: Wrapper to libmints.
   by Justin Turney

   Calculation information:
      Number of threads:                 1
      Number of atoms:                   9
      Number of AO shells:              27
      Number of SO shells:              21
      Number of primitives:             66
      Number of atomic orbitals:        39
      Number of basis functions:        39

      Number of irreps:                  2
      Integral cutoff                 0.00e+00
      Number of functions per irrep: [  27   12 ]

 OEINTS: Overlap, kinetic, potential, dipole, and quadrupole integrals
         stored in file 35.

      Computing two-electron integrals...done
      Computed 155959 non-zero two-electron integrals.
        Stored in file 33.


*** tstart() called on atlantis
*** at Tue Apr 19 15:46:42 2022


	Wfn Parameters:
	--------------------
	Wavefunction         = CCSD
	Number of irreps     = 2
	Number of MOs        = 39
	Number of active MOs = 39
	AO-Basis             = NONE
	Semicanonical        = false
	Reference            = RHF
	Print Level          = 1

	IRREP	# MOs	# FZDC	# DOCC	# SOCC	# VIRT	# FZVR
	-----	-----	------	------	------	------	------
	 Ap	   27	    0	    9	    0	    18	    0
	 App	   12	    0	    3	    0	    9	    0
	Transforming integrals...
	IWL integrals will be deleted.
	(OO|OO)...
	Presorting SO-basis two-electron integrals.
	Sorting File: SO Ints (nn|nn) nbuckets = 1
	Transforming the one-electron integrals and constructing Fock matrices
	Starting first half-transformation.
	Sorting half-transformed integrals.
	First half integral transformation complete.
	Starting second half-transformation.
	Two-electron integral transformation complete.
	(OO|OV)...
	Starting second half-transformation.
	Two-electron integral transformation complete.
	(OO|VV)...
	Starting second half-transformation.
	Two-electron integral transformation complete.
	(OV|OO)...
	Starting first half-transformation.
	Sorting half-transformed integrals.
	First half integral transformation complete.
	Starting second half-transformation.
	Two-electron integral transformation complete.
	(OV|OV)...
	Starting second half-transformation.
	Two-electron integral transformation complete.
	(OV|VV)...
	Starting second half-transformation.
	Two-electron integral transformation complete.
	(VV|OO)...
	Starting first half-transformation.
	Sorting half-transformed integrals.
	First half integral transformation complete.
	Starting second half-transformation.
	Two-electron integral transformation complete.
	(VV|OV)...
	Starting second half-transformation.
	Two-electron integral transformation complete.
	(VV|VV)...
	Starting second half-transformation.
	Two-electron integral transformation complete.
	Frozen core energy     =      0.00000000000000

	Size of irrep 0 of <ab|cd> integrals:      0.164 (MW) /      1.312 (MB)
	Size of irrep 1 of <ab|cd> integrals:      0.105 (MW) /      0.840 (MB)
	Total:                                     0.269 (MW) /      2.152 (MB)

	Size of irrep 0 of <ia|bc> integrals:      0.077 (MW) /      0.612 (MB)
	Size of irrep 1 of <ia|bc> integrals:      0.044 (MW) /      0.350 (MB)
	Total:                                     0.120 (MW) /      0.962 (MB)

	Size of irrep 0 of tijab amplitudes:       0.036 (MW) /      0.292 (MB)
	Size of irrep 1 of tijab amplitudes:       0.017 (MW) /      0.140 (MB)
	Total:                                     0.054 (MW) /      0.432 (MB)

	Nuclear Rep. energy          =     75.28146480901403
	SCF energy                   =   -117.00617168168898
	One-electron energy          =   -305.40726687418532
	Two-electron energy          =    113.11963038348104
	Reference energy             =   -117.00617168169028

*** tstop() called on atlantis at Tue Apr 19 15:46:42 2022
Module time:
	user time   =       0.02 seconds =       0.00 minutes
	system time =       0.05 seconds =       0.00 minutes
	total time  =          0 seconds =       0.00 minutes
Total time:
	user time   =       0.55 seconds =       0.01 minutes
	system time =       0.05 seconds =       0.00 minutes
	total time  =          0 seconds =       0.00 minutes
            **************************
            *                        *
            *        CCENERGY        *
            *                        *
            **************************

    Nuclear Rep. energy (wfn)     =   75.281464809014025
    SCF energy          (wfn)     = -117.006171681688983
    Reference energy    (file100) = -117.006171681690276

    Input parameters:
    -----------------
    Wave function   =     CCSD
    Reference wfn   =     RHF
    Brueckner       =     No
    Memory (Mbytes) =     524.3
    Maxiter         =     50
    R_Convergence   =     1.0e-07
    E_Convergence   =     1.0e-06
    Restart         =     Yes
    DIIS            =     Yes
    AO Basis        =     NONE
    ABCD            =     NEW
    Cache Level     =     2
    Cache Type      =     LOW
    Print Level     =     1
    Num. of threads =     1
    # Amps to Print =     10
    Print MP2 Amps? =     No
    Analyze T2 Amps =     No
    Print Pair Ener =     No
    Local CC        =     No
    SCS-MP2         =     False
    SCSN-MP2        =     False
    SCS-CCSD        =     False

MP2 correlation energy -0.2761940748190775
                Solving CC Amplitude Equations
                ------------------------------
  Iter             Energy              RMS        T1Diag      D1Diag    New D1Diag    D2Diag
  ----     ---------------------    ---------   ----------  ----------  ----------   --------
     0        -0.276194074819078    0.000e+00    0.000000    0.000000    0.000000    0.116576
     1        -0.299209795102290    5.448e-02    0.003313    0.006752    0.006752    0.129445
     2        -0.310716058428788    2.057e-02    0.004251    0.008964    0.008964    0.140075
     3        -0.311486285188125    4.231e-03    0.004479    0.009685    0.009685    0.142215
     4        -0.311603242195683    1.222e-03    0.004489    0.009767    0.009767    0.142907
     5        -0.311613057349542    2.914e-04    0.004489    0.009775    0.009775    0.143023
     6        -0.311611625672679    6.259e-05    0.004489    0.009775    0.009775    0.143028
     7        -0.311612379206636    1.506e-05    0.004489    0.009774    0.009774    0.143028
     8        -0.311612507467475    3.263e-06    0.004489    0.009775    0.009775    0.143027
     9        -0.311612447993215    8.585e-07    0.004489    0.009775    0.009775    0.143027
    10        -0.311612455899428    2.081e-07    0.004489    0.009774    0.009774    0.143027
    11        -0.311612458616877    4.828e-08    0.004489    0.009774    0.009774    0.143027

    Iterations converged.


    Largest TIA Amplitudes:
              7   8         0.0087108769
              8   7        -0.0087100140
             10  23         0.0070003531
             11  22         0.0070002688
             10  19        -0.0058402819
             11  20        -0.0058396695
              9  24         0.0043824230
              4  16        -0.0038298864
              5  17         0.0038298749
              3   0        -0.0034622120

    Largest TIjAb Amplitudes:
      8   8   3   3        -0.0536311668
      7   7   3   3        -0.0536240094
     11  11  20  20        -0.0227935783
     10  10  19  19        -0.0227917901
      8   8   3  11        -0.0215391998
      8   8  11   3        -0.0215391998
      7   7   3  11        -0.0215357755
      7   7  11   3        -0.0215357755
      9   9  18  18        -0.0199265638
     11  11  18  18        -0.0188496168

    SCF energy       (wfn)                    = -117.006171681688983
    Reference energy (file100)                = -117.006171681690276

    Opposite-spin MP2 correlation energy      =   -0.217383086480365
    Same-spin MP2 correlation energy          =   -0.058810988338713
    MP2 correlation energy                    =   -0.276194074819078
      * MP2 total energy                      = -117.282365756509350

    Opposite-spin CCSD correlation energy     =   -0.259775607902660
    Same-spin CCSD correlation energy         =   -0.051836850714217
    CCSD correlation energy                   =   -0.311612458616877
      * CCSD total energy                     = -117.317784140307154

gradient() will perform analytic gradient computation.

*** tstart() called on atlantis
*** at Tue Apr 19 15:46:43 2022

   => Loading Basis Set <=

    Name: 6-31G
    Role: ORBITAL
    Keyword: BASIS
    atoms 1-3 entry C          line    87 file /home/akrom/software/anaconda3/envs/ffpenv/share/psi4/basis/6-31g.gbs 
    atoms 4-9 entry H          line    26 file /home/akrom/software/anaconda3/envs/ffpenv/share/psi4/basis/6-31g.gbs 


         ---------------------------------------------------------
                                   SCF
               by Justin Turney, Rob Parrish, Andy Simmonett
                          and Daniel G. A. Smith
                              RHF Reference
                        1 Threads,    500 MiB Core
         ---------------------------------------------------------

  ==> Geometry <==

    Molecular point group: cs
    Full point group: Cs

    Geometry (in Angstrom), charge = 0, multiplicity = 1:

       Center              X                  Y                   Z               Mass       
    ------------   -----------------  -----------------  -----------------  -----------------
         C            0.321531939855     0.813261460475     0.000000000000    12.000000000000
         C           -0.865048060145    -0.128168539525     0.000000000000    12.000000000000
         C            0.543531939855    -0.685078539525     0.000000000000    12.000000000000
         H            0.537951939855     1.360691460475    -0.920390000000     1.007825032230
         H            0.537951939855     1.360691460475     0.920390000000     1.007825032230
         H           -1.447418060145    -0.214488539525     0.920340000000     1.007825032230
         H           -1.447418060145    -0.214488539525    -0.920340000000     1.007825032230
         H            0.909371939855    -1.146288539525    -0.920370000000     1.007825032230
         H            0.909371939855    -1.146288539525     0.920370000000     1.007825032230

  Running in cs symmetry.

  Rotational constants: A =      0.66472  B =      0.66470  C =      0.41647 [cm^-1]
  Rotational constants: A =  19927.70596  B =  19927.20236  C =  12485.44714 [MHz]
  Nuclear repulsion =   75.281464809014025

  Charge       = 0
  Multiplicity = 1
  Electrons    = 24
  Nalpha       = 12
  Nbeta        = 12

  ==> Algorithm <==

  SCF Algorithm Type is PK.
  DIIS enabled.
  MOM disabled.
  Fractional occupation disabled.
  Guess Type is SAD.
  Energy threshold   = 1.00e-10
  Density threshold  = 1.00e-10
  Integral threshold = 0.00e+00

  ==> Primary Basis <==

  Basis Set: 6-31G
    Blend: 6-31G
    Number of shells: 27
    Number of basis function: 39
    Number of Cartesian functions: 39
    Spherical Harmonics?: false
    Max angular momentum: 1

  ==> Pre-Iterations <==

   -------------------------------------------------------
    Irrep   Nso     Nmo     Nalpha   Nbeta   Ndocc  Nsocc
   -------------------------------------------------------
     A'        27      27       0       0       0       0
     A"        12      12       0       0       0       0
   -------------------------------------------------------
    Total      39      39      12      12      12       0
   -------------------------------------------------------

  ==> Integral Setup <==

  Using in-core PK algorithm.
   Calculation information:
      Number of atoms:                   9
      Number of AO shells:              27
      Number of primitives:             66
      Number of atomic orbitals:        39
      Number of basis functions:        39

      Integral cutoff                 1.00e-12
      Number of threads:                 1

  Performing in-core PK
  Using 609180 doubles for integral storage.
  We computed 71625 shell quartets total.
  Whereas there are 71631 unique shell quartets.

  ==> DiskJK: Disk-Based J/K Matrices <==

    J tasked:                  Yes
    K tasked:                  Yes
    wK tasked:                  No
    Memory [MiB]:              375
    Schwarz Cutoff:          1E-12

    OpenMP threads:              1

  Minimum eigenvalue in the overlap matrix is 9.9475880981E-03.
  Using Symmetric Orthogonalization.

  SCF Guess: Superposition of Atomic Densities via on-the-fly atomic UHF.

  ==> Iterations <==

                        Total Energy        Delta E     RMS |[F,P]|

   @RHF iter SAD:  -116.54542551550338   -1.16545e+02   0.00000e+00 
   @RHF iter   1:  -116.95975552267024   -4.14330e-01   9.01971e-03 DIIS
   @RHF iter   2:  -117.00004783271530   -4.02923e-02   3.46718e-03 DIIS
   @RHF iter   3:  -117.00583333990399   -5.78551e-03   6.44894e-04 DIIS
   @RHF iter   4:  -117.00616687725511   -3.33537e-04   6.69923e-05 DIIS
   @RHF iter   5:  -117.00617163419959   -4.75694e-06   5.99784e-06 DIIS
   @RHF iter   6:  -117.00617168072863   -4.65290e-08   8.84164e-07 DIIS
   @RHF iter   7:  -117.00617168167763   -9.49001e-10   1.15538e-07 DIIS
   @RHF iter   8:  -117.00617168168881   -1.11839e-11   1.45864e-08 DIIS
   @RHF iter   9:  -117.00617168168901   -1.98952e-13   2.29641e-09 DIIS
   @RHF iter  10:  -117.00617168168908   -7.10543e-14   7.71829e-10 DIIS
   @RHF iter  11:  -117.00617168168893    1.56319e-13   6.61941e-11 DIIS
  Energy and wave function converged.


  ==> Post-Iterations <==

    Orbital Energies [Eh]
    ---------------------

    Doubly Occupied:                                                      

       1Ap   -11.229649     2Ap   -11.228731     3Ap   -11.228727  
       4Ap    -1.134537     5Ap    -0.813730     6Ap    -0.813724  
       1App   -0.666967     7Ap    -0.620074     2App   -0.507786  
       3App   -0.507771     8Ap    -0.416158     9Ap    -0.416150  

    Virtual:                                                              

      10Ap     0.240922     4App    0.253326    11Ap     0.299820  
      12Ap     0.299826    13Ap     0.316084     5App    0.378266  
       6App    0.378271    14Ap     0.419320    15Ap     0.419330  
      16Ap     0.700388     7App    0.783599    17Ap     0.795688  
      18Ap     0.795710    19Ap     0.916422    20Ap     0.916436  
      21Ap     0.958949    22Ap     1.009901     8App    1.046824  
       9App    1.046886    10App    1.203342    23Ap     1.243014  
      24Ap     1.243025    25Ap     1.271190    11App    1.286299  
      12App    1.286348    26Ap     1.540342    27Ap     1.540350  

    Final Occupation by Irrep:
             Ap   App 
    DOCC [     9,    3 ]

  @RHF Final Energy:  -117.00617168168893

   => Energetics <=

    Nuclear Repulsion Energy =             75.2814648090140253
    One-Electron Energy =                -305.4072668640450843
    Two-Electron Energy =                 113.1196303733421189
    Total Energy =                       -117.0061716816889259

Computation Completed


Properties will be evaluated at   0.000000,   0.000000,   0.000000 [a0]

Properties computed using the SCF density matrix

  Nuclear Dipole Moment: [e a0]
     X:    -0.0002      Y:    -0.0002      Z:     0.0000

  Electronic Dipole Moment: [e a0]
     X:     0.0001      Y:     0.0001      Z:     0.0000

  Dipole Moment: [e a0]
     X:    -0.0000      Y:    -0.0000      Z:     0.0000     Total:     0.0000

  Dipole Moment: [D]
     X:    -0.0001      Y:    -0.0001      Z:     0.0000     Total:     0.0001


*** tstop() called on atlantis at Tue Apr 19 15:46:43 2022
Module time:
	user time   =       0.41 seconds =       0.01 minutes
	system time =       0.00 seconds =       0.00 minutes
	total time  =          0 seconds =       0.00 minutes
Total time:
	user time   =       1.14 seconds =       0.02 minutes
	system time =       0.16 seconds =       0.00 minutes
	total time  =          1 seconds =       0.02 minutes
 MINTS: Wrapper to libmints.
   by Justin Turney

   Calculation information:
      Number of threads:                 1
      Number of atoms:                   9
      Number of AO shells:              27
      Number of SO shells:              21
      Number of primitives:             66
      Number of atomic orbitals:        39
      Number of basis functions:        39

      Number of irreps:                  2
      Integral cutoff                 0.00e+00
      Number of functions per irrep: [  27   12 ]

 OEINTS: Overlap, kinetic, potential, dipole, and quadrupole integrals
         stored in file 35.

      Computing two-electron integrals...done
      Computed 155971 non-zero two-electron integrals.
        Stored in file 33.


*** tstart() called on atlantis
*** at Tue Apr 19 15:46:43 2022


	Wfn Parameters:
	--------------------
	Wavefunction         = CCSD
	Number of irreps     = 2
	Number of MOs        = 39
	Number of active MOs = 39
	AO-Basis             = NONE
	Semicanonical        = false
	Reference            = RHF
	Print Level          = 1

	IRREP	# MOs	# FZDC	# DOCC	# SOCC	# VIRT	# FZVR
	-----	-----	------	------	------	------	------
	 Ap	   27	    0	    9	    0	    18	    0
	 App	   12	    0	    3	    0	    9	    0
	Transforming integrals...
	IWL integrals will be deleted.
	(OO|OO)...
	Presorting SO-basis two-electron integrals.
	Sorting File: SO Ints (nn|nn) nbuckets = 1
	Transforming the one-electron integrals and constructing Fock matrices
	Starting first half-transformation.
	Sorting half-transformed integrals.
	First half integral transformation complete.
	Starting second half-transformation.
	Two-electron integral transformation complete.
	(OO|OV)...
	Starting second half-transformation.
	Two-electron integral transformation complete.
	(OO|VV)...
	Starting second half-transformation.
	Two-electron integral transformation complete.
	(OV|OO)...
	Starting first half-transformation.
	Sorting half-transformed integrals.
	First half integral transformation complete.
	Starting second half-transformation.
	Two-electron integral transformation complete.
	(OV|OV)...
	Starting second half-transformation.
	Two-electron integral transformation complete.
	(OV|VV)...
	Starting second half-transformation.
	Two-electron integral transformation complete.
	(VV|OO)...
	Starting first half-transformation.
	Sorting half-transformed integrals.
	First half integral transformation complete.
	Starting second half-transformation.
	Two-electron integral transformation complete.
	(VV|OV)...
	Starting second half-transformation.
	Two-electron integral transformation complete.
	(VV|VV)...
	Starting second half-transformation.
	Two-electron integral transformation complete.
	Frozen core energy     =      0.00000000000000

	Size of irrep 0 of <ab|cd> integrals:      0.164 (MW) /      1.312 (MB)
	Size of irrep 1 of <ab|cd> integrals:      0.105 (MW) /      0.840 (MB)
	Total:                                     0.269 (MW) /      2.152 (MB)

	Size of irrep 0 of <ia|bc> integrals:      0.077 (MW) /      0.612 (MB)
	Size of irrep 1 of <ia|bc> integrals:      0.044 (MW) /      0.350 (MB)
	Total:                                     0.120 (MW) /      0.962 (MB)

	Size of irrep 0 of tijab amplitudes:       0.036 (MW) /      0.292 (MB)
	Size of irrep 1 of tijab amplitudes:       0.017 (MW) /      0.140 (MB)
	Total:                                     0.054 (MW) /      0.432 (MB)

	Nuclear Rep. energy          =     75.28146480901403
	SCF energy                   =   -117.00617168168893
	One-electron energy          =   -305.40726686612879
	Two-electron energy          =    113.11963037542452
	Reference energy             =   -117.00617168169025

*** tstop() called on atlantis at Tue Apr 19 15:46:43 2022
Module time:
	user time   =       0.05 seconds =       0.00 minutes
	system time =       0.02 seconds =       0.00 minutes
	total time  =          0 seconds =       0.00 minutes
Total time:
	user time   =       1.27 seconds =       0.02 minutes
	system time =       0.18 seconds =       0.00 minutes
	total time  =          1 seconds =       0.02 minutes
            **************************
            *                        *
            *        CCENERGY        *
            *                        *
            **************************

    Nuclear Rep. energy (wfn)     =   75.281464809014025
    SCF energy          (wfn)     = -117.006171681688926
    Reference energy    (file100) = -117.006171681690248

    Input parameters:
    -----------------
    Wave function   =     CCSD
    Reference wfn   =     RHF
    Brueckner       =     No
    Memory (Mbytes) =     524.3
    Maxiter         =     50
    R_Convergence   =     1.0e-07
    E_Convergence   =     1.0e-08
    Restart         =     Yes
    DIIS            =     Yes
    AO Basis        =     NONE
    ABCD            =     NEW
    Cache Level     =     2
    Cache Type      =     LOW
    Print Level     =     1
    Num. of threads =     1
    # Amps to Print =     10
    Print MP2 Amps? =     No
    Analyze T2 Amps =     No
    Print Pair Ener =     No
    Local CC        =     No
    SCS-MP2         =     False
    SCSN-MP2        =     False
    SCS-CCSD        =     False

    Using old T1 amplitudes.
    Using old T2 amplitudes.

MP2 correlation energy -0.2761940743147318
                Solving CC Amplitude Equations
                ------------------------------
  Iter             Energy              RMS        T1Diag      D1Diag    New D1Diag    D2Diag
  ----     ---------------------    ---------   ----------  ----------  ----------   --------
     0        -0.311612443073188    0.000e+00    0.004489    0.009774    0.009774    0.143027
     1        -0.311612458212761    8.826e-05    0.004489    0.009774    0.009774    0.143027
     2        -0.311612459254543    1.826e-05    0.004489    0.009774    0.009774    0.143027
     3        -0.311612459735376    4.418e-06    0.004489    0.009774    0.009774    0.143027
     4        -0.311612459875892    1.139e-06    0.004489    0.009774    0.009774    0.143027
     5        -0.311612459900816    2.361e-07    0.004489    0.009774    0.009774    0.143027
     6        -0.311612459907934    5.604e-08    0.004489    0.009774    0.009774    0.143027

    Iterations converged.


    Largest TIA Amplitudes:
              7   8         0.0087103038
              8   7        -0.0087094410
             10  23         0.0070004056
             11  22         0.0070003214
             10  19        -0.0058402871
             11  20        -0.0058396745
              9  24         0.0043824242
              4  16        -0.0038299110
              5  17         0.0038298995
              3   0        -0.0034622097

    Largest TIjAb Amplitudes:
      8   8   3   3        -0.0536311625
      7   7   3   3        -0.0536240072
     11  11  20  20        -0.0227935586
     10  10  19  19        -0.0227917713
      8   8   3  11        -0.0215391955
      8   8  11   3        -0.0215391955
      7   7   3  11        -0.0215357769
      7   7  11   3        -0.0215357769
      9   9  18  18        -0.0199265609
     11  11  18  18        -0.0188496208

    SCF energy       (wfn)                    = -117.006171681688926
    Reference energy (file100)                = -117.006171681690248

    Opposite-spin MP2 correlation energy      =   -0.217383086066418
    Same-spin MP2 correlation energy          =   -0.058810988248313
    MP2 correlation energy                    =   -0.276194074314732
      * MP2 total energy                      = -117.282365756004978

    Opposite-spin CCSD correlation energy     =   -0.259775609215703
    Same-spin CCSD correlation energy         =   -0.051836850692232
    CCSD correlation energy                   =   -0.311612459907934
      * CCSD total energy                     = -117.317784141598182


			**************************
			*                        *
			*         CCHBAR         *
			*                        *
			**************************


			**************************
			*        CCLAMBDA        *
			**************************


	Nuclear Rep. energy (wfn)     =   75.281464809014025
	Reference           (wfn)     =                    0
	SCF energy          (wfn)     = -117.006171681688926
	Reference energy    (CC_INFO) = -117.006171681690248
	CCSD energy         (CC_INFO) =   -0.311612459907934
	Total CCSD energy   (CC_INFO) = -117.317784141598182

	Input parameters:
	-----------------
	Maxiter           =     50
	Convergence       = 1.0e-07
	Restart           =     No
	Cache Level       =     2
	Model III         =     No
	DIIS              =     Yes
	AO Basis          =     No
	ABCD              =     NEW
	Local CC          =     No
	Parameters for left-handed eigenvectors:
	    Irr   Root  Ground-State?    EOM energy        R0
	  1   0     0        Yes       0.0000000000   1.0000000000
	Labels for eigenvector 1:
	LIA 0 -1, Lia 0 -1, LIJAB 0 -1, Lijab 0 -1, LIjAb 0 -1, 2LIjAb - LIjbA 0 -1
	Symmetry of left-hand state: Ap
	Symmetry of left-hand eigenvector: Ap

	          Solving Lambda Equations
	          ------------------------
	Iter     PseudoEnergy or Norm         RMS  
	----     ---------------------     --------
	   0        -0.311654619717141    0.000e+00
	   1        -0.306993092034165    1.018e-02
	   2        -0.306079061810939    1.898e-03
	   3        -0.305920092488214    5.019e-04
	   4        -0.305897101415862    1.284e-04
	   5        -0.305895345094426    2.702e-05
	   6        -0.305894848231741    6.383e-06
	   7        -0.305894764185576    1.507e-06
	   8        -0.305894747037729    3.900e-07
	   9        -0.305894741166879    8.790e-08

	Largest LIA Amplitudes:
	          7   8         0.0066751599
	          8   7        -0.0066745223
	         10  19        -0.0058220767
	         11  20        -0.0058214773
	         11  22         0.0050974154
	         10  23         0.0050970732
	          4   1        -0.0039886149
	          5   2        -0.0039883770
	          6   0        -0.0039193298
	          3   0        -0.0036278208

	Largest LIjAb Amplitudes:
	  8   8   3   3        -0.0514652428
	  7   7   3   3        -0.0514584212
	 11  11  20  20        -0.0224319222
	 10  10  19  19        -0.0224301927
	  8   8   3  11        -0.0206812249
	  8   8  11   3        -0.0206812249
	  7   7   3  11        -0.0206779354
	  7   7  11   3        -0.0206779354
	  9   9  18  18        -0.0196883998
	 11  11  18  18        -0.0184036763

	Iterations converged.

	Overlap <L|e^T> =        0.85911699807

			**************************
			*                        *
			*        CCDENSITY       *
			*                        *
			**************************


	Input parameters:
	-----------------
	Wave function    =   CCSD
	Reference wfn    =   RHF
	Dertype          = 1
	Tolerance        = 1.0e-14
	Cache Level      = 2
	AO Basis         = No
	OPDM Only        = No
	Relax OPDM       = Yes
	Compute Xi       = No
	Use Zeta         = No
	Xi connected     = Yes
	Compute NO       = No

	Nuclear Rep. energy (wfn)     =   75.281464809014025
	SCF energy          (wfn)     = -117.006171681688926
	Reference energy    (file100) = -117.006171681690248
	CCSD energy         (CC_INFO) =   -0.311612459907934
	Total CCSD energy   (CC_INFO) = -117.317784141598182
	Number of States = 1

	Ground?  State     EOM Energy       R0
	  Yes     0 Ap    0.0000000000   1.00000000

	Virial Theorem Data:
	--------------------
	Kinetic energy (ref)   =  117.037795026423808
	Kinetic energy (corr)  =    0.409636859546850
	Kinetic energy (total) =  117.447431885970659
	-V/T (ref)             =    1.999729802285438
	-V/T (corr)            =    1.760704152093753
	-V/T (total)           =    1.998896121079103
  Cartesian Displacement SALCs
  By SALC:
  Number of SALCs: 15, nirreps: A'
  Project out translations: False
  Project out rotations: False
	irrep = 0, ncomponent = 1
		0: atom 0, direction x, coef 1.000000
	irrep = 0, ncomponent = 1
		0: atom 0, direction y, coef 1.000000
	irrep = 0, ncomponent = 1
		0: atom 1, direction x, coef 1.000000
	irrep = 0, ncomponent = 1
		0: atom 1, direction y, coef 1.000000
	irrep = 0, ncomponent = 1
		0: atom 2, direction x, coef 1.000000
	irrep = 0, ncomponent = 1
		0: atom 2, direction y, coef 1.000000
	irrep = 0, ncomponent = 2
		0: atom 3, direction x, coef 0.707107
		1: atom 4, direction x, coef 0.707107
	irrep = 0, ncomponent = 2
		0: atom 3, direction y, coef 0.707107
		1: atom 4, direction y, coef 0.707107
	irrep = 0, ncomponent = 2
		0: atom 3, direction z, coef 0.707107
		1: atom 4, direction z, coef -0.707107
	irrep = 0, ncomponent = 2
		0: atom 5, direction x, coef 0.707107
		1: atom 6, direction x, coef 0.707107
	irrep = 0, ncomponent = 2
		0: atom 5, direction y, coef 0.707107
		1: atom 6, direction y, coef 0.707107
	irrep = 0, ncomponent = 2
		0: atom 5, direction z, coef 0.707107
		1: atom 6, direction z, coef -0.707107
	irrep = 0, ncomponent = 2
		0: atom 7, direction x, coef 0.707107
		1: atom 8, direction x, coef 0.707107
	irrep = 0, ncomponent = 2
		0: atom 7, direction y, coef 0.707107
		1: atom 8, direction y, coef 0.707107
	irrep = 0, ncomponent = 2
		0: atom 7, direction z, coef 0.707107
		1: atom 8, direction z, coef -0.707107

  By Atomic Center:
  Number of atomic centers: 9
   Atomic Center 0:
	x component, size = 1
		0: salc 0, irrep 0, coef 1.000000
	y component, size = 1
		0: salc 1, irrep 0, coef 1.000000
	z component, size = 0
   Atomic Center 1:
	x component, size = 1
		0: salc 2, irrep 0, coef 1.000000
	y component, size = 1
		0: salc 3, irrep 0, coef 1.000000
	z component, size = 0
   Atomic Center 2:
	x component, size = 1
		0: salc 4, irrep 0, coef 1.000000
	y component, size = 1
		0: salc 5, irrep 0, coef 1.000000
	z component, size = 0
   Atomic Center 3:
	x component, size = 1
		0: salc 6, irrep 0, coef 0.707107
	y component, size = 1
		0: salc 7, irrep 0, coef 0.707107
	z component, size = 1
		0: salc 8, irrep 0, coef 0.707107
   Atomic Center 4:
	x component, size = 1
		0: salc 6, irrep 0, coef 0.707107
	y component, size = 1
		0: salc 7, irrep 0, coef 0.707107
	z component, size = 1
		0: salc 8, irrep 0, coef -0.707107
   Atomic Center 5:
	x component, size = 1
		0: salc 9, irrep 0, coef 0.707107
	y component, size = 1
		0: salc 10, irrep 0, coef 0.707107
	z component, size = 1
		0: salc 11, irrep 0, coef 0.707107
   Atomic Center 6:
	x component, size = 1
		0: salc 9, irrep 0, coef 0.707107
	y component, size = 1
		0: salc 10, irrep 0, coef 0.707107
	z component, size = 1
		0: salc 11, irrep 0, coef -0.707107
   Atomic Center 7:
	x component, size = 1
		0: salc 12, irrep 0, coef 0.707107
	y component, size = 1
		0: salc 13, irrep 0, coef 0.707107
	z component, size = 1
		0: salc 14, irrep 0, coef 0.707107
   Atomic Center 8:
	x component, size = 1
		0: salc 12, irrep 0, coef 0.707107
	y component, size = 1
		0: salc 13, irrep 0, coef 0.707107
	z component, size = 1
		0: salc 14, irrep 0, coef -0.707107

    Molecular point group: cs
    Full point group: Cs

    Geometry (in Bohr), charge = 0, multiplicity = 1:

       Center              X                  Y                   Z       
    ------------   -----------------  -----------------  -----------------
         C            0.607607306914     1.536841428687     0.000000000000
         C           -1.634703919032    -0.242203437603     0.000000000000
         C            1.027126506766    -1.294610814132     0.000000000000
         H            1.016581834986     2.571334201546    -1.739285028610
         H            1.016581834986     2.571334201546     1.739285028610
         H           -2.735223722715    -0.405324596752     1.739190542304
         H           -2.735223722715    -0.405324596752    -1.739190542304
         H            1.718463912503    -2.166171400454    -1.739247234088
         H            1.718463912503    -2.166171400454     1.739247234088

	Presorting MO-basis TPDM.
	Sorting File: MO TPDM (AA|AA) nbuckets = 1
	Starting first half-transformation.
	Sorting half-transformed TPDM.
	First half integral transformation complete.


  -Nuclear Repulsion Energy 1st Derivatives:
     Atom            X                  Y                   Z
    ------   -----------------  -----------------  -----------------
       1       -2.592111453938    -6.556100075531     0.000000000000
       2        6.973669949172     1.033154087036     0.000000000000
       3       -4.381860927033     5.522668221185     0.000000000000
       4       -0.529292910653    -1.338801441551     1.575980406544
       5       -0.529292910653    -1.338801441551    -1.575980406544
       6        1.424171732267     0.211061483034    -1.575901173652
       7        1.424171732267     0.211061483034     1.575901173652
       8       -0.894727605715     1.127878842172     1.575946927528
       9       -0.894727605715     1.127878842172    -1.575946927528


  -Core Hamiltonian Gradient:
     Atom            X                  Y                   Z
    ------   -----------------  -----------------  -----------------
       1        4.243203064802    10.732018720589     0.000000000000
       2      -11.414784733254    -1.690926934978     0.000000000000
       3        7.172975139530    -9.039854415181     0.000000000000
       4        1.207790733053     3.055115055310    -4.135477302011
       5        1.207790733053     3.055115055310     4.135477302011
       6       -3.250161816314    -0.481764257974     4.135050455751
       7       -3.250161816314    -0.481764257974    -4.135050455751
       8        2.041674347723    -2.573969482551    -4.135300874615
       9        2.041674347723    -2.573969482551     4.135300874615


  -Lagrangian contribution to gradient:
     Atom            X                  Y                   Z
    ------   -----------------  -----------------  -----------------
       1        0.018100697362     0.045798519223     0.000000000000
       2       -0.048758659746    -0.007239308896     0.000000000000
       3        0.030595665213    -0.038613664761     0.000000000000
       4       -0.034952333259    -0.088415778838     0.162751757274
       5       -0.034952333259    -0.088415778838    -0.162751757274
       6        0.094067102147     0.013946396265    -0.162731222252
       7        0.094067102147     0.013946396265     0.162731222252
       8       -0.059083620303     0.074496609790     0.162743161755
       9       -0.059083620303     0.074496609790    -0.162743161755


  -Two-electron contribution to gradient:
     Atom            X                  Y                   Z
    ------   -----------------  -----------------  -----------------
       1       -1.673797981328    -4.233365029153     0.000000000000
       2        4.502289572926     0.666855498034     0.000000000000
       3       -2.829496394859     3.565625013273     0.000000000000
       4       -0.644051891870    -1.629175020065     2.394437899109
       5       -0.644051891870    -1.629175020065    -2.394437899109
       6        1.733272880667     0.256953490008    -2.394120502097
       7        1.733272880667     0.256953490008     2.394120502097
       8       -1.088718587167     1.372663788979     2.394307276167
       9       -1.088718587167     1.372663788979    -2.394307276167


  -Total gradient:
     Atom            X                  Y                   Z
    ------   -----------------  -----------------  -----------------
       1       -0.004605673102    -0.011647864872     0.000000000000
       2        0.012416129098     0.001843341196     0.000000000000
       3       -0.007786517148     0.009825154517     0.000000000000
       4       -0.000506402729    -0.001277185144    -0.002307239085
       5       -0.000506402729    -0.001277185144     0.002307239085
       6        0.001349898768     0.000197111333     0.002297557750
       7        0.001349898768     0.000197111333    -0.002297557750
       8       -0.000855465462     0.001069758391    -0.002303509165
       9       -0.000855465462     0.001069758391     0.002303509165


  Based on options and gradient (rms=4.37E-03), recommend projecting translations and projecting rotations.
hessian() will perform frequency computation by finite difference of analytic gradients.

         ----------------------------------------------------------
                                   FINDIF
                     R. A. King and Jonathon Misiewicz
         ---------------------------------------------------------

  Using finite-differences of gradients to determine vibrational frequencies and 
  normal modes.  Resulting frequencies are only valid at stationary points.
    Generating geometries for use with 3-point formula.
    Displacement size will be 5.00e-03.
    Number of atoms is 9.
    Number of irreps is 2.
    Number of SALCs is 21.
    Translations projected? 1. Rotations projected? 1.
    Index of SALCs per irrep:
     1 :  0  1  2  3  4  5  6  7  8  9  10  11 
     2 :  12  13  14  15  16  17  18  19  20 
    Number of SALCs per irrep:
     Irrep 1: 12
     Irrep 2: 9
    Number of geometries (including reference) is 34.
    Number of displacements per irrep:
      Irrep 1: 24
      Irrep 2: 9

  //>>>>>>>>>>>>>>>>>>>>>>>>>>>>>>>>>>>//
  //    Loading displacement 1 of 34   //
  //<<<<<<<<<<<<<<<<<<<<<<<<<<<<<<<<<<<//
gradient() will perform analytic gradient computation.

*** tstart() called on atlantis
*** at Tue Apr 19 15:46:44 2022

   => Loading Basis Set <=

    Name: 6-31G
    Role: ORBITAL
    Keyword: BASIS
    atoms 1-3 entry C          line    87 file /home/akrom/software/anaconda3/envs/ffpenv/share/psi4/basis/6-31g.gbs 
    atoms 4-9 entry H          line    26 file /home/akrom/software/anaconda3/envs/ffpenv/share/psi4/basis/6-31g.gbs 


         ---------------------------------------------------------
                                   SCF
               by Justin Turney, Rob Parrish, Andy Simmonett
                          and Daniel G. A. Smith
                              RHF Reference
                        1 Threads,    500 MiB Core
         ---------------------------------------------------------

  ==> Geometry <==

    Molecular point group: cs
    Full point group: Cs

    Geometry (in Angstrom), charge = 0, multiplicity = 1:

       Center              X                  Y                   Z               Mass       
    ------------   -----------------  -----------------  -----------------  -----------------
         C            0.321531939855     0.813261460475     0.000000000000    12.000000000000
         C           -0.865048060145    -0.128168539525     0.000000000000    12.000000000000
         C            0.543531939855    -0.685078539525     0.000000000000    12.000000000000
         H            0.537951939855     1.360691460475    -0.920390000000     1.007825032230
         H            0.537951939855     1.360691460475     0.920390000000     1.007825032230
         H           -1.447418060145    -0.214488539525     0.920340000000     1.007825032230
         H           -1.447418060145    -0.214488539525    -0.920340000000     1.007825032230
         H            0.909371939855    -1.146288539525    -0.920370000000     1.007825032230
         H            0.909371939855    -1.146288539525     0.920370000000     1.007825032230

  Running in cs symmetry.

  Rotational constants: A =      0.66472  B =      0.66470  C =      0.41647 [cm^-1]
  Rotational constants: A =  19927.70596  B =  19927.20236  C =  12485.44714 [MHz]
  Nuclear repulsion =   75.281464809014025

  Charge       = 0
  Multiplicity = 1
  Electrons    = 24
  Nalpha       = 12
  Nbeta        = 12

  ==> Algorithm <==

  SCF Algorithm Type is PK.
  DIIS enabled.
  MOM disabled.
  Fractional occupation disabled.
  Guess Type is SAD.
  Energy threshold   = 1.00e-10
  Density threshold  = 1.00e-10
  Integral threshold = 0.00e+00

  ==> Primary Basis <==

  Basis Set: 6-31G
    Blend: 6-31G
    Number of shells: 27
    Number of basis function: 39
    Number of Cartesian functions: 39
    Spherical Harmonics?: false
    Max angular momentum: 1

  ==> Pre-Iterations <==

   -------------------------------------------------------
    Irrep   Nso     Nmo     Nalpha   Nbeta   Ndocc  Nsocc
   -------------------------------------------------------
     A'        27      27       0       0       0       0
     A"        12      12       0       0       0       0
   -------------------------------------------------------
    Total      39      39      12      12      12       0
   -------------------------------------------------------

  ==> Integral Setup <==

  Using in-core PK algorithm.
   Calculation information:
      Number of atoms:                   9
      Number of AO shells:              27
      Number of primitives:             66
      Number of atomic orbitals:        39
      Number of basis functions:        39

      Integral cutoff                 1.00e-12
      Number of threads:                 1

  Performing in-core PK
  Using 609180 doubles for integral storage.
  We computed 71625 shell quartets total.
  Whereas there are 71631 unique shell quartets.

  ==> DiskJK: Disk-Based J/K Matrices <==

    J tasked:                  Yes
    K tasked:                  Yes
    wK tasked:                  No
    Memory [MiB]:              375
    Schwarz Cutoff:          1E-12

    OpenMP threads:              1

  Minimum eigenvalue in the overlap matrix is 9.9475880981E-03.
  Using Symmetric Orthogonalization.

  SCF Guess: Superposition of Atomic Densities via on-the-fly atomic UHF.

  ==> Iterations <==

                        Total Energy        Delta E     RMS |[F,P]|

   @RHF iter SAD:  -116.54542551550338   -1.16545e+02   0.00000e+00 
   @RHF iter   1:  -116.95975552267029   -4.14330e-01   9.01971e-03 DIIS
   @RHF iter   2:  -117.00004783271538   -4.02923e-02   3.46718e-03 DIIS
   @RHF iter   3:  -117.00583333990413   -5.78551e-03   6.44894e-04 DIIS
   @RHF iter   4:  -117.00616687725503   -3.33537e-04   6.69923e-05 DIIS
   @RHF iter   5:  -117.00617163419966   -4.75694e-06   5.99784e-06 DIIS
   @RHF iter   6:  -117.00617168072856   -4.65289e-08   8.84164e-07 DIIS
   @RHF iter   7:  -117.00617168167740   -9.48845e-10   1.15538e-07 DIIS
   @RHF iter   8:  -117.00617168168870   -1.12976e-11   1.45864e-08 DIIS
   @RHF iter   9:  -117.00617168168903   -3.26850e-13   2.29641e-09 DIIS
   @RHF iter  10:  -117.00617168168894    8.52651e-14   7.71829e-10 DIIS
   @RHF iter  11:  -117.00617168168897   -2.84217e-14   6.61941e-11 DIIS
  Energy and wave function converged.


  ==> Post-Iterations <==

    Orbital Energies [Eh]
    ---------------------

    Doubly Occupied:                                                      

       1Ap   -11.229649     2Ap   -11.228731     3Ap   -11.228727  
       4Ap    -1.134537     5Ap    -0.813730     6Ap    -0.813724  
       1App   -0.666967     7Ap    -0.620074     2App   -0.507786  
       3App   -0.507771     8Ap    -0.416158     9Ap    -0.416150  

    Virtual:                                                              

      10Ap     0.240922     4App    0.253326    11Ap     0.299820  
      12Ap     0.299826    13Ap     0.316084     5App    0.378266  
       6App    0.378271    14Ap     0.419320    15Ap     0.419330  
      16Ap     0.700388     7App    0.783599    17Ap     0.795688  
      18Ap     0.795710    19Ap     0.916422    20Ap     0.916436  
      21Ap     0.958949    22Ap     1.009901     8App    1.046824  
       9App    1.046886    10App    1.203342    23Ap     1.243014  
      24Ap     1.243025    25Ap     1.271190    11App    1.286299  
      12App    1.286348    26Ap     1.540342    27Ap     1.540350  

    Final Occupation by Irrep:
             Ap   App 
    DOCC [     9,    3 ]

  @RHF Final Energy:  -117.00617168168897

   => Energetics <=

    Nuclear Repulsion Energy =             75.2814648090140253
    One-Electron Energy =                -305.4072668640451411
    Two-Electron Energy =                 113.1196303733421331
    Total Energy =                       -117.0061716816889685

Computation Completed


Properties will be evaluated at   0.000000,   0.000000,   0.000000 [a0]

Properties computed using the SCF density matrix

  Nuclear Dipole Moment: [e a0]
     X:    -0.0002      Y:    -0.0002      Z:     0.0000

  Electronic Dipole Moment: [e a0]
     X:     0.0001      Y:     0.0001      Z:     0.0000

  Dipole Moment: [e a0]
     X:    -0.0000      Y:    -0.0000      Z:     0.0000     Total:     0.0000

  Dipole Moment: [D]
     X:    -0.0001      Y:    -0.0001      Z:     0.0000     Total:     0.0001


*** tstop() called on atlantis at Tue Apr 19 15:46:45 2022
Module time:
	user time   =       0.41 seconds =       0.01 minutes
	system time =       0.01 seconds =       0.00 minutes
	total time  =          1 seconds =       0.02 minutes
Total time:
	user time   =       2.58 seconds =       0.04 minutes
	system time =       0.38 seconds =       0.01 minutes
	total time  =          3 seconds =       0.05 minutes
 MINTS: Wrapper to libmints.
   by Justin Turney

   Calculation information:
      Number of threads:                 1
      Number of atoms:                   9
      Number of AO shells:              27
      Number of SO shells:              21
      Number of primitives:             66
      Number of atomic orbitals:        39
      Number of basis functions:        39

      Number of irreps:                  2
      Integral cutoff                 0.00e+00
      Number of functions per irrep: [  27   12 ]

 OEINTS: Overlap, kinetic, potential, dipole, and quadrupole integrals
         stored in file 35.

      Computing two-electron integrals...done
      Computed 155971 non-zero two-electron integrals.
        Stored in file 33.


*** tstart() called on atlantis
*** at Tue Apr 19 15:46:45 2022


	Wfn Parameters:
	--------------------
	Wavefunction         = CCSD
	Number of irreps     = 2
	Number of MOs        = 39
	Number of active MOs = 39
	AO-Basis             = NONE
	Semicanonical        = false
	Reference            = RHF
	Print Level          = 1

	IRREP	# MOs	# FZDC	# DOCC	# SOCC	# VIRT	# FZVR
	-----	-----	------	------	------	------	------
	 Ap	   27	    0	    9	    0	    18	    0
	 App	   12	    0	    3	    0	    9	    0
	Transforming integrals...
	IWL integrals will be deleted.
	(OO|OO)...
	Presorting SO-basis two-electron integrals.
	Sorting File: SO Ints (nn|nn) nbuckets = 1
	Transforming the one-electron integrals and constructing Fock matrices
	Starting first half-transformation.
	Sorting half-transformed integrals.
	First half integral transformation complete.
	Starting second half-transformation.
	Two-electron integral transformation complete.
	(OO|OV)...
	Starting second half-transformation.
	Two-electron integral transformation complete.
	(OO|VV)...
	Starting second half-transformation.
	Two-electron integral transformation complete.
	(OV|OO)...
	Starting first half-transformation.
	Sorting half-transformed integrals.
	First half integral transformation complete.
	Starting second half-transformation.
	Two-electron integral transformation complete.
	(OV|OV)...
	Starting second half-transformation.
	Two-electron integral transformation complete.
	(OV|VV)...
	Starting second half-transformation.
	Two-electron integral transformation complete.
	(VV|OO)...
	Starting first half-transformation.
	Sorting half-transformed integrals.
	First half integral transformation complete.
	Starting second half-transformation.
	Two-electron integral transformation complete.
	(VV|OV)...
	Starting second half-transformation.
	Two-electron integral transformation complete.
	(VV|VV)...
	Starting second half-transformation.
	Two-electron integral transformation complete.
	Frozen core energy     =      0.00000000000000

	Size of irrep 0 of <ab|cd> integrals:      0.164 (MW) /      1.312 (MB)
	Size of irrep 1 of <ab|cd> integrals:      0.105 (MW) /      0.840 (MB)
	Total:                                     0.269 (MW) /      2.152 (MB)

	Size of irrep 0 of <ia|bc> integrals:      0.077 (MW) /      0.612 (MB)
	Size of irrep 1 of <ia|bc> integrals:      0.044 (MW) /      0.350 (MB)
	Total:                                     0.120 (MW) /      0.962 (MB)

	Size of irrep 0 of tijab amplitudes:       0.036 (MW) /      0.292 (MB)
	Size of irrep 1 of tijab amplitudes:       0.017 (MW) /      0.140 (MB)
	Total:                                     0.054 (MW) /      0.432 (MB)

	Nuclear Rep. energy          =     75.28146480901403
	SCF energy                   =   -117.00617168168897
	One-electron energy          =   -305.40726686612891
	Two-electron energy          =    113.11963037542465
	Reference energy             =   -117.00617168169022

*** tstop() called on atlantis at Tue Apr 19 15:46:45 2022
Module time:
	user time   =       0.05 seconds =       0.00 minutes
	system time =       0.01 seconds =       0.00 minutes
	total time  =          0 seconds =       0.00 minutes
Total time:
	user time   =       2.72 seconds =       0.05 minutes
	system time =       0.39 seconds =       0.01 minutes
	total time  =          3 seconds =       0.05 minutes
            **************************
            *                        *
            *        CCENERGY        *
            *                        *
            **************************

    Nuclear Rep. energy (wfn)     =   75.281464809014025
    SCF energy          (wfn)     = -117.006171681688969
    Reference energy    (file100) = -117.006171681690219

    Input parameters:
    -----------------
    Wave function   =     CCSD
    Reference wfn   =     RHF
    Brueckner       =     No
    Memory (Mbytes) =     524.3
    Maxiter         =     50
    R_Convergence   =     1.0e-07
    E_Convergence   =     1.0e-08
    Restart         =     Yes
    DIIS            =     Yes
    AO Basis        =     NONE
    ABCD            =     NEW
    Cache Level     =     2
    Cache Type      =     LOW
    Print Level     =     1
    Num. of threads =     1
    # Amps to Print =     10
    Print MP2 Amps? =     No
    Analyze T2 Amps =     No
    Print Pair Ener =     No
    Local CC        =     No
    SCS-MP2         =     False
    SCSN-MP2        =     False
    SCS-CCSD        =     False

MP2 correlation energy -0.2761940743147323
                Solving CC Amplitude Equations
                ------------------------------
  Iter             Energy              RMS        T1Diag      D1Diag    New D1Diag    D2Diag
  ----     ---------------------    ---------   ----------  ----------  ----------   --------
     0        -0.276194074314732    0.000e+00    0.000000    0.000000    0.000000    0.116576
     1        -0.299209794577222    5.448e-02    0.003313    0.006752    0.006752    0.129445
     2        -0.310716057857488    2.057e-02    0.004251    0.008964    0.008964    0.140075
     3        -0.311486284607136    4.231e-03    0.004479    0.009685    0.009685    0.142215
     4        -0.311603241612722    1.222e-03    0.004489    0.009767    0.009767    0.142907
     5        -0.311613056766271    2.914e-04    0.004489    0.009775    0.009775    0.143023
     6        -0.311611625089444    6.259e-05    0.004489    0.009775    0.009775    0.143028
     7        -0.311612378623396    1.506e-05    0.004489    0.009774    0.009774    0.143028
     8        -0.311612506884232    3.263e-06    0.004489    0.009775    0.009775    0.143027
     9        -0.311612447409974    8.585e-07    0.004489    0.009775    0.009775    0.143027
    10        -0.311612455316187    2.081e-07    0.004489    0.009774    0.009774    0.143027
    11        -0.311612458033636    4.828e-08    0.004489    0.009774    0.009774    0.143027

    Iterations converged.


    Largest TIA Amplitudes:
              7   8         0.0087103043
              8   7        -0.0087094416
             10  23         0.0070004078
             11  22         0.0070003236
             10  19        -0.0058402789
             11  20        -0.0058396664
              9  24         0.0043824230
              4  16        -0.0038299106
              5  17         0.0038298991
              3   0        -0.0034622120

    Largest TIjAb Amplitudes:
      8   8   3   3        -0.0536311653
      7   7   3   3        -0.0536240100
     11  11  20  20        -0.0227935594
     10  10  19  19        -0.0227917721
      8   8   3  11        -0.0215391968
      8   8  11   3        -0.0215391968
      7   7   3  11        -0.0215357783
      7   7  11   3        -0.0215357783
      9   9  18  18        -0.0199265637
     11  11  18  18        -0.0188496171

    SCF energy       (wfn)                    = -117.006171681688969
    Reference energy (file100)                = -117.006171681690219

    Opposite-spin MP2 correlation energy      =   -0.217383086066419
    Same-spin MP2 correlation energy          =   -0.058810988248314
    MP2 correlation energy                    =   -0.276194074314732
      * MP2 total energy                      = -117.282365756004950

    Opposite-spin CCSD correlation energy     =   -0.259775607347022
    Same-spin CCSD correlation energy         =   -0.051836850686614
    CCSD correlation energy                   =   -0.311612458033636
      * CCSD total energy                     = -117.317784139723855


			**************************
			*                        *
			*         CCHBAR         *
			*                        *
			**************************


			**************************
			*        CCLAMBDA        *
			**************************


	Nuclear Rep. energy (wfn)     =   75.281464809014025
	Reference           (wfn)     =                    0
	SCF energy          (wfn)     = -117.006171681688969
	Reference energy    (CC_INFO) = -117.006171681690219
	CCSD energy         (CC_INFO) =   -0.311612458033636
	Total CCSD energy   (CC_INFO) = -117.317784139723855

	Input parameters:
	-----------------
	Maxiter           =     50
	Convergence       = 1.0e-07
	Restart           =     No
	Cache Level       =     2
	Model III         =     No
	DIIS              =     Yes
	AO Basis          =     No
	ABCD              =     NEW
	Local CC          =     No
	Parameters for left-handed eigenvectors:
	    Irr   Root  Ground-State?    EOM energy        R0
	  1   0     0        Yes       0.0000000000   1.0000000000
	Labels for eigenvector 1:
	LIA 0 -1, Lia 0 -1, LIJAB 0 -1, Lijab 0 -1, LIjAb 0 -1, 2LIjAb - LIjbA 0 -1
	Symmetry of left-hand state: Ap
	Symmetry of left-hand eigenvector: Ap

	          Solving Lambda Equations
	          ------------------------
	Iter     PseudoEnergy or Norm         RMS  
	----     ---------------------     --------
	   0        -0.311654617832430    8.790e-08
	   1        -0.306993091444575    1.018e-02
	   2        -0.306079061702792    1.898e-03
	   3        -0.305920092493909    5.019e-04
	   4        -0.305897101434144    1.284e-04
	   5        -0.305895345115549    2.702e-05
	   6        -0.305894848256307    6.383e-06
	   7        -0.305894764211259    1.507e-06
	   8        -0.305894747063547    3.900e-07
	   9        -0.305894741192693    8.790e-08

	Largest LIA Amplitudes:
	          7   8         0.0066751598
	          8   7        -0.0066745222
	         10  19        -0.0058220768
	         11  20        -0.0058214774
	         11  22         0.0050974155
	         10  23         0.0050970733
	          4   1        -0.0039886150
	          5   2        -0.0039883772
	          6   0        -0.0039193299
	          3   0        -0.0036278210

	Largest LIjAb Amplitudes:
	  8   8   3   3        -0.0514652427
	  7   7   3   3        -0.0514584211
	 11  11  20  20        -0.0224319223
	 10  10  19  19        -0.0224301927
	  8   8   3  11        -0.0206812249
	  8   8  11   3        -0.0206812249
	  7   7   3  11        -0.0206779354
	  7   7  11   3        -0.0206779354
	  9   9  18  18        -0.0196883999
	 11  11  18  18        -0.0184036762

	Iterations converged.

	Overlap <L|e^T> =        0.85911699957

			**************************
			*                        *
			*        CCDENSITY       *
			*                        *
			**************************


	Input parameters:
	-----------------
	Wave function    =   CCSD
	Reference wfn    =   RHF
	Dertype          = 1
	Tolerance        = 1.0e-14
	Cache Level      = 2
	AO Basis         = No
	OPDM Only        = No
	Relax OPDM       = Yes
	Compute Xi       = No
	Use Zeta         = No
	Xi connected     = Yes
	Compute NO       = No

	Nuclear Rep. energy (wfn)     =   75.281464809014025
	SCF energy          (wfn)     = -117.006171681688969
	Reference energy    (file100) = -117.006171681690219
	CCSD energy         (CC_INFO) =   -0.311612458033636
	Total CCSD energy   (CC_INFO) = -117.317784139723855
	Number of States = 1

	Ground?  State     EOM Energy       R0
	  Yes     0 Ap    0.0000000000   1.00000000

	Virial Theorem Data:
	--------------------
	Kinetic energy (ref)   =  117.037795026423879
	Kinetic energy (corr)  =    0.409636848505676
	Kinetic energy (total) =  117.447431874929549
	-V/T (ref)             =    1.999729802285437
	-V/T (corr)            =    1.760704168021930
	-V/T (total)           =    1.998896121157049
  Cartesian Displacement SALCs
  By SALC:
  Number of SALCs: 15, nirreps: A'
  Project out translations: False
  Project out rotations: False
	irrep = 0, ncomponent = 1
		0: atom 0, direction x, coef 1.000000
	irrep = 0, ncomponent = 1
		0: atom 0, direction y, coef 1.000000
	irrep = 0, ncomponent = 1
		0: atom 1, direction x, coef 1.000000
	irrep = 0, ncomponent = 1
		0: atom 1, direction y, coef 1.000000
	irrep = 0, ncomponent = 1
		0: atom 2, direction x, coef 1.000000
	irrep = 0, ncomponent = 1
		0: atom 2, direction y, coef 1.000000
	irrep = 0, ncomponent = 2
		0: atom 3, direction x, coef 0.707107
		1: atom 4, direction x, coef 0.707107
	irrep = 0, ncomponent = 2
		0: atom 3, direction y, coef 0.707107
		1: atom 4, direction y, coef 0.707107
	irrep = 0, ncomponent = 2
		0: atom 3, direction z, coef 0.707107
		1: atom 4, direction z, coef -0.707107
	irrep = 0, ncomponent = 2
		0: atom 5, direction x, coef 0.707107
		1: atom 6, direction x, coef 0.707107
	irrep = 0, ncomponent = 2
		0: atom 5, direction y, coef 0.707107
		1: atom 6, direction y, coef 0.707107
	irrep = 0, ncomponent = 2
		0: atom 5, direction z, coef 0.707107
		1: atom 6, direction z, coef -0.707107
	irrep = 0, ncomponent = 2
		0: atom 7, direction x, coef 0.707107
		1: atom 8, direction x, coef 0.707107
	irrep = 0, ncomponent = 2
		0: atom 7, direction y, coef 0.707107
		1: atom 8, direction y, coef 0.707107
	irrep = 0, ncomponent = 2
		0: atom 7, direction z, coef 0.707107
		1: atom 8, direction z, coef -0.707107

  By Atomic Center:
  Number of atomic centers: 9
   Atomic Center 0:
	x component, size = 1
		0: salc 0, irrep 0, coef 1.000000
	y component, size = 1
		0: salc 1, irrep 0, coef 1.000000
	z component, size = 0
   Atomic Center 1:
	x component, size = 1
		0: salc 2, irrep 0, coef 1.000000
	y component, size = 1
		0: salc 3, irrep 0, coef 1.000000
	z component, size = 0
   Atomic Center 2:
	x component, size = 1
		0: salc 4, irrep 0, coef 1.000000
	y component, size = 1
		0: salc 5, irrep 0, coef 1.000000
	z component, size = 0
   Atomic Center 3:
	x component, size = 1
		0: salc 6, irrep 0, coef 0.707107
	y component, size = 1
		0: salc 7, irrep 0, coef 0.707107
	z component, size = 1
		0: salc 8, irrep 0, coef 0.707107
   Atomic Center 4:
	x component, size = 1
		0: salc 6, irrep 0, coef 0.707107
	y component, size = 1
		0: salc 7, irrep 0, coef 0.707107
	z component, size = 1
		0: salc 8, irrep 0, coef -0.707107
   Atomic Center 5:
	x component, size = 1
		0: salc 9, irrep 0, coef 0.707107
	y component, size = 1
		0: salc 10, irrep 0, coef 0.707107
	z component, size = 1
		0: salc 11, irrep 0, coef 0.707107
   Atomic Center 6:
	x component, size = 1
		0: salc 9, irrep 0, coef 0.707107
	y component, size = 1
		0: salc 10, irrep 0, coef 0.707107
	z component, size = 1
		0: salc 11, irrep 0, coef -0.707107
   Atomic Center 7:
	x component, size = 1
		0: salc 12, irrep 0, coef 0.707107
	y component, size = 1
		0: salc 13, irrep 0, coef 0.707107
	z component, size = 1
		0: salc 14, irrep 0, coef 0.707107
   Atomic Center 8:
	x component, size = 1
		0: salc 12, irrep 0, coef 0.707107
	y component, size = 1
		0: salc 13, irrep 0, coef 0.707107
	z component, size = 1
		0: salc 14, irrep 0, coef -0.707107

    Molecular point group: cs
    Full point group: Cs

    Geometry (in Bohr), charge = 0, multiplicity = 1:

       Center              X                  Y                   Z       
    ------------   -----------------  -----------------  -----------------
         C            0.607607306914     1.536841428687     0.000000000000
         C           -1.634703919032    -0.242203437603     0.000000000000
         C            1.027126506766    -1.294610814132     0.000000000000
         H            1.016581834986     2.571334201546    -1.739285028610
         H            1.016581834986     2.571334201546     1.739285028610
         H           -2.735223722715    -0.405324596752     1.739190542304
         H           -2.735223722715    -0.405324596752    -1.739190542304
         H            1.718463912503    -2.166171400454    -1.739247234088
         H            1.718463912503    -2.166171400454     1.739247234088

	Presorting MO-basis TPDM.
	Sorting File: MO TPDM (AA|AA) nbuckets = 1
	Starting first half-transformation.
	Sorting half-transformed TPDM.
	First half integral transformation complete.


  -Nuclear Repulsion Energy 1st Derivatives:
     Atom            X                  Y                   Z
    ------   -----------------  -----------------  -----------------
       1       -2.592111453938    -6.556100075531     0.000000000000
       2        6.973669949172     1.033154087036     0.000000000000
       3       -4.381860927033     5.522668221185     0.000000000000
       4       -0.529292910653    -1.338801441551     1.575980406544
       5       -0.529292910653    -1.338801441551    -1.575980406544
       6        1.424171732267     0.211061483034    -1.575901173652
       7        1.424171732267     0.211061483034     1.575901173652
       8       -0.894727605715     1.127878842172     1.575946927528
       9       -0.894727605715     1.127878842172    -1.575946927528


  -Core Hamiltonian Gradient:
     Atom            X                  Y                   Z
    ------   -----------------  -----------------  -----------------
       1        4.243203027199    10.732018746350     0.000000000000
       2      -11.414784736742    -1.690926980456     0.000000000000
       3        7.172975180634    -9.039854395477     0.000000000000
       4        1.207790737161     3.055115060875    -4.135477309923
       5        1.207790737161     3.055115060875     4.135477309923
       6       -3.250161823202    -0.481764257190     4.135050463666
       7       -3.250161823202    -0.481764257190    -4.135050463666
       8        2.041674350496    -2.573969488894    -4.135300882529
       9        2.041674350496    -2.573969488894     4.135300882529


  -Lagrangian contribution to gradient:
     Atom            X                  Y                   Z
    ------   -----------------  -----------------  -----------------
       1        0.018100697829     0.045798519358     0.000000000000
       2       -0.048758660098    -0.007239308559     0.000000000000
       3        0.030595665099    -0.038613665233     0.000000000000
       4       -0.034952333334    -0.088415779084     0.162751757532
       5       -0.034952333334    -0.088415779084    -0.162751757532
       6        0.094067102398     0.013946396323    -0.162731222511
       7        0.094067102398     0.013946396323     0.162731222511
       8       -0.059083620479     0.074496609978     0.162743162013
       9       -0.059083620479     0.074496609978    -0.162743162013


  -Two-electron contribution to gradient:
     Atom            X                  Y                   Z
    ------   -----------------  -----------------  -----------------
       1       -1.673797944764    -4.233365054661     0.000000000000
       2        4.502289576716     0.666855542485     0.000000000000
       3       -2.829496435225     3.565624994343     0.000000000000
       4       -0.644051895892    -1.629175025186     2.394437906611
       5       -0.644051895892    -1.629175025186    -2.394437906611
       6        1.733272887127     0.256953489077    -2.394120509603
       7        1.733272887127     0.256953489077     2.394120509603
       8       -1.088718589598     1.372663795025     2.394307283672
       9       -1.088718589598     1.372663795025    -2.394307283672


  -Total gradient:
     Atom            X                  Y                   Z
    ------   -----------------  -----------------  -----------------
       1       -0.004605673674    -0.011647864484     0.000000000000
       2        0.012416129048     0.001843340505     0.000000000000
       3       -0.007786516525     0.009825154819     0.000000000000
       4       -0.000506402718    -0.001277184946    -0.002307239236
       5       -0.000506402718    -0.001277184946     0.002307239236
       6        0.001349898591     0.000197111244     0.002297557901
       7        0.001349898591     0.000197111244    -0.002297557901
       8       -0.000855465296     0.001069758282    -0.002303509316
       9       -0.000855465296     0.001069758282     0.002303509316


  //>>>>>>>>>>>>>>>>>>>>>>>>>>>>>>>>>>>//
  //    Loading displacement 2 of 34   //
  //<<<<<<<<<<<<<<<<<<<<<<<<<<<<<<<<<<<//
gradient() will perform analytic gradient computation.

*** tstart() called on atlantis
*** at Tue Apr 19 15:46:46 2022

   => Loading Basis Set <=

    Name: 6-31G
    Role: ORBITAL
    Keyword: BASIS
    atoms 1-3 entry C          line    87 file /home/akrom/software/anaconda3/envs/ffpenv/share/psi4/basis/6-31g.gbs 
    atoms 4-9 entry H          line    26 file /home/akrom/software/anaconda3/envs/ffpenv/share/psi4/basis/6-31g.gbs 


         ---------------------------------------------------------
                                   SCF
               by Justin Turney, Rob Parrish, Andy Simmonett
                          and Daniel G. A. Smith
                              RHF Reference
                        1 Threads,    500 MiB Core
         ---------------------------------------------------------

  ==> Geometry <==

    Molecular point group: cs
    Full point group: Cs

    Geometry (in Angstrom), charge = 0, multiplicity = 1:

       Center              X                  Y                   Z               Mass       
    ------------   -----------------  -----------------  -----------------  -----------------
         C            0.320981935461     0.813179232929     0.000000000000    12.000000000000
         C           -0.864778117207    -0.127947314912     0.000000000000    12.000000000000
         C            0.543659460418    -0.685217540638     0.000000000000    12.000000000000
         H            0.538602639069     1.360553886373    -0.920390000000     1.007825032230
         H            0.538602639069     1.360553886373     0.920390000000     1.007825032230
         H           -1.447170192407    -0.214118381478     0.920340000000     1.007825032230
         H           -1.447170192407    -0.214118381478    -0.920340000000     1.007825032230
         H            0.909381512053    -1.146521099385    -0.920370000000     1.007825032230
         H            0.909381512053    -1.146521099385     0.920370000000     1.007825032230

  Running in cs symmetry.

  Rotational constants: A =      0.66511  B =      0.66452  C =      0.41655 [cm^-1]
  Rotational constants: A =  19939.46144  B =  19921.88173  C =  12487.97026 [MHz]
  Nuclear repulsion =   75.286659304380962

  Charge       = 0
  Multiplicity = 1
  Electrons    = 24
  Nalpha       = 12
  Nbeta        = 12

  ==> Algorithm <==

  SCF Algorithm Type is PK.
  DIIS enabled.
  MOM disabled.
  Fractional occupation disabled.
  Guess Type is SAD.
  Energy threshold   = 1.00e-10
  Density threshold  = 1.00e-10
  Integral threshold = 0.00e+00

  ==> Primary Basis <==

  Basis Set: 6-31G
    Blend: 6-31G
    Number of shells: 27
    Number of basis function: 39
    Number of Cartesian functions: 39
    Spherical Harmonics?: false
    Max angular momentum: 1

  ==> Pre-Iterations <==

   -------------------------------------------------------
    Irrep   Nso     Nmo     Nalpha   Nbeta   Ndocc  Nsocc
   -------------------------------------------------------
     A'        27      27       0       0       0       0
     A"        12      12       0       0       0       0
   -------------------------------------------------------
    Total      39      39      12      12      12       0
   -------------------------------------------------------

  ==> Integral Setup <==

  Using in-core PK algorithm.
   Calculation information:
      Number of atoms:                   9
      Number of AO shells:              27
      Number of primitives:             66
      Number of atomic orbitals:        39
      Number of basis functions:        39

      Integral cutoff                 1.00e-12
      Number of threads:                 1

  Performing in-core PK
  Using 609180 doubles for integral storage.
  We computed 71625 shell quartets total.
  Whereas there are 71631 unique shell quartets.

  ==> DiskJK: Disk-Based J/K Matrices <==

    J tasked:                  Yes
    K tasked:                  Yes
    wK tasked:                  No
    Memory [MiB]:              375
    Schwarz Cutoff:          1E-12

    OpenMP threads:              1

  Minimum eigenvalue in the overlap matrix is 9.9349217114E-03.
  Using Symmetric Orthogonalization.

  SCF Guess: Superposition of Atomic Densities via on-the-fly atomic UHF.

  ==> Iterations <==

                        Total Energy        Delta E     RMS |[F,P]|

   @RHF iter SAD:  -116.54610302561564   -1.16546e+02   0.00000e+00 
   @RHF iter   1:  -116.95972797628468   -4.13625e-01   9.02223e-03 DIIS
   @RHF iter   2:  -117.00003741046393   -4.03094e-02   3.46931e-03 DIIS
   @RHF iter   3:  -117.00582945127188   -5.79204e-03   6.45019e-04 DIIS
   @RHF iter   4:  -117.00616313936771   -3.33688e-04   6.70044e-05 DIIS
   @RHF iter   5:  -117.00616789789881   -4.75853e-06   6.00363e-06 DIIS
   @RHF iter   6:  -117.00616794446415   -4.65653e-08   8.95203e-07 DIIS
[...]
       4       -0.034948811521    -0.088403499149     0.162744845278
       5       -0.034955858972    -0.088428063742    -0.162758710401
       6        0.094172401484     0.013977511976    -0.162822686844
       7        0.093961833835     0.013915330475     0.162639726815
       8       -0.058862967319     0.074538076991     0.163077386746
       9       -0.059302333168     0.074454297421    -0.162409107745


  -Two-electron contribution to gradient:
     Atom            X                  Y                   Z
    ------   -----------------  -----------------  -----------------
       1       -1.673795180328    -4.233369273032    -0.000022636551
       2        4.502289119070     0.666852271674     0.003262608280
       3       -2.829524950241     3.565643225756    -0.008491136576
       4       -0.644021420674    -1.628941376216     2.394380461048
       5       -0.644082258513    -1.629408719255    -2.394495535759
       6        1.734306220501     0.257564514976    -2.394467179831
       7        1.732239747251     0.256343183462     2.393772938130
       8       -1.084871239244     1.373096061370     2.397337706631
       9       -1.092540037823     1.372220111266    -2.391277225372


  -Total gradient:
     Atom            X                  Y                   Z
    ------   -----------------  -----------------  -----------------
       1       -0.004605674704    -0.011647812070    -0.000000875899
       2        0.012415622924     0.001843124661     0.000428105088
       3       -0.007785788117     0.009822644899    -0.001239137352
       4       -0.000508474461    -0.001282770896    -0.002308235185
       5       -0.000504339502    -0.001271596095     0.002306241942
       6        0.001530496396     0.000200505409     0.002015834626
       7        0.001169983918     0.000193778689    -0.002578545209
       8       -0.001233633411     0.001444293318    -0.001612583982
       9       -0.000478193042     0.000697832087     0.002989195971


         ----------------------------------------------------------
                                   FINDIF
                     R. A. King and Jonathon Misiewicz
         ---------------------------------------------------------

  Computing second-derivative from gradients using projected, 
  symmetry-adapted, cartesian coordinates.

  34 gradients passed in, including the reference geometry.
  Generating complete list of displacements from unique ones.

    Operation 2 takes plus displacements of irrep A" to minus ones.

-------------------------------------------------------------


  ==> Harmonic Vibrational Analysis <==

  non-mass-weighted Hessian:       Symmetric? True   Hermitian? True   Lin Dep Dim?  6 (0)
  projection of translations (True) and rotations (True) removed 6 degrees of freedom (6)
  total projector:                 Symmetric? True   Hermitian? True   Lin Dep Dim?  6 (6)
  mass-weighted Hessian:           Symmetric? True   Hermitian? True   Lin Dep Dim?  6 (0)
  pre-proj  low-frequency mode:    0.0000i [cm^-1]
  pre-proj  low-frequency mode:    0.0000i [cm^-1]
  pre-proj  low-frequency mode:    0.0000i [cm^-1]
  pre-proj  low-frequency mode:    0.0000i [cm^-1]
  pre-proj  low-frequency mode:    0.0000  [cm^-1]
  pre-proj  low-frequency mode:    0.0000  [cm^-1]
  pre-proj  all modes:['0.0001i' '0.0000i' '0.0000i' '0.0000i' '0.0000' '0.0000' '813.8674'
 '813.8832' '910.1471' '916.1557' '916.1941' '1162.2491' '1162.2608'
 '1180.9098' '1208.0826' '1255.6056' '1268.8124' '1268.8170' '1536.2903'
 '1536.3138' '1572.9825' '3112.3845' '3112.4057' '3127.3050' '3193.6694'
 '3193.6787' '3217.0961']
  projected mass-weighted Hessian: Symmetric? True   Hermitian? True   Lin Dep Dim?  6 (6)
  post-proj low-frequency mode:    0.0000i [cm^-1] (TR)
  post-proj low-frequency mode:    0.0000i [cm^-1] (TR)
  post-proj low-frequency mode:    0.0000  [cm^-1] (TR)
  post-proj low-frequency mode:    0.0000  [cm^-1] (TR)
  post-proj low-frequency mode:    0.0000  [cm^-1] (TR)
  post-proj low-frequency mode:    0.0000  [cm^-1] (TR)
  post-proj  all modes:['0.0000i' '0.0000i' '0.0000' '0.0000' '0.0000' '0.0000' '813.8674'
 '813.8832' '910.1471' '916.1557' '916.1941' '1162.2491' '1162.2608'
 '1180.9098' '1208.0826' '1255.6056' '1268.8124' '1268.8170' '1536.2903'
 '1536.3138' '1572.9825' '3112.3845' '3112.4057' '3127.3050' '3193.6694'
 '3193.6787' '3217.0961']

  Vibration                       7                   8                   9           
  Freq [cm^-1]                 813.8674            813.8832            910.1471       
  Irrep                          App                 App                 App          
  Reduced mass [u]              1.0204              1.0204              1.0454        
  Force const [mDyne/A]         0.3982              0.3982              0.5102        
  Turning point v=0 [a0]        0.3808              0.3808              0.3557        
  RMS dev v=0 [a0 u^1/2]        0.2720              0.2720              0.2572        
  Char temp [K]               1170.9739           1170.9968           1309.4990       
  ----------------------------------------------------------------------------------
      1   C               -0.00 -0.00  0.03   -0.00  0.00 -0.01    0.00  0.00 -0.03   
      2   C                0.00  0.00 -0.02    0.00  0.00 -0.02    0.00 -0.00 -0.03   
      3   C               -0.00 -0.00 -0.01   -0.00 -0.00  0.03   -0.00  0.00 -0.03   
      4   H                0.01 -0.33 -0.17    0.43 -0.07  0.05    0.13  0.33  0.20   
      5   H               -0.01  0.33 -0.17   -0.43  0.07  0.05   -0.13 -0.33  0.20   
      6   H                0.27 -0.27  0.13    0.17  0.35  0.13    0.35  0.05  0.20   
      7   H               -0.27  0.27  0.13   -0.17 -0.35  0.13   -0.35 -0.05  0.20   
      8   H                0.39  0.21  0.04   -0.11  0.31 -0.18    0.22 -0.28  0.20   
      9   H               -0.39 -0.21  0.04    0.11 -0.31 -0.18   -0.22  0.28  0.20   

  Vibration                       10                  11                  12          
  Freq [cm^-1]                 916.1557            916.1941           1162.2491       
  Irrep                           Ap                  Ap                  Ap          
  Reduced mass [u]              3.6459              3.6459              1.2749        
  Force const [mDyne/A]         1.8030              1.8031              1.0147        
  Turning point v=0 [a0]        0.1899              0.1899              0.2851        
  RMS dev v=0 [a0 u^1/2]        0.2563              0.2563              0.2276        
  Char temp [K]               1318.1441           1318.1994           1672.2176       
  ----------------------------------------------------------------------------------
      1   C               -0.20  0.18  0.00   -0.18 -0.23 -0.00   -0.08  0.05  0.00   
      2   C                0.28  0.09  0.00   -0.10  0.25 -0.00    0.03 -0.01 -0.00   
      3   C               -0.04 -0.28 -0.00    0.28 -0.07 -0.00   -0.08 -0.08 -0.00   
      4   H               -0.35  0.23 -0.01   -0.22 -0.17  0.03    0.41 -0.17 -0.01   
      5   H               -0.35  0.23  0.01   -0.22 -0.17 -0.03    0.41 -0.17  0.01   
      6   H                0.23  0.12 -0.03   -0.11  0.41  0.01   -0.02  0.09 -0.02   
      7   H                0.23  0.12  0.03   -0.11  0.41 -0.01   -0.02  0.09  0.02   
      8   H               -0.15 -0.33 -0.02    0.34  0.03 -0.02    0.42  0.33 -0.01   
      9   H               -0.15 -0.33  0.02    0.34  0.03  0.02    0.42  0.33  0.01   

  Vibration                       13                  14                  15          
  Freq [cm^-1]                1162.2608           1180.9098           1208.0826       
  Irrep                           Ap                  Ap                 App          
  Reduced mass [u]              1.2749              1.4254              1.0078        
  Force const [mDyne/A]         1.0147              1.1712              0.8666        
  Turning point v=0 [a0]        0.2850              0.2674              0.3145        
  RMS dev v=0 [a0 u^1/2]        0.2276              0.2258              0.2232        
  Char temp [K]               1672.2346           1699.0662           1738.1619       
  ----------------------------------------------------------------------------------
      1   C                0.08 -0.01  0.00   -0.10  0.04 -0.00    0.00 -0.00 -0.00   
      2   C                0.01 -0.12  0.00    0.02 -0.11 -0.00    0.00  0.00 -0.00   
      3   C               -0.05 -0.01 -0.00    0.09  0.07 -0.00   -0.00 -0.00  0.00   
      4   H               -0.34  0.13 -0.02    0.37 -0.15 -0.00   -0.38  0.15  0.00   
      5   H               -0.34  0.13  0.02    0.37 -0.15  0.00    0.38 -0.15  0.00   
      6   H               -0.08  0.56  0.00   -0.06  0.40  0.00   -0.06  0.40  0.00   
      7   H               -0.08  0.56 -0.00   -0.06  0.40 -0.00    0.06 -0.40  0.00   
      8   H                0.16  0.12  0.02   -0.31 -0.25  0.00    0.32  0.25 -0.00   
      9   H                0.16  0.12 -0.02   -0.31 -0.25 -0.00   -0.32 -0.25 -0.00   

  Vibration                       16                  17                  18          
  Freq [cm^-1]                1255.6056           1268.8124           1268.8170       
  Irrep                           Ap                 App                 App          
  Reduced mass [u]              2.9080              1.4606              1.4606        
  Force const [mDyne/A]         2.7012              1.3854              1.3855        
  Turning point v=0 [a0]        0.1816              0.2549              0.2549        
  RMS dev v=0 [a0 u^1/2]        0.2190              0.2178              0.2178        
  Char temp [K]               1806.5368           1825.5385           1825.5451       
  ----------------------------------------------------------------------------------
      1   C               -0.09 -0.22  0.00    0.00  0.00  0.16   -0.00  0.00 -0.04   
      2   C                0.24  0.04 -0.00   -0.00 -0.00 -0.05   -0.00  0.00  0.16   
      3   C               -0.15  0.19 -0.00    0.00 -0.00 -0.12    0.00 -0.00 -0.12   
      4   H               -0.14 -0.34 -0.05   -0.06 -0.40 -0.09    0.38 -0.05  0.02   
      5   H               -0.14 -0.34  0.05    0.06  0.40 -0.09   -0.38  0.05  0.02   
      6   H                0.36  0.05  0.05    0.06  0.38  0.03   -0.40  0.05 -0.09   
      7   H                0.36  0.05 -0.05   -0.06 -0.38  0.03    0.40 -0.05 -0.09   
      8   H               -0.23  0.29 -0.05   -0.04 -0.39  0.07    0.39 -0.06  0.07   
      9   H               -0.23  0.29  0.05    0.04  0.39  0.07   -0.39  0.06  0.07   

  Vibration                       19                  20                  21          
  Freq [cm^-1]                1536.2903           1536.3138           1572.9825       
  Irrep                           Ap                  Ap                  Ap          
  Reduced mass [u]              1.0879              1.0879              1.2708        
  Force const [mDyne/A]         1.5129              1.5129              1.8525        
  Turning point v=0 [a0]        0.2684              0.2684              0.2454        
  RMS dev v=0 [a0 u^1/2]        0.1980              0.1980              0.1956        
  Char temp [K]               2210.3797           2210.4135           2263.1716       
  ----------------------------------------------------------------------------------
      1   C               -0.02 -0.06 -0.00   -0.02 -0.01 -0.00   -0.03 -0.08 -0.00   
      2   C               -0.01 -0.02  0.00   -0.07 -0.01  0.00    0.09  0.01 -0.00   
      3   C                0.02 -0.05 -0.00   -0.04  0.03  0.00   -0.06  0.07  0.00   
      4   H                0.16  0.42  0.32    0.07  0.12  0.10    0.12  0.29  0.25   
      5   H                0.16  0.42 -0.32    0.07  0.12 -0.10    0.12  0.29 -0.25   
      6   H                0.10  0.03  0.07    0.45  0.06  0.32   -0.31 -0.05 -0.25   
      7   H                0.10  0.03 -0.07    0.45  0.06 -0.32   -0.31 -0.05  0.25   
      8   H               -0.20  0.28 -0.24    0.21 -0.24  0.22    0.19 -0.25  0.25   
      9   H               -0.20  0.28  0.24    0.21 -0.24 -0.22    0.19 -0.25 -0.25   

  Vibration                       22                  23                  24          
  Freq [cm^-1]                3112.3845           3112.4057           3127.3050       
  Irrep                           Ap                  Ap                  Ap          
  Reduced mass [u]              1.0510              1.0510              1.0672        
  Force const [mDyne/A]         5.9982              5.9984              6.1497        
  Turning point v=0 [a0]        0.1919              0.1919              0.1899        
  RMS dev v=0 [a0 u^1/2]        0.1391              0.1391              0.1387        
  Char temp [K]               4478.0283           4478.0589           4499.4956       
  ----------------------------------------------------------------------------------
      1   C                0.02  0.04  0.00    0.01  0.02  0.00    0.02  0.04  0.00   
      2   C                0.01  0.00  0.00    0.05  0.01  0.00   -0.04 -0.01 -0.00   
      3   C               -0.03  0.03 -0.00    0.02 -0.02 -0.00    0.03 -0.03  0.00   
      4   H               -0.10 -0.26  0.45   -0.04 -0.11  0.19   -0.08 -0.20  0.35   
      5   H               -0.10 -0.26 -0.45   -0.04 -0.11 -0.19   -0.08 -0.20 -0.35   
      6   H               -0.04 -0.01  0.07   -0.30 -0.04  0.49    0.21  0.03 -0.35   
      7   H               -0.04 -0.01 -0.07   -0.30 -0.04 -0.49    0.21  0.03  0.35   
      8   H                0.15 -0.19 -0.39   -0.12  0.14  0.30   -0.13  0.16  0.35   
      9   H                0.15 -0.19  0.39   -0.12  0.14 -0.30   -0.13  0.16 -0.35   

  Vibration                       25                  26                  27          
  Freq [cm^-1]                3193.6694           3193.6787           3217.0961       
  Irrep                          App                 App                 App          
  Reduced mass [u]              1.1155              1.1155              1.1146        
  Force const [mDyne/A]         6.7032              6.7033              6.7969        
  Turning point v=0 [a0]        0.1838              0.1838              0.1832        
  RMS dev v=0 [a0 u^1/2]        0.1373              0.1373              0.1368        
  Char temp [K]               4594.9793           4594.9926           4628.6850       
  ----------------------------------------------------------------------------------
      1   C               -0.00 -0.00  0.02    0.00  0.00 -0.08    0.00  0.00 -0.06   
      2   C                0.00  0.00 -0.08   -0.00  0.00  0.02    0.00 -0.00 -0.06   
      3   C               -0.00  0.00  0.06    0.00 -0.00  0.06   -0.00  0.00 -0.06   
      4   H                0.03  0.08 -0.13   -0.11 -0.28  0.46   -0.08 -0.21  0.34   
      5   H               -0.03 -0.08 -0.13    0.11  0.28  0.46    0.08  0.21  0.34   
      6   H               -0.30 -0.05  0.47    0.08  0.01 -0.12   -0.22 -0.03  0.34   
      7   H                0.30  0.05  0.47   -0.08 -0.01 -0.12    0.22  0.03  0.34   
      8   H                0.13 -0.17 -0.34    0.14 -0.17 -0.34   -0.14  0.18  0.34   
      9   H               -0.13  0.17 -0.34   -0.14  0.17 -0.34    0.14 -0.18  0.34   

  ==> Thermochemistry Components <==

  Entropy, S
    Electronic S            0.000 [cal/(mol K)]        0.000 [J/(mol K)]       0.00000000 [mEh/K] (multiplicity = 1)
    Translational S        37.135 [cal/(mol K)]      155.375 [J/(mol K)]       0.05917914 [mEh/K] (mol. weight = 42.0470 [u], P = 101325.00 [Pa])
    Rotational S           21.699 [cal/(mol K)]       90.789 [J/(mol K)]       0.03457982 [mEh/K] (symmetry no. = 1)
    Vibrational S           1.094 [cal/(mol K)]        4.576 [J/(mol K)]       0.00174307 [mEh/K]
  Total S                  59.928 [cal/(mol K)]      250.741 [J/(mol K)]       0.09550203 [mEh/K]
  Correction S              0.000 [cal/(mol K)]        0.000 [J/(mol K)]       0.00000000 [mEh/K]

  Constant volume heat capacity, Cv
    Electronic Cv           0.000 [cal/(mol K)]        0.000 [J/(mol K)]       0.00000000 [mEh/K]
    Translational Cv        2.981 [cal/(mol K)]       12.472 [J/(mol K)]       0.00475022 [mEh/K]
    Rotational Cv           2.981 [cal/(mol K)]       12.472 [J/(mol K)]       0.00475022 [mEh/K]
    Vibrational Cv          4.268 [cal/(mol K)]       17.858 [J/(mol K)]       0.00680158 [mEh/K]
  Total Cv                 10.230 [cal/(mol K)]       42.801 [J/(mol K)]       0.01630202 [mEh/K]
  Correction Cv             0.000 [cal/(mol K)]        0.000 [J/(mol K)]       0.00000000 [mEh/K]

  Constant pressure heat capacity, Cp
    Electronic Cp           0.000 [cal/(mol K)]        0.000 [J/(mol K)]       0.00000000 [mEh/K]
    Translational Cp        4.968 [cal/(mol K)]       20.786 [J/(mol K)]       0.00791703 [mEh/K]
    Rotational Cp           2.981 [cal/(mol K)]       12.472 [J/(mol K)]       0.00475022 [mEh/K]
    Vibrational Cp          4.268 [cal/(mol K)]       17.858 [J/(mol K)]       0.00680158 [mEh/K]
  Total Cp                 12.217 [cal/(mol K)]       51.115 [J/(mol K)]       0.01946883 [mEh/K]
  Correction Cp             0.000 [cal/(mol K)]        0.000 [J/(mol K)]       0.00000000 [mEh/K]

  ==> Thermochemistry Energy Analysis <==

  Raw electronic energy, E0
  Total E0, Electronic energy at well bottom at 0 [K]                 -117.31778414 [Eh]

  Zero-point energy, ZPE_vib = Sum_i nu_i / 2
    Electronic ZPE          0.000 [kcal/mol]        0.000 [kJ/mol]       0.00000000 [Eh]
    Translational ZPE       0.000 [kcal/mol]        0.000 [kJ/mol]       0.00000000 [Eh]
    Rotational ZPE          0.000 [kcal/mol]        0.000 [kJ/mol]       0.00000000 [Eh]
    Vibrational ZPE        52.150 [kcal/mol]      218.194 [kJ/mol]       0.08310553 [Eh]       18239.555 [cm^-1]
  Correction ZPE           52.150 [kcal/mol]      218.194 [kJ/mol]       0.08310553 [Eh]       18239.555 [cm^-1]
  Total ZPE, Electronic energy at 0 [K]                               -117.23467861 [Eh]

  Thermal Energy, E (includes ZPE)
    Electronic E            0.000 [kcal/mol]        0.000 [kJ/mol]       0.00000000 [Eh]
    Translational E         0.889 [kcal/mol]        3.718 [kJ/mol]       0.00141628 [Eh]
    Rotational E            0.889 [kcal/mol]        3.718 [kJ/mol]       0.00141628 [Eh]
    Vibrational E          52.417 [kcal/mol]      219.314 [kJ/mol]       0.08353222 [Eh]
  Correction E             54.195 [kcal/mol]      226.751 [kJ/mol]       0.08636477 [Eh]
  Total E, Electronic energy at  298.15 [K]                           -117.23141937 [Eh]

  Enthalpy, H_trans = E_trans + k_B * T
    Electronic H            0.000 [kcal/mol]        0.000 [kJ/mol]       0.00000000 [Eh]
    Translational H         1.481 [kcal/mol]        6.197 [kJ/mol]       0.00236046 [Eh]
    Rotational H            0.889 [kcal/mol]        3.718 [kJ/mol]       0.00141628 [Eh]
    Vibrational H          52.417 [kcal/mol]      219.314 [kJ/mol]       0.08353222 [Eh]
  Correction H             54.787 [kcal/mol]      229.230 [kJ/mol]       0.08730896 [Eh]
  Total H, Enthalpy at  298.15 [K]                                    -117.23047518 [Eh]

  Gibbs free energy, G = H - T * S
    Electronic G            0.000 [kcal/mol]        0.000 [kJ/mol]       0.00000000 [Eh]
    Translational G        -9.591 [kcal/mol]      -40.128 [kJ/mol]      -0.01528380 [Eh]
    Rotational G           -5.581 [kcal/mol]      -23.350 [kJ/mol]      -0.00889370 [Eh]
    Vibrational G          52.091 [kcal/mol]      217.949 [kJ/mol]       0.08301252 [Eh]
  Correction G             36.920 [kcal/mol]      154.471 [kJ/mol]       0.05883503 [Eh]
  Total G, Free enthalpy at  298.15 [K]                               -117.25894911 [Eh]

    Psi4 stopped on: Tuesday, 19 April 2022 03:47PM
    Psi4 wall time for execution: 0:01:06.10

*** Psi4 exiting successfully. Buy a developer a beer!
