
    -----------------------------------------------------------------------
          Psi4: An Open-Source Ab Initio Electronic Structure Package
                               Psi4 1.3.2 release

                         Git: Rev {HEAD} ecbda83 


    R. M. Parrish, L. A. Burns, D. G. A. Smith, A. C. Simmonett,
    A. E. DePrince III, E. G. Hohenstein, U. Bozkaya, A. Yu. Sokolov,
    R. Di Remigio, R. M. Richard, J. F. Gonthier, A. M. James,
    H. R. McAlexander, A. Kumar, M. Saitow, X. Wang, B. P. Pritchard,
    P. Verma, H. F. Schaefer III, K. Patkowski, R. A. King, E. F. Valeev,
    F. A. Evangelista, J. M. Turney, T. D. Crawford, and C. D. Sherrill,
    J. Chem. Theory Comput. 13(7) pp 3185--3197 (2017).
    (doi: 10.1021/acs.jctc.7b00174)


                         Additional Contributions by
    P. Kraus, H. Kruse, M. H. Lechner, M. C. Schieber, R. A. Shaw,
    A. Alenaizan, R. Galvelis, Z. L. Glick, S. Lehtola, and J. P. Misiewicz

    -----------------------------------------------------------------------


    Psi4 started on: Wednesday, 20 April 2022 06:53AM

    Process ID: 13501
    Host:       atlantis
    PSIDATADIR: /home/akrom/software/anaconda3/envs/ffpenv/share/psi4
    Memory:     500.0 MiB
    Threads:    1
    
  ==> Input File <==

--------------------------------------------------------------------------
set basis  cc-pVTZ
molecule {
0 1
   C       -1.22151       -0.69325        0.00000
   C       -1.21114        0.71122        0.00000
   C       -0.01037       -1.40452        0.00000
   C        0.01037        1.40452        0.00000
   C        1.21114       -0.71122        0.00000
   C        1.22151        0.69325        0.00000
   H       -2.17311       -1.23332        0.00000
   H       -2.15464        1.26533        0.00000
   H       -0.01848       -2.49865        0.00000
   H        0.01848        2.49865        0.00000
   H        2.15464       -1.26533        0.00000
   H        2.17311        1.23332        0.00000
}
energy('m06-2x')
frequencies('m06-2x')
--------------------------------------------------------------------------

*** tstart() called on atlantis
*** at Wed Apr 20 06:53:38 2022

   => Loading Basis Set <=

    Name: CC-PVTZ
    Role: ORBITAL
    Keyword: BASIS
    atoms 1-6  entry C          line   186 file /home/akrom/software/anaconda3/envs/ffpenv/share/psi4/basis/cc-pvtz.gbs 
    atoms 7-12 entry H          line    23 file /home/akrom/software/anaconda3/envs/ffpenv/share/psi4/basis/cc-pvtz.gbs 


         ---------------------------------------------------------
                                   SCF
               by Justin Turney, Rob Parrish, Andy Simmonett
                          and Daniel G. A. Smith
                              RKS Reference
                        1 Threads,    500 MiB Core
         ---------------------------------------------------------

  ==> Geometry <==

    Molecular point group: c2h
    Full point group: C2h

    Geometry (in Angstrom), charge = 0, multiplicity = 1:

       Center              X                  Y                   Z               Mass       
    ------------   -----------------  -----------------  -----------------  -----------------
         C           -1.221510000000    -0.693250000000     0.000000000000    12.000000000000
         C           -1.211140000000     0.711220000000     0.000000000000    12.000000000000
         C           -0.010370000000    -1.404520000000     0.000000000000    12.000000000000
         C            0.010370000000     1.404520000000     0.000000000000    12.000000000000
         C            1.211140000000    -0.711220000000     0.000000000000    12.000000000000
         C            1.221510000000     0.693250000000     0.000000000000    12.000000000000
         H           -2.173110000000    -1.233320000000     0.000000000000     1.007825032230
         H           -2.154640000000     1.265330000000     0.000000000000     1.007825032230
         H           -0.018480000000    -2.498650000000     0.000000000000     1.007825032230
         H            0.018480000000     2.498650000000     0.000000000000     1.007825032230
         H            2.154640000000    -1.265330000000     0.000000000000     1.007825032230
         H            2.173110000000     1.233320000000     0.000000000000     1.007825032230

  Running in c2h symmetry.

  Rotational constants: A =      0.18753  B =      0.18752  C =      0.09376 [cm^-1]
  Rotational constants: A =   5621.92707  B =   5621.82252  C =   2810.93740 [MHz]
  Nuclear repulsion =  202.013308935380167

  Charge       = 0
  Multiplicity = 1
  Electrons    = 42
  Nalpha       = 21
  Nbeta        = 21

  ==> Algorithm <==

  SCF Algorithm Type is DF.
  DIIS enabled.
  MOM disabled.
  Fractional occupation disabled.
  Guess Type is SAD.
  Energy threshold   = 1.00e-06
  Density threshold  = 1.00e-06
  Integral threshold = 0.00e+00

  ==> Primary Basis <==

  Basis Set: CC-PVTZ
    Blend: CC-PVTZ
    Number of shells: 96
    Number of basis function: 264
    Number of Cartesian functions: 300
    Spherical Harmonics?: true
    Max angular momentum: 3

  ==> DFT Potential <==

   => Composite Functional: M06-2X <= 

    Hybrid M06-2X Meta-GGA XC Functional

    Y. Zhao and D. G. Truhlar,  Theor. Chem. Acc., 120, 215, 2008


    Deriv               =              1
    GGA                 =           TRUE
    Meta                =           TRUE

    Exchange Hybrid     =           TRUE
    MP2 Hybrid          =          FALSE

   => Exchange Functionals <=

    1.0000   XC_HYB_MGGA_X_M06_2X

   => Exact (HF) Exchange <=

    0.5400               HF 

   => Correlation Functionals <=

    1.0000   XC_MGGA_C_M06_2X

   => Molecular Quadrature <=

    Radial Scheme          =       TREUTLER
    Pruning Scheme         =           FLAT
    Nuclear Scheme         =       TREUTLER

    BS radius alpha        =              1
    Pruning alpha          =              1
    Radial Points          =             75
    Spherical Points       =            302
    Total Points           =         267376
    Total Blocks           =           2098
    Max Points             =            256
    Max Functions          =            261

   => Loading Basis Set <=

    Name: (CC-PVTZ AUX)
    Role: JKFIT
    Keyword: DF_BASIS_SCF
    atoms 1-6  entry C          line   125 file /home/akrom/software/anaconda3/envs/ffpenv/share/psi4/basis/cc-pvtz-jkfit.gbs 
    atoms 7-12 entry H          line    51 file /home/akrom/software/anaconda3/envs/ffpenv/share/psi4/basis/cc-pvtz-jkfit.gbs 

  ==> Pre-Iterations <==

   -------------------------------------------------------
    Irrep   Nso     Nmo     Nalpha   Nbeta   Ndocc  Nsocc
   -------------------------------------------------------
     Ag        90      90       0       0       0       0
     Bg        42      42       0       0       0       0
     Au        42      42       0       0       0       0
     Bu        90      90       0       0       0       0
   -------------------------------------------------------
    Total     264     264      21      21      21       0
   -------------------------------------------------------

  ==> Integral Setup <==

  DFHelper Memory: AOs need 0.348 GiB; user supplied 0.348 GiB. Using in-core AOs.

  ==> MemDFJK: Density-Fitted J/K Matrices <==

    J tasked:                   Yes
    K tasked:                   Yes
    wK tasked:                   No
    OpenMP threads:               1
    Memory [MiB]:               356
    Algorithm:                 Core
    Schwarz Cutoff:           1E-12
    Mask sparsity (%):       2.7577
    Fitting Condition:        1E-10

   => Auxiliary Basis Set <=

  Basis Set: (CC-PVTZ AUX)
    Blend: CC-PVTZ-JKFIT
    Number of shells: 210
    Number of basis function: 654
    Number of Cartesian functions: 786
    Spherical Harmonics?: true
    Max angular momentum: 4

  Cached 0.5% of DFT collocation blocks in 0.017 [GiB].

  Minimum eigenvalue in the overlap matrix is 4.0032826848E-05.
  Using Symmetric Orthogonalization.

  SCF Guess: Superposition of Atomic Densities via on-the-fly atomic UHF.

  ==> Iterations <==

                           Total Energy        Delta E     RMS |[F,P]|

   @DF-RKS iter SAD:  -231.71895141208495   -2.31719e+02   0.00000e+00 
   @DF-RKS iter   1:  -231.91844354845335   -1.99492e-01   5.48765e-03 DIIS
   @DF-RKS iter   2:  -231.98205884421313   -6.36153e-02   4.86263e-03 DIIS
   @DF-RKS iter   3:  -232.21861950136596   -2.36561e-01   4.29990e-04 DIIS
   @DF-RKS iter   4:  -232.22028016920598   -1.66067e-03   5.95689e-05 DIIS
   @DF-RKS iter   5:  -232.22032058149824   -4.04123e-05   7.63497e-06 DIIS
   @DF-RKS iter   6:  -232.22032132425437   -7.42756e-07   6.36080e-07 DIIS
  Energy and wave function converged.


  ==> Post-Iterations <==

    Orbital Energies [Eh]
    ---------------------

    Doubly Occupied:                                                      

       1Ag   -10.549032     1Bu   -10.548700     2Bu   -10.548694  
       2Ag   -10.547936     3Ag   -10.547930     3Bu   -10.547584  
       4Ag    -0.953897     4Bu    -0.839610     5Bu    -0.839602  
       5Ag    -0.683504     6Ag    -0.683491     7Ag    -0.595749  
       6Bu    -0.533469     7Bu    -0.509609     8Bu    -0.485968  
       9Bu    -0.485954     1Au    -0.436150     8Ag    -0.402138  
       9Ag    -0.402128     1Bg    -0.307149     2Bg    -0.307140  

    Virtual:                                                              

       2Au     0.020941     3Au     0.020949    10Ag     0.073301  
      10Bu     0.102283    11Bu     0.102286    11Ag     0.131788  
      12Ag     0.131794    12Bu     0.152889     3Bg     0.190097  
      13Ag     0.262504    14Ag     0.262519    13Bu     0.295359  
      15Ag     0.300425    14Bu     0.300885    15Bu     0.300900  
       4Au     0.317217     4Bg     0.361910     5Bg     0.361928  
      16Ag     0.388186    16Bu     0.402836    17Bu     0.402865  
      18Bu     0.414722    17Ag     0.439397    18Ag     0.439414  
       5Au     0.447846     6Au     0.447852    19Bu     0.465352  
      20Bu     0.465366     7Au     0.485278    19Ag     0.516286  
      20Ag     0.516290    21Ag     0.517626     6Bg     0.524997  
      22Ag     0.532092    21Bu     0.580544    23Ag     0.587173  
      24Ag     0.587183    22Bu     0.614004    23Bu     0.614018  
       7Bg     0.689541     8Bg     0.713764     9Bg     0.713790  
      25Ag     0.754948    24Bu     0.759523    25Bu     0.759544  
      26Bu     0.791940     8Au     0.800835     9Au     0.800848  
      26Ag     0.839486    27Ag     0.891819    28Ag     0.891853  
      27Bu     0.940438    10Au     0.963300    28Bu     0.997964  
      11Au     1.038161    12Au     1.038202    10Bg     1.055450  
      29Ag     1.060354    30Ag     1.060379    11Bg     1.116520  
      12Bg     1.116570    31Ag     1.126826    29Bu     1.141118  
      30Bu     1.141157    31Bu     1.198442    32Bu     1.198485  
      33Bu     1.285385    34Bu     1.285415    35Bu     1.294252  
      32Ag     1.295476    13Bg     1.300081    14Bg     1.300107  
      33Ag     1.314849    34Ag     1.314858    13Au     1.398075  
      14Au     1.398142    36Bu     1.414141    35Ag     1.416704  
      36Ag     1.416718    37Bu     1.455412    38Bu     1.455427  
      37Ag     1.503945    38Ag     1.512649    39Ag     1.512660  
      15Bg     1.559324    15Au     1.594503    39Bu     1.691842  
      40Ag     1.869273    41Ag     1.947460    42Ag     1.947491  
      40Bu     1.979385    41Bu     2.027354    42Bu     2.027383  
      16Au     2.033549    43Ag     2.108780    16Bg     2.147240  
      17Bg     2.147256    43Bu     2.175623    44Bu     2.175638  
      45Bu     2.184188    17Au     2.230121    18Au     2.230133  
      18Bg     2.320684    44Ag     2.377738    45Ag     2.441890  
      46Ag     2.441953    46Bu     2.487219    47Bu     2.487270  
      19Au     2.511818    19Bg     2.531928    47Ag     2.594834  
      48Ag     2.594892    48Bu     2.625272    20Au     2.649378  
      21Au     2.649420    20Bg     2.701055    21Bg     2.701073  
      22Au     2.701290    49Bu     2.721716    50Bu     2.721759  
      22Bg     2.765665    23Bg     2.765733    49Ag     2.778313  
      51Bu     2.785227    50Ag     2.840151    51Ag     2.840282  
      23Au     2.911283    24Bg     2.935223    25Bg     2.935276  
      52Ag     2.968276    53Ag     2.968331    52Bu     2.991480  
      53Bu     2.991596    54Ag     3.012264    54Bu     3.051128  
      55Bu     3.051190    55Ag     3.056446    56Ag     3.056474  
      56Bu     3.058041    24Au     3.073177    25Au     3.073243  
      57Ag     3.080345    57Bu     3.124698    26Bg     3.136343  
      26Au     3.139497    27Au     3.139530    58Ag     3.201406  
      28Au     3.278556    29Au     3.278574    30Au     3.306936  
      27Bg     3.315825    58Bu     3.318236    59Bu     3.318264  
      59Ag     3.341318    60Ag     3.341484    60Bu     3.380227  
      61Bu     3.380286    28Bg     3.382156    29Bg     3.382183  
      62Bu     3.410394    61Ag     3.553589    62Ag     3.553834  
      30Bg     3.556114    31Bg     3.565084    63Ag     3.686651  
      32Bg     3.706909    33Bg     3.706925    31Au     3.712957  
      63Bu     3.733939    64Ag     3.744319    65Ag     3.744419  
      64Bu     3.746315    65Bu     3.746481    32Au     3.763877  
      66Ag     3.765557    66Bu     3.784479    33Au     3.798567  
      34Au     3.798704    34Bg     3.844140    35Bg     3.844173  
      67Bu     3.950844    68Bu     3.951098    69Bu     3.976199  
      35Au     4.034346    36Au     4.034606    67Ag     4.048534  
      68Ag     4.050657    69Ag     4.050712    70Ag     4.051482  
      70Bu     4.116197    36Bg     4.118447    71Bu     4.153209  
      71Ag     4.158932    72Ag     4.159051    72Bu     4.248064  
      73Bu     4.248120    37Au     4.252490    38Au     4.252556  
      37Bg     4.257212    38Bg     4.257278    73Ag     4.292284  
      74Ag     4.292345    75Ag     4.426898    76Ag     4.451212  
      77Ag     4.451379    39Au     4.603683    74Bu     4.603770  
      75Bu     4.603843    39Bg     4.640860    76Bu     4.671442  
      77Bu     4.671601    40Bg     4.701272    41Bg     4.701440  
      40Au     4.704762    78Bu     4.821540    78Ag     4.880297  
      79Ag     4.915610    79Bu     4.918847    41Au     4.952471  
      42Au     4.952639    80Ag     4.976591    81Ag     4.977005  
      80Bu     5.065752    81Bu     5.065912    82Bu     5.269724  
      83Bu     5.270085    42Bg     5.354357    82Ag     5.549901  
      83Ag     5.550432    84Bu     5.593439    84Ag     5.749378  
      85Ag     5.749592    86Ag     5.842504    85Bu     5.966962  
      86Bu     5.967574    87Bu     6.308644    87Ag     6.741518  
      88Ag     8.745072    88Bu    12.092922    89Bu    12.093282  
      89Ag    12.621280    90Ag    12.621658    90Bu    15.094920  

    Final Occupation by Irrep:
             Ag    Bg    Au    Bu 
    DOCC [     9,    2,    1,    9 ]

  @DF-RKS Final Energy:  -232.22032132425437

   => Energetics <=

    Nuclear Repulsion Energy =            202.0133089353801665
    One-Electron Energy =                -711.1920356289560914
    Two-Electron Energy =                 293.6801538550555506
    DFT Exchange-Correlation Energy =     -16.7217484857340324
    Empirical Dispersion Energy =           0.0000000000000000
    VV10 Nonlocal Energy =                  0.0000000000000000
    Total Energy =                       -232.2203213242543995

Computation Completed


Properties will be evaluated at   0.000000,   0.000000,   0.000000 [a0]

Properties computed using the SCF density matrix

  Nuclear Dipole Moment: [e a0]
     X:    -0.0000      Y:    -0.0000      Z:     0.0000

  Electronic Dipole Moment: [e a0]
     X:     0.0000      Y:     0.0000      Z:     0.0000

  Dipole Moment: [e a0]
     X:    -0.0000      Y:    -0.0000      Z:     0.0000     Total:     0.0000

  Dipole Moment: [D]
     X:    -0.0000      Y:    -0.0000      Z:     0.0000     Total:     0.0000


*** tstop() called on atlantis at Wed Apr 20 06:54:22 2022
Module time:
	user time   =      43.60 seconds =       0.73 minutes
	system time =       0.14 seconds =       0.00 minutes
	total time  =         44 seconds =       0.73 minutes
Total time:
	user time   =      43.60 seconds =       0.73 minutes
	system time =       0.14 seconds =       0.00 minutes
	total time  =         44 seconds =       0.73 minutes
gradient() will perform analytic gradient computation.

*** tstart() called on atlantis
*** at Wed Apr 20 06:54:22 2022

   => Loading Basis Set <=

    Name: CC-PVTZ
    Role: ORBITAL
    Keyword: BASIS
    atoms 1-6  entry C          line   186 file /home/akrom/software/anaconda3/envs/ffpenv/share/psi4/basis/cc-pvtz.gbs 
    atoms 7-12 entry H          line    23 file /home/akrom/software/anaconda3/envs/ffpenv/share/psi4/basis/cc-pvtz.gbs 


         ---------------------------------------------------------
                                   SCF
               by Justin Turney, Rob Parrish, Andy Simmonett
                          and Daniel G. A. Smith
                              RKS Reference
                        1 Threads,    500 MiB Core
         ---------------------------------------------------------

  ==> Geometry <==

    Molecular point group: c2h
    Full point group: C2h

    Geometry (in Angstrom), charge = 0, multiplicity = 1:

       Center              X                  Y                   Z               Mass       
    ------------   -----------------  -----------------  -----------------  -----------------
         C           -1.221510000000    -0.693250000000     0.000000000000    12.000000000000
         C           -1.211140000000     0.711220000000     0.000000000000    12.000000000000
         C           -0.010370000000    -1.404520000000     0.000000000000    12.000000000000
         C            0.010370000000     1.404520000000     0.000000000000    12.000000000000
         C            1.211140000000    -0.711220000000     0.000000000000    12.000000000000
         C            1.221510000000     0.693250000000     0.000000000000    12.000000000000
         H           -2.173110000000    -1.233320000000     0.000000000000     1.007825032230
         H           -2.154640000000     1.265330000000     0.000000000000     1.007825032230
         H           -0.018480000000    -2.498650000000     0.000000000000     1.007825032230
         H            0.018480000000     2.498650000000     0.000000000000     1.007825032230
         H            2.154640000000    -1.265330000000     0.000000000000     1.007825032230
         H            2.173110000000     1.233320000000     0.000000000000     1.007825032230

  Running in c2h symmetry.

  Rotational constants: A =      0.18753  B =      0.18752  C =      0.09376 [cm^-1]
  Rotational constants: A =   5621.92707  B =   5621.82252  C =   2810.93740 [MHz]
  Nuclear repulsion =  202.013308935380167

  Charge       = 0
  Multiplicity = 1
  Electrons    = 42
  Nalpha       = 21
  Nbeta        = 21

  ==> Algorithm <==

  SCF Algorithm Type is DF.
  DIIS enabled.
  MOM disabled.
  Fractional occupation disabled.
  Guess Type is SAD.
  Energy threshold   = 1.00e-08
  Density threshold  = 1.00e-08
  Integral threshold = 0.00e+00

  ==> Primary Basis <==

  Basis Set: CC-PVTZ
    Blend: CC-PVTZ
    Number of shells: 96
    Number of basis function: 264
    Number of Cartesian functions: 300
    Spherical Harmonics?: true
    Max angular momentum: 3

  ==> DFT Potential <==

   => Composite Functional: M06-2X <= 

    Hybrid M06-2X Meta-GGA XC Functional

    Y. Zhao and D. G. Truhlar,  Theor. Chem. Acc., 120, 215, 2008


    Deriv               =              1
    GGA                 =           TRUE
    Meta                =           TRUE

    Exchange Hybrid     =           TRUE
    MP2 Hybrid          =          FALSE

   => Exchange Functionals <=

    1.0000   XC_HYB_MGGA_X_M06_2X

   => Exact (HF) Exchange <=

    0.5400               HF 

   => Correlation Functionals <=

    1.0000   XC_MGGA_C_M06_2X

   => Molecular Quadrature <=

    Radial Scheme          =       TREUTLER
    Pruning Scheme         =           FLAT
    Nuclear Scheme         =       TREUTLER

    BS radius alpha        =              1
    Pruning alpha          =              1
    Radial Points          =             75
    Spherical Points       =            302
    Total Points           =         267376
    Total Blocks           =           2098
    Max Points             =            256
    Max Functions          =            261

   => Loading Basis Set <=

    Name: (CC-PVTZ AUX)
    Role: JKFIT
    Keyword: DF_BASIS_SCF
    atoms 1-6  entry C          line   125 file /home/akrom/software/anaconda3/envs/ffpenv/share/psi4/basis/cc-pvtz-jkfit.gbs 
    atoms 7-12 entry H          line    51 file /home/akrom/software/anaconda3/envs/ffpenv/share/psi4/basis/cc-pvtz-jkfit.gbs 

  ==> Pre-Iterations <==

   -------------------------------------------------------
    Irrep   Nso     Nmo     Nalpha   Nbeta   Ndocc  Nsocc
   -------------------------------------------------------
     Ag        90      90       0       0       0       0
     Bg        42      42       0       0       0       0
     Au        42      42       0       0       0       0
     Bu        90      90       0       0       0       0
   -------------------------------------------------------
    Total     264     264      21      21      21       0
   -------------------------------------------------------

  ==> Integral Setup <==

  DFHelper Memory: AOs need 0.348 GiB; user supplied 0.348 GiB. Using in-core AOs.

  ==> MemDFJK: Density-Fitted J/K Matrices <==

    J tasked:                   Yes
    K tasked:                   Yes
    wK tasked:                   No
    OpenMP threads:               1
    Memory [MiB]:               356
    Algorithm:                 Core
    Schwarz Cutoff:           1E-12
    Mask sparsity (%):       2.7577
    Fitting Condition:        1E-10

   => Auxiliary Basis Set <=

  Basis Set: (CC-PVTZ AUX)
    Blend: CC-PVTZ-JKFIT
    Number of shells: 210
    Number of basis function: 654
    Number of Cartesian functions: 786
    Spherical Harmonics?: true
    Max angular momentum: 4

  Cached 0.5% of DFT collocation blocks in 0.017 [GiB].

  Minimum eigenvalue in the overlap matrix is 4.0032826849E-05.
  Using Symmetric Orthogonalization.

  SCF Guess: Superposition of Atomic Densities via on-the-fly atomic UHF.

  ==> Iterations <==

                           Total Energy        Delta E     RMS |[F,P]|

   @DF-RKS iter SAD:  -231.71895141196660   -2.31719e+02   0.00000e+00 
   @DF-RKS iter   1:  -231.91844354833327   -1.99492e-01   5.48765e-03 DIIS
   @DF-RKS iter   2:  -231.98205884409285   -6.36153e-02   4.86263e-03 DIIS
   @DF-RKS iter   3:  -232.21861950124429   -2.36561e-01   4.29990e-04 DIIS
   @DF-RKS iter   4:  -232.22028016908362   -1.66067e-03   5.95689e-05 DIIS
   @DF-RKS iter   5:  -232.22032058137648   -4.04123e-05   7.63497e-06 DIIS
   @DF-RKS iter   6:  -232.22032132413295   -7.42756e-07   6.36080e-07 DIIS
   @DF-RKS iter   7:  -232.22032133291188   -8.77893e-09   1.02826e-07 DIIS
   @DF-RKS iter   8:  -232.22032133305913   -1.47253e-10   3.04895e-08 DIIS
   @DF-RKS iter   9:  -232.22032133306573   -6.59384e-12   1.25577e-08 DIIS
   @DF-RKS iter  10:  -232.22032133306723   -1.50635e-12   2.04363e-10 DIIS
  Energy and wave function converged.


  ==> Post-Iterations <==

    Orbital Energies [Eh]
    ---------------------

    Doubly Occupied:                                                      

       1Ag   -10.549034     1Bu   -10.548702     2Bu   -10.548696  
       2Ag   -10.547938     3Ag   -10.547932     3Bu   -10.547587  
       4Ag    -0.953902     4Bu    -0.839614     5Bu    -0.839605  
       5Ag    -0.683507     6Ag    -0.683494     7Ag    -0.595751  
       6Bu    -0.533471     7Bu    -0.509612     8Bu    -0.485970  
       9Bu    -0.485957     1Au    -0.436153     8Ag    -0.402141  
       9Ag    -0.402131     1Bg    -0.307151     2Bg    -0.307143  

    Virtual:                                                              

       2Au     0.020939     3Au     0.020947    10Ag     0.073301  
      10Bu     0.102284    11Bu     0.102287    11Ag     0.131789  
      12Ag     0.131795    12Bu     0.152890     3Bg     0.190095  
      13Ag     0.262503    14Ag     0.262518    13Bu     0.295357  
      15Ag     0.300424    14Bu     0.300885    15Bu     0.300900  
       4Au     0.317214     4Bg     0.361908     5Bg     0.361926  
      16Ag     0.388184    16Bu     0.402834    17Bu     0.402863  
      18Bu     0.414721    17Ag     0.439396    18Ag     0.439413  
       5Au     0.447844     6Au     0.447850    19Bu     0.465351  
      20Bu     0.465365     7Au     0.485275    19Ag     0.516285  
      20Ag     0.516289    21Ag     0.517624     6Bg     0.524996  
      22Ag     0.532092    21Bu     0.580543    23Ag     0.587172  
      24Ag     0.587182    22Bu     0.614004    23Bu     0.614017  
       7Bg     0.689539     8Bg     0.713763     9Bg     0.713789  
      25Ag     0.754948    24Bu     0.759521    25Bu     0.759543  
      26Bu     0.791938     8Au     0.800834     9Au     0.800847  
      26Ag     0.839483    27Ag     0.891818    28Ag     0.891853  
      27Bu     0.940438    10Au     0.963299    28Bu     0.997964  
      11Au     1.038160    12Au     1.038201    10Bg     1.055450  
      29Ag     1.060354    30Ag     1.060379    11Bg     1.116519  
      12Bg     1.116568    31Ag     1.126825    29Bu     1.141119  
      30Bu     1.141157    31Bu     1.198441    32Bu     1.198484  
      33Bu     1.285384    34Bu     1.285415    35Bu     1.294252  
      32Ag     1.295478    13Bg     1.300080    14Bg     1.300105  
      33Ag     1.314849    34Ag     1.314857    13Au     1.398073  
      14Au     1.398141    36Bu     1.414141    35Ag     1.416704  
      36Ag     1.416717    37Bu     1.455409    38Bu     1.455425  
      37Ag     1.503943    38Ag     1.512647    39Ag     1.512659  
      15Bg     1.559322    15Au     1.594501    39Bu     1.691842  
      40Ag     1.869274    41Ag     1.947459    42Ag     1.947490  
      40Bu     1.979385    41Bu     2.027353    42Bu     2.027381  
      16Au     2.033546    43Ag     2.108779    16Bg     2.147238  
      17Bg     2.147253    43Bu     2.175622    44Bu     2.175637  
      45Bu     2.184186    17Au     2.230118    18Au     2.230130  
      18Bg     2.320685    44Ag     2.377736    45Ag     2.441889  
      46Ag     2.441952    46Bu     2.487218    47Bu     2.487268  
      19Au     2.511819    19Bg     2.531925    47Ag     2.594834  
      48Ag     2.594892    48Bu     2.625272    20Au     2.649379  
      21Au     2.649421    20Bg     2.701055    21Bg     2.701074  
      22Au     2.701287    49Bu     2.721714    50Bu     2.721757  
      22Bg     2.765662    23Bg     2.765731    49Ag     2.778313  
      51Bu     2.785227    50Ag     2.840150    51Ag     2.840281  
      23Au     2.911281    24Bg     2.935221    25Bg     2.935274  
      52Ag     2.968273    53Ag     2.968329    52Bu     2.991479  
      53Bu     2.991595    54Ag     3.012261    54Bu     3.051128  
      55Bu     3.051189    55Ag     3.056445    56Ag     3.056474  
      56Bu     3.058042    24Au     3.073175    25Au     3.073241  
      57Ag     3.080343    57Bu     3.124696    26Bg     3.136342  
      26Au     3.139496    27Au     3.139529    58Ag     3.201406  
      28Au     3.278556    29Au     3.278573    30Au     3.306936  
      27Bg     3.315824    58Bu     3.318235    59Bu     3.318263  
      59Ag     3.341318    60Ag     3.341483    60Bu     3.380227  
      61Bu     3.380286    28Bg     3.382155    29Bg     3.382183  
      62Bu     3.410392    61Ag     3.553588    62Ag     3.553833  
      30Bg     3.556113    31Bg     3.565082    63Ag     3.686651  
      32Bg     3.706909    33Bg     3.706925    31Au     3.712957  
      63Bu     3.733937    64Ag     3.744318    65Ag     3.744419  
      64Bu     3.746315    65Bu     3.746480    32Au     3.763877  
      66Ag     3.765556    66Bu     3.784478    33Au     3.798567  
      34Au     3.798703    34Bg     3.844140    35Bg     3.844173  
      67Bu     3.950844    68Bu     3.951098    69Bu     3.976201  
      35Au     4.034346    36Au     4.034606    67Ag     4.048532  
      68Ag     4.050659    69Ag     4.050714    70Ag     4.051482  
      70Bu     4.116197    36Bg     4.118447    71Bu     4.153209  
      71Ag     4.158931    72Ag     4.159050    72Bu     4.248064  
      73Bu     4.248120    37Au     4.252490    38Au     4.252556  
      37Bg     4.257212    38Bg     4.257279    73Ag     4.292285  
      74Ag     4.292346    75Ag     4.426896    76Ag     4.451213  
      77Ag     4.451379    39Au     4.603684    74Bu     4.603773  
      75Bu     4.603846    39Bg     4.640860    76Bu     4.671443  
      77Bu     4.671602    40Bg     4.701273    41Bg     4.701441  
      40Au     4.704763    78Bu     4.821542    78Ag     4.880298  
      79Ag     4.915612    79Bu     4.918849    41Au     4.952472  
      42Au     4.952640    80Ag     4.976594    81Ag     4.977008  
      80Bu     5.065754    81Bu     5.065914    82Bu     5.269725  
      83Bu     5.270087    42Bg     5.354358    82Ag     5.549902  
      83Ag     5.550433    84Bu     5.593441    84Ag     5.749379  
      85Ag     5.749594    86Ag     5.842509    85Bu     5.966965  
      86Bu     5.967577    87Bu     6.308643    87Ag     6.741523  
      88Ag     8.745072    88Bu    12.092922    89Bu    12.093282  
      89Ag    12.621280    90Ag    12.621660    90Bu    15.094922  

    Final Occupation by Irrep:
             Ag    Bg    Au    Bu 
    DOCC [     9,    2,    1,    9 ]

  @DF-RKS Final Energy:  -232.22032133306723

   => Energetics <=

    Nuclear Repulsion Energy =            202.0133089353801665
    One-Electron Energy =                -711.1916016212419436
    Two-Electron Energy =                 293.6797083856870358
    DFT Exchange-Correlation Energy =     -16.7217370328925341
    Empirical Dispersion Energy =           0.0000000000000000
    VV10 Nonlocal Energy =                  0.0000000000000000
    Total Energy =                       -232.2203213330672611

Computation Completed


Properties will be evaluated at   0.000000,   0.000000,   0.000000 [a0]

Properties computed using the SCF density matrix

  Nuclear Dipole Moment: [e a0]
     X:    -0.0000      Y:    -0.0000      Z:     0.0000

  Electronic Dipole Moment: [e a0]
     X:     0.0000      Y:     0.0000      Z:     0.0000

  Dipole Moment: [e a0]
     X:    -0.0000      Y:    -0.0000      Z:     0.0000     Total:     0.0000

  Dipole Moment: [D]
     X:    -0.0000      Y:    -0.0000      Z:     0.0000     Total:     0.0000


*** tstop() called on atlantis at Wed Apr 20 06:55:29 2022
Module time:
	user time   =      66.58 seconds =       1.11 minutes
	system time =       0.12 seconds =       0.00 minutes
	total time  =         67 seconds =       1.12 minutes
Total time:
	user time   =     110.18 seconds =       1.84 minutes
	system time =       0.26 seconds =       0.00 minutes
	total time  =        111 seconds =       1.85 minutes

*** tstart() called on atlantis
*** at Wed Apr 20 06:55:29 2022


         ------------------------------------------------------------
                                   SCF GRAD                          
                          Rob Parrish, Justin Turney,                
                       Andy Simmonett, and Alex Sokolov              
         ------------------------------------------------------------

  ==> Geometry <==

    Molecular point group: c2h
    Full point group: C2h

    Geometry (in Angstrom), charge = 0, multiplicity = 1:

       Center              X                  Y                   Z               Mass       
    ------------   -----------------  -----------------  -----------------  -----------------
         C           -1.221510000000    -0.693250000000     0.000000000000    12.000000000000
         C           -1.211140000000     0.711220000000     0.000000000000    12.000000000000
         C           -0.010370000000    -1.404520000000     0.000000000000    12.000000000000
         C            0.010370000000     1.404520000000     0.000000000000    12.000000000000
         C            1.211140000000    -0.711220000000     0.000000000000    12.000000000000
         C            1.221510000000     0.693250000000     0.000000000000    12.000000000000
         H           -2.173110000000    -1.233320000000     0.000000000000     1.007825032230
         H           -2.154640000000     1.265330000000     0.000000000000     1.007825032230
         H           -0.018480000000    -2.498650000000     0.000000000000     1.007825032230
         H            0.018480000000     2.498650000000     0.000000000000     1.007825032230
         H            2.154640000000    -1.265330000000     0.000000000000     1.007825032230
         H            2.173110000000     1.233320000000     0.000000000000     1.007825032230

  Nuclear repulsion =  202.013308935380167

  ==> Basis Set <==

  Basis Set: CC-PVTZ
    Blend: CC-PVTZ
    Number of shells: 96
    Number of basis function: 264
    Number of Cartesian functions: 300
    Spherical Harmonics?: true
    Max angular momentum: 3

  ==> DFJKGrad: Density-Fitted SCF Gradients <==

    Gradient:                    1
    J tasked:                  Yes
    K tasked:                  Yes
    wK tasked:                  No
    OpenMP threads:              1
    Integrals threads:           1
    Memory [MiB]:              375
    Schwarz Cutoff:          0E+00
    Fitting Condition:       1E-10

   => Auxiliary Basis Set <=

  Basis Set: (CC-PVTZ AUX)
    Blend: CC-PVTZ-JKFIT
    Number of shells: 210
    Number of basis function: 654
    Number of Cartesian functions: 786
    Spherical Harmonics?: true
    Max angular momentum: 4

  ==> DFT Potential <==

   => Composite Functional: M06-2X <= 

    Hybrid M06-2X Meta-GGA XC Functional

    Y. Zhao and D. G. Truhlar,  Theor. Chem. Acc., 120, 215, 2008


    Deriv               =              1
    GGA                 =           TRUE
    Meta                =           TRUE

    Exchange Hybrid     =           TRUE
    MP2 Hybrid          =          FALSE

   => Exchange Functionals <=

    1.0000   XC_HYB_MGGA_X_M06_2X

   => Exact (HF) Exchange <=

    0.5400               HF 

   => Correlation Functionals <=

    1.0000   XC_MGGA_C_M06_2X

   => Molecular Quadrature <=

    Radial Scheme          =       TREUTLER
    Pruning Scheme         =           FLAT
    Nuclear Scheme         =       TREUTLER

    BS radius alpha        =              1
    Pruning alpha          =              1
    Radial Points          =             75
    Spherical Points       =            302
    Total Points           =         267376
    Total Blocks           =           2098
    Max Points             =            256
    Max Functions          =            261


  -Total Gradient:
     Atom            X                  Y                   Z
    ------   -----------------  -----------------  -----------------
       1       -0.006277777729    -0.003543969987     0.000000000000
       2       -0.006221924191     0.003660179439     0.000000000000
       3       -0.000038411735    -0.007252607179     0.000000000000
       4        0.000038411735     0.007252607179     0.000000000000
       5        0.006221924191    -0.003660179439     0.000000000000
       6        0.006277777729     0.003543969987     0.000000000000
       7       -0.007508531958    -0.004292250969     0.000000000000
       8       -0.007432828524     0.004429564741     0.000000000000
       9       -0.000056940094    -0.008634096864     0.000000000000
      10        0.000056940094     0.008634096864     0.000000000000
      11        0.007432828524    -0.004429564741     0.000000000000
      12        0.007508531958     0.004292250969     0.000000000000


*** tstop() called on atlantis at Wed Apr 20 06:55:43 2022
Module time:
	user time   =      13.56 seconds =       0.23 minutes
	system time =       0.18 seconds =       0.00 minutes
	total time  =         14 seconds =       0.23 minutes
Total time:
	user time   =     123.74 seconds =       2.06 minutes
	system time =       0.44 seconds =       0.01 minutes
	total time  =        125 seconds =       2.08 minutes

  Based on options and gradient (rms=4.60E-03), recommend projecting translations and projecting rotations.
hessian() will perform frequency computation by finite difference of analytic gradients.

         ----------------------------------------------------------
                                   FINDIF
                     R. A. King and Jonathon Misiewicz
         ---------------------------------------------------------

  Using finite-differences of gradients to determine vibrational frequencies and 
  normal modes.  Resulting frequencies are only valid at stationary points.
    Generating geometries for use with 3-point formula.
    Displacement size will be 5.00e-03.
    Number of atoms is 12.
    Number of irreps is 4.
    Number of SALCs is 30.
    Translations projected? 1. Rotations projected? 1.
    Index of SALCs per irrep:
     1 :  0  1  2  3  4  5  6  7  8  9  10 
     2 :  11  12  13  14 
     3 :  15  16  17  18  19 
     4 :  20  21  22  23  24  25  26  27  28  29 
    Number of SALCs per irrep:
     Irrep 1: 11
     Irrep 2: 4
     Irrep 3: 5
     Irrep 4: 10
    Number of geometries (including reference) is 42.
    Number of displacements per irrep:
      Irrep 1: 22
      Irrep 2: 4
      Irrep 3: 5
      Irrep 4: 10

  //>>>>>>>>>>>>>>>>>>>>>>>>>>>>>>>>>>>//
  //    Loading displacement 1 of 42   //
  //<<<<<<<<<<<<<<<<<<<<<<<<<<<<<<<<<<<//
gradient() will perform analytic gradient computation.

*** tstart() called on atlantis
*** at Wed Apr 20 06:55:43 2022

   => Loading Basis Set <=

    Name: CC-PVTZ
    Role: ORBITAL
    Keyword: BASIS
    atoms 1-6  entry C          line   186 file /home/akrom/software/anaconda3/envs/ffpenv/share/psi4/basis/cc-pvtz.gbs 
    atoms 7-12 entry H          line    23 file /home/akrom/software/anaconda3/envs/ffpenv/share/psi4/basis/cc-pvtz.gbs 


         ---------------------------------------------------------
                                   SCF
               by Justin Turney, Rob Parrish, Andy Simmonett
                          and Daniel G. A. Smith
                              RKS Reference
                        1 Threads,    500 MiB Core
         ---------------------------------------------------------

  ==> Geometry <==

    Molecular point group: c2h
    Full point group: C2h

    Geometry (in Angstrom), charge = 0, multiplicity = 1:

       Center              X                  Y                   Z               Mass       
    ------------   -----------------  -----------------  -----------------  -----------------
         C           -1.221510000000    -0.693250000000     0.000000000000    12.000000000000
         C           -1.211140000000     0.711220000000     0.000000000000    12.000000000000
         C           -0.010370000000    -1.404520000000     0.000000000000    12.000000000000
         C            0.010370000000     1.404520000000     0.000000000000    12.000000000000
         C            1.211140000000    -0.711220000000     0.000000000000    12.000000000000
         C            1.221510000000     0.693250000000     0.000000000000    12.000000000000
         H           -2.173110000000    -1.233320000000     0.000000000000     1.007825032230
         H           -2.154640000000     1.265330000000     0.000000000000     1.007825032230
         H           -0.018480000000    -2.498650000000     0.000000000000     1.007825032230
         H            0.018480000000     2.498650000000     0.000000000000     1.007825032230
         H            2.154640000000    -1.265330000000     0.000000000000     1.007825032230
         H            2.173110000000     1.233320000000     0.000000000000     1.007825032230

  Running in c2h symmetry.

  Rotational constants: A =      0.18753  B =      0.18752  C =      0.09376 [cm^-1]
  Rotational constants: A =   5621.92707  B =   5621.82252  C =   2810.93740 [MHz]
  Nuclear repulsion =  202.013308935380167

  Charge       = 0
  Multiplicity = 1
  Electrons    = 42
  Nalpha       = 21
  Nbeta        = 21

  ==> Algorithm <==

  SCF Algorithm Type is DF.
  DIIS enabled.
  MOM disabled.
  Fractional occupation disabled.
  Guess Type is SAD.
  Energy threshold   = 1.00e-08
  Density threshold  = 1.00e-08
  Integral threshold = 0.00e+00

  ==> Primary Basis <==

  Basis Set: CC-PVTZ
    Blend: CC-PVTZ
    Number of shells: 96
    Number of basis function: 264
    Number of Cartesian functions: 300
    Spherical Harmonics?: true
    Max angular momentum: 3

  ==> DFT Potential <==

   => Composite Functional: M06-2X <= 

    Hybrid M06-2X Meta-GGA XC Functional

    Y. Zhao and D. G. Truhlar,  Theor. Chem. Acc., 120, 215, 2008


    Deriv               =              1
    GGA                 =           TRUE
    Meta                =           TRUE

    Exchange Hybrid     =           TRUE
    MP2 Hybrid          =          FALSE

   => Exchange Functionals <=

    1.0000   XC_HYB_MGGA_X_M06_2X

   => Exact (HF) Exchange <=

    0.5400               HF 

   => Correlation Functionals <=

    1.0000   XC_MGGA_C_M06_2X

   => Molecular Quadrature <=

    Radial Scheme          =       TREUTLER
    Pruning Scheme         =           FLAT
    Nuclear Scheme         =       TREUTLER

    BS radius alpha        =              1
    Pruning alpha          =              1
    Radial Points          =             75
    Spherical Points       =            302
    Total Points           =         267376
    Total Blocks           =           2098
    Max Points             =            256
    Max Functions          =            261

   => Loading Basis Set <=

    Name: (CC-PVTZ AUX)
    Role: JKFIT
    Keyword: DF_BASIS_SCF
    atoms 1-6  entry C          line   125 file /home/akrom/software/anaconda3/envs/ffpenv/share/psi4/basis/cc-pvtz-jkfit.gbs 
    atoms 7-12 entry H          line    51 file /home/akrom/software/anaconda3/envs/ffpenv/share/psi4/basis/cc-pvtz-jkfit.gbs 

  ==> Pre-Iterations <==

   -------------------------------------------------------
    Irrep   Nso     Nmo     Nalpha   Nbeta   Ndocc  Nsocc
   -------------------------------------------------------
     Ag        90      90       0       0       0       0
     Bg        42      42       0       0       0       0
     Au        42      42       0       0       0       0
     Bu        90      90       0       0       0       0
   -------------------------------------------------------
    Total     264     264      21      21      21       0
   -------------------------------------------------------

  ==> Integral Setup <==

  DFHelper Memory: AOs need 0.348 GiB; user supplied 0.348 GiB. Using in-core AOs.

  ==> MemDFJK: Density-Fitted J/K Matrices <==

    J tasked:                   Yes
    K tasked:                   Yes
    wK tasked:                   No
    OpenMP threads:               1
    Memory [MiB]:               356
    Algorithm:                 Core
    Schwarz Cutoff:           1E-12
    Mask sparsity (%):       2.7577
    Fitting Condition:        1E-10

   => Auxiliary Basis Set <=

  Basis Set: (CC-PVTZ AUX)
    Blend: CC-PVTZ-JKFIT
    Number of shells: 210
    Number of basis function: 654
    Number of Cartesian functions: 786
    Spherical Harmonics?: true
    Max angular momentum: 4

  Cached 0.5% of DFT collocation blocks in 0.017 [GiB].

  Minimum eigenvalue in the overlap matrix is 4.0032826849E-05.
  Using Symmetric Orthogonalization.

  SCF Guess: Superposition of Atomic Densities via on-the-fly atomic UHF.

  ==> Iterations <==

                           Total Energy        Delta E     RMS |[F,P]|

   @DF-RKS iter SAD:  -231.71895141169807   -2.31719e+02   0.00000e+00 
   @DF-RKS iter   1:  -231.91844354805454   -1.99492e-01   5.48765e-03 DIIS
   @DF-RKS iter   2:  -231.98205884381190   -6.36153e-02   4.86263e-03 DIIS
   @DF-RKS iter   3:  -232.21861950096323   -2.36561e-01   4.29990e-04 DIIS
   @DF-RKS iter   4:  -232.22028016880219   -1.66067e-03   5.95689e-05 DIIS
   @DF-RKS iter   5:  -232.22032058109482   -4.04123e-05   7.63497e-06 DIIS
   @DF-RKS iter   6:  -232.22032132385112   -7.42756e-07   6.36080e-07 DIIS
   @DF-RKS iter   7:  -232.22032133263087   -8.77975e-09   1.02826e-07 DIIS
   @DF-RKS iter   8:  -232.22032133277753   -1.46656e-10   3.04895e-08 DIIS
   @DF-RKS iter   9:  -232.22032133278444   -6.90648e-12   1.25577e-08 DIIS
   @DF-RKS iter  10:  -232.22032133278609   -1.64846e-12   2.04363e-10 DIIS
  Energy and wave function converged.


  ==> Post-Iterations <==

    Orbital Energies [Eh]
    ---------------------

    Doubly Occupied:                                                      

       1Ag   -10.549034     1Bu   -10.548702     2Bu   -10.548696  
       2Ag   -10.547938     3Ag   -10.547932     3Bu   -10.547587  
       4Ag    -0.953902     4Bu    -0.839614     5Bu    -0.839605  
       5Ag    -0.683507     6Ag    -0.683494     7Ag    -0.595751  
       6Bu    -0.533471     7Bu    -0.509612     8Bu    -0.485970  
       9Bu    -0.485957     1Au    -0.436153     8Ag    -0.402141  
       9Ag    -0.402131     1Bg    -0.307151     2Bg    -0.307143  

    Virtual:                                                              

       2Au     0.020939     3Au     0.020947    10Ag     0.073301  
      10Bu     0.102284    11Bu     0.102287    11Ag     0.131789  
      12Ag     0.131795    12Bu     0.152890     3Bg     0.190095  
      13Ag     0.262503    14Ag     0.262518    13Bu     0.295357  
      15Ag     0.300424    14Bu     0.300885    15Bu     0.300900  
       4Au     0.317214     4Bg     0.361908     5Bg     0.361926  
      16Ag     0.388184    16Bu     0.402834    17Bu     0.402863  
      18Bu     0.414721    17Ag     0.439396    18Ag     0.439413  
       5Au     0.447844     6Au     0.447850    19Bu     0.465351  
      20Bu     0.465365     7Au     0.485275    19Ag     0.516285  
      20Ag     0.516289    21Ag     0.517624     6Bg     0.524996  
      22Ag     0.532092    21Bu     0.580543    23Ag     0.587172  
      24Ag     0.587182    22Bu     0.614004    23Bu     0.614017  
       7Bg     0.689539     8Bg     0.713763     9Bg     0.713789  
      25Ag     0.754948    24Bu     0.759521    25Bu     0.759543  
      26Bu     0.791938     8Au     0.800834     9Au     0.800847  
      26Ag     0.839483    27Ag     0.891818    28Ag     0.891853  
      27Bu     0.940438    10Au     0.963299    28Bu     0.997964  
      11Au     1.038160    12Au     1.038201    10Bg     1.055450  
      29Ag     1.060354    30Ag     1.060379    11Bg     1.116519  
      12Bg     1.116568    31Ag     1.126825    29Bu     1.141119  
      30Bu     1.141157    31Bu     1.198441    32Bu     1.198484  
      33Bu     1.285384    34Bu     1.285415    35Bu     1.294252  
      32Ag     1.295478    13Bg     1.300080    14Bg     1.300105  
      33Ag     1.314849    34Ag     1.314857    13Au     1.398073  
      14Au     1.398141    36Bu     1.414141    35Ag     1.416704  
      36Ag     1.416717    37Bu     1.455409    38Bu     1.455425  
      37Ag     1.503943    38Ag     1.512647    39Ag     1.512659  
      15Bg     1.559322    15Au     1.594501    39Bu     1.691842  
      40Ag     1.869274    41Ag     1.947459    42Ag     1.947490  
      40Bu     1.979385    41Bu     2.027353    42Bu     2.027381  
      16Au     2.033546    43Ag     2.108779    16Bg     2.147238  
      17Bg     2.147253    43Bu     2.175622    44Bu     2.175637  
      45Bu     2.184186    17Au     2.230118    18Au     2.230130  
      18Bg     2.320685    44Ag     2.377736    45Ag     2.441889  
      46Ag     2.441952    46Bu     2.487218    47Bu     2.487268  
      19Au     2.511819    19Bg     2.531925    47Ag     2.594834  
      48Ag     2.594892    48Bu     2.625272    20Au     2.649379  
      21Au     2.649421    20Bg     2.701055    21Bg     2.701074  
      22Au     2.701287    49Bu     2.721714    50Bu     2.721757  
      22Bg     2.765662    23Bg     2.765731    49Ag     2.778313  
      51Bu     2.785227    50Ag     2.840150    51Ag     2.840281  
      23Au     2.911281    24Bg     2.935221    25Bg     2.935274  
      52Ag     2.968273    53Ag     2.968329    52Bu     2.991479  
      53Bu     2.991595    54Ag     3.012261    54Bu     3.051128  
      55Bu     3.051189    55Ag     3.056445    56Ag     3.056474  
      56Bu     3.058042    24Au     3.073175    25Au     3.073241  
      57Ag     3.080343    57Bu     3.124696    26Bg     3.136342  
      26Au     3.139496    27Au     3.139529    58Ag     3.201406  
      28Au     3.278556    29Au     3.278573    30Au     3.306936  
      27Bg     3.315824    58Bu     3.318235    59Bu     3.318263  
      59Ag     3.341318    60Ag     3.341483    60Bu     3.380227  
      61Bu     3.380286    28Bg     3.382155    29Bg     3.382183  
      62Bu     3.410392    61Ag     3.553588    62Ag     3.553833  
      30Bg     3.556113    31Bg     3.565082    63Ag     3.686651  
      32Bg     3.706909    33Bg     3.706925    31Au     3.712957  
      63Bu     3.733937    64Ag     3.744318    65Ag     3.744419  
      64Bu     3.746315    65Bu     3.746480    32Au     3.763877  
      66Ag     3.765556    66Bu     3.784478    33Au     3.798567  
      34Au     3.798703    34Bg     3.844140    35Bg     3.844173  
      67Bu     3.950844    68Bu     3.951098    69Bu     3.976201  
      35Au     4.034346    36Au     4.034606    67Ag     4.048532  
      68Ag     4.050659    69Ag     4.050714    70Ag     4.051482  
      70Bu     4.116197    36Bg     4.118447    71Bu     4.153209  
      71Ag     4.158931    72Ag     4.159050    72Bu     4.248064  
      73Bu     4.248120    37Au     4.252490    38Au     4.252556  
      37Bg     4.257212    38Bg     4.257279    73Ag     4.292285  
      74Ag     4.292346    75Ag     4.426896    76Ag     4.451213  
      77Ag     4.451379    39Au     4.603684    74Bu     4.603773  
      75Bu     4.603846    39Bg     4.640860    76Bu     4.671443  
      77Bu     4.671602    40Bg     4.701273    41Bg     4.701441  
      40Au     4.704763    78Bu     4.821542    78Ag     4.880298  
      79Ag     4.915612    79Bu     4.918849    41Au     4.952472  
      42Au     4.952640    80Ag     4.976594    81Ag     4.977008  
      80Bu     5.065754    81Bu     5.065914    82Bu     5.269725  
      83Bu     5.270087    42Bg     5.354358    82Ag     5.549902  
      83Ag     5.550433    84Bu     5.593441    84Ag     5.749379  
      85Ag     5.749594    86Ag     5.842509    85Bu     5.966965  
      86Bu     5.967577    87Bu     6.308643    87Ag     6.741523  
      88Ag     8.745072    88Bu    12.092922    89Bu    12.093282  
      89Ag    12.621280    90Ag    12.621660    90Bu    15.094922  

    Final Occupation by Irrep:
             Ag    Bg    Au    Bu 
    DOCC [     9,    2,    1,    9 ]

  @DF-RKS Final Energy:  -232.22032133278609

   => Energetics <=

    Nuclear Repulsion Energy =            202.0133089353801665
    One-Electron Energy =                -711.1916016211725946
    Two-Electron Energy =                 293.6797083858949122
    DFT Exchange-Correlation Energy =     -16.7217370328885586
    Empirical Dispersion Energy =           0.0000000000000000
    VV10 Nonlocal Energy =                  0.0000000000000000
    Total Energy =                       -232.2203213327860851

Computation Completed


Properties will be evaluated at   0.000000,   0.000000,   0.000000 [a0]

Properties computed using the SCF density matrix

  Nuclear Dipole Moment: [e a0]
     X:    -0.0000      Y:    -0.0000      Z:     0.0000

  Electronic Dipole Moment: [e a0]
     X:     0.0000      Y:     0.0000      Z:     0.0000

  Dipole Moment: [e a0]
     X:    -0.0000      Y:    -0.0000      Z:     0.0000     Total:     0.0000

  Dipole Moment: [D]
     X:    -0.0000      Y:    -0.0000      Z:     0.0000     Total:     0.0000


*** tstop() called on atlantis at Wed Apr 20 06:56:50 2022
Module time:
	user time   =      66.91 seconds =       1.12 minutes
	system time =       0.16 seconds =       0.00 minutes
	total time  =         67 seconds =       1.12 minutes
Total time:
	user time   =     190.94 seconds =       3.18 minutes
	system time =       0.61 seconds =       0.01 minutes
	total time  =        192 seconds =       3.20 minutes

*** tstart() called on atlantis
*** at Wed Apr 20 06:56:50 2022


         ------------------------------------------------------------
                                   SCF GRAD                          
                          Rob Parrish, Justin Turney,                
                       Andy Simmonett, and Alex Sokolov              
         ------------------------------------------------------------

  ==> Geometry <==

    Molecular point group: c2h
    Full point group: C2h

    Geometry (in Angstrom), charge = 0, multiplicity = 1:

       Center              X                  Y                   Z               Mass       
    ------------   -----------------  -----------------  -----------------  -----------------
         C           -1.221510000000    -0.693250000000     0.000000000000    12.000000000000
         C           -1.211140000000     0.711220000000     0.000000000000    12.000000000000
         C           -0.010370000000    -1.404520000000     0.000000000000    12.000000000000
         C            0.010370000000     1.404520000000     0.000000000000    12.000000000000
         C            1.211140000000    -0.711220000000     0.000000000000    12.000000000000
         C            1.221510000000     0.693250000000     0.000000000000    12.000000000000
         H           -2.173110000000    -1.233320000000     0.000000000000     1.007825032230
         H           -2.154640000000     1.265330000000     0.000000000000     1.007825032230
         H           -0.018480000000    -2.498650000000     0.000000000000     1.007825032230
         H            0.018480000000     2.498650000000     0.000000000000     1.007825032230
         H            2.154640000000    -1.265330000000     0.000000000000     1.007825032230
         H            2.173110000000     1.233320000000     0.000000000000     1.007825032230

  Nuclear repulsion =  202.013308935380167

  ==> Basis Set <==

  Basis Set: CC-PVTZ
    Blend: CC-PVTZ
    Number of shells: 96
    Number of basis function: 264
    Number of Cartesian functions: 300
    Spherical Harmonics?: true
    Max angular momentum: 3

  ==> DFJKGrad: Density-Fitted SCF Gradients <==

    Gradient:                    1
    J tasked:                  Yes
    K tasked:                  Yes
    wK tasked:                  No
    OpenMP threads:              1
    Integrals threads:           1
    Memory [MiB]:              375
    Schwarz Cutoff:          0E+00
    Fitting Condition:       1E-10

   => Auxiliary Basis Set <=

  Basis Set: (CC-PVTZ AUX)
    Blend: CC-PVTZ-JKFIT
    Number of shells: 210
    Number of basis function: 654
    Number of Cartesian functions: 786
    Spherical Harmonics?: true
    Max angular momentum: 4

  ==> DFT Potential <==

   => Composite Functional: M06-2X <= 

    Hybrid M06-2X Meta-GGA XC Functional

    Y. Zhao and D. G. Truhlar,  Theor. Chem. Acc., 120, 215, 2008


    Deriv               =              1
    GGA                 =           TRUE
    Meta                =           TRUE

    Exchange Hybrid     =           TRUE
    MP2 Hybrid          =          FALSE

   => Exchange Functionals <=

    1.0000   XC_HYB_MGGA_X_M06_2X

   => Exact (HF) Exchange <=

    0.5400               HF 

   => Correlation Functionals <=

    1.0000   XC_MGGA_C_M06_2X

   => Molecular Quadrature <=

    Radial Scheme          =       TREUTLER
    Pruning Scheme         =           FLAT
    Nuclear Scheme         =       TREUTLER

    BS radius alpha        =              1
    Pruning alpha          =              1
    Radial Points          =             75
    Spherical Points       =            302
    Total Points           =         267376
    Total Blocks           =           2098
    Max Points             =            256
    Max Functions          =            261


  -Total Gradient:
     Atom            X                  Y                   Z
    ------   -----------------  -----------------  -----------------
       1       -0.006277778305    -0.003543972846     0.000000000000
       2       -0.006221925000     0.003660179370     0.000000000000
       3       -0.000038414400    -0.007252608313     0.000000000000
       4        0.000038414400     0.007252608313     0.000000000000
       5        0.006221925000    -0.003660179370     0.000000000000
       6        0.006277778305     0.003543972846     0.000000000000
       7       -0.007508526829    -0.004292247975     0.000000000000
       8       -0.007432825481     0.004429563002     0.000000000000
       9       -0.000056939944    -0.008634091807     0.000000000000
      10        0.000056939944     0.008634091807     0.000000000000
      11        0.007432825481    -0.004429563002     0.000000000000
      12        0.007508526829     0.004292247975     0.000000000000


*** tstop() called on atlantis at Wed Apr 20 06:57:04 2022
Module time:
	user time   =      13.54 seconds =       0.23 minutes
	system time =       0.19 seconds =       0.00 minutes
	total time  =         14 seconds =       0.23 minutes
Total time:
	user time   =     204.48 seconds =       3.41 minutes
	system time =       0.80 seconds =       0.01 minutes
	total time  =        206 seconds =       3.43 minutes

  //>>>>>>>>>>>>>>>>>>>>>>>>>>>>>>>>>>>//
  //    Loading displacement 2 of 42   //
  //<<<<<<<<<<<<<<<<<<<<<<<<<<<<<<<<<<<//
gradient() will perform analytic gradient computation.

*** tstart() called on atlantis
*** at Wed Apr 20 06:57:04 2022

   => Loading Basis Set <=

    Name: CC-PVTZ
    Role: ORBITAL
    Keyword: BASIS
    atoms 1-6  entry C          line   186 file /home/akrom/software/anaconda3/envs/ffpenv/share/psi4/basis/cc-pvtz.gbs 
    atoms 7-12 entry H          line    23 file /home/akrom/software/anaconda3/envs/ffpenv/share/psi4/basis/cc-pvtz.gbs 


         ---------------------------------------------------------
                                   SCF
               by Justin Turney, Rob Parrish, Andy Simmonett
                          and Daniel G. A. Smith
                              RKS Reference
                        1 Threads,    500 MiB Core
         ---------------------------------------------------------

  ==> Geometry <==

    Molecular point group: c2h
    Full point group: C2h

    Geometry (in Angstrom), charge = 0, multiplicity = 1:

       Center              X                  Y                   Z               Mass       
    ------------   -----------------  -----------------  -----------------  -----------------
         C           -1.222032477591    -0.693313109608     0.000000000000    12.000000000000
         C           -1.211176745353     0.711157426160     0.000000000000    12.000000000000
         C           -0.010297435136    -1.404520535769     0.000000000000    12.000000000000
         C            0.010297435136     1.404520535769     0.000000000000    12.000000000000
         C            1.211176745353    -0.711157426160     0.000000000000    12.000000000000
         C            1.222032477591     0.693313109608     0.000000000000    12.000000000000
         H           -2.173046280225    -1.233432274252     0.000000000000     1.007825032230
         H           -2.154705373579     1.265218680005     0.000000000000     1.007825032230
         H           -0.018350906646    -2.498650954774     0.000000000000     1.007825032230
         H            0.018350906646     2.498650954774     0.000000000000     1.007825032230
         H            2.154705373579    -1.265218680005     0.000000000000     1.007825032230
         H            2.173046280225     1.233432274252     0.000000000000     1.007825032230

  Running in c2h symmetry.

  Rotational constants: A =      0.18753  B =      0.18745  C =      0.09375 [cm^-1]
  Rotational constants: A =   5621.97670  B =   5619.72613  C =   2810.42560 [MHz]
  Nuclear repulsion =  201.998047561272216

  Charge       = 0
  Multiplicity = 1
  Electrons    = 42
  Nalpha       = 21
  Nbeta        = 21

  ==> Algorithm <==

  SCF Algorithm Type is DF.
  DIIS enabled.
  MOM disabled.
  Fractional occupation disabled.
  Guess Type is SAD.
  Energy threshold   = 1.00e-08
  Density threshold  = 1.00e-08
  Integral threshold = 0.00e+00

  ==> Primary Basis <==

  Basis Set: CC-PVTZ
    Blend: CC-PVTZ
    Number of shells: 96
    Number of basis function: 264
    Number of Cartesian functions: 300
    Spherical Harmonics?: true
    Max angular momentum: 3

  ==> DFT Potential <==

   => Composite Functional: M06-2X <= 

    Hybrid M06-2X Meta-GGA XC Functional

    Y. Zhao and D. G. Truhlar,  Theor. Chem. Acc., 120, 215, 2008


    Deriv               =              1
    GGA                 =           TRUE
    Meta                =           TRUE

    Exchange Hybrid     =           TRUE
    MP2 Hybrid          =          FALSE

   => Exchange Functionals <=

    1.0000   XC_HYB_MGGA_X_M06_2X

   => Exact (HF) Exchange <=

    0.5400               HF 

   => Correlation Functionals <=

    1.0000   XC_MGGA_C_M06_2X

   => Molecular Quadrature <=

    Radial Scheme          =       TREUTLER
    Pruning Scheme         =           FLAT
    Nuclear Scheme         =       TREUTLER

    BS radius alpha        =              1
    Pruning alpha          =              1
    Radial Points          =             75
    Spherical Points       =            302
    Total Points           =         267392
    Total Blocks           =           2098
    Max Points             =            256
    Max Functions          =            261

   => Loading Basis Set <=

    Name: (CC-PVTZ AUX)
    Role: JKFIT
    Keyword: DF_BASIS_SCF
    atoms 1-6  entry C          line   125 file /home/akrom/software/anaconda3/envs/ffpenv/share/psi4/basis/cc-pvtz-jkfit.gbs 
    atoms 7-12 entry H          line    51 file /home/akrom/software/anaconda3/envs/ffpenv/share/psi4/basis/cc-pvtz-jkfit.gbs 

  ==> Pre-Iterations <==

   -------------------------------------------------------
    Irrep   Nso     Nmo     Nalpha   Nbeta   Ndocc  Nsocc
   -------------------------------------------------------
     Ag        90      90       0       0       0       0
     Bg        42      42       0       0       0       0
     Au        42      42       0       0       0       0
     Bu        90      90       0       0       0       0
   -------------------------------------------------------
    Total     264     264      21      21      21       0
   -------------------------------------------------------

  ==> Integral Setup <==

  DFHelper Memory: AOs need 0.348 GiB; user supplied 0.348 GiB. Using in-core AOs.

  ==> MemDFJK: Density-Fitted J/K Matrices <==

    J tasked:                   Yes
    K tasked:                   Yes
    wK tasked:                   No
    OpenMP threads:               1
    Memory [MiB]:               356
    Algorithm:                 Core
    Schwarz Cutoff:           1E-12
    Mask sparsity (%):       2.7577
    Fitting Condition:        1E-10

   => Auxiliary Basis Set <=

  Basis Set: (CC-PVTZ AUX)
    Blend: CC-PVTZ-JKFIT
    Number of shells: 210
    Number of basis function: 654
    Number of Cartesian functions: 786
    Spherical Harmonics?: true
    Max angular momentum: 4

  Cached 0.5% of DFT collocation blocks in 0.011 [GiB].

  Minimum eigenvalue in the overlap matrix is 4.0070379218E-05.
  Using Symmetric Orthogonalization.

  SCF Guess: Superposition of Atomic Densities via on-the-fly atomic UHF.

  ==> Iterations <==

                           Total Energy        Delta E     RMS |[F,P]|

   @DF-RKS iter SAD:  -231.71804715183197   -2.31718e+02   0.00000e+00 
   @DF-RKS iter   1:  -231.91879179621094   -2.00745e-01   5.48540e-03 DIIS
   @DF-RKS iter   2:  -231.98259392878083   -6.38021e-02   4.85818e-03 DIIS
   @DF-RKS iter   3:  -232.21874190197650   -2.36148e-01   4.30006e-04 DIIS
   @DF-RKS iter   4:  -232.22040287658376   -1.66097e-03   5.95375e-05 DIIS
   @DF-RKS iter   5:  -232.22044325850777   -4.03819e-05   7.64404e-06 DIIS
   @DF-RKS iter   6:  -232.22044399946941   -7.40962e-07   8.48503e-07 DIIS
   @DF-RKS iter   7:  -232.22044400711513   -7.64572e-09   6.69950e-07 DIIS
   @DF-RKS iter   8:  -232.22044401117370   -4.05856e-09   1.00561e-07 DIIS
   @DF-RKS iter   9:  -232.22044401128068   -1.06979e-10   3.10013e-09 DIIS
  Energy and wave function converged.


  ==> Post-Iterations <==

    Orbital Energies [Eh]
    ---------------------

    Doubly Occupied:                                                      

       1Ag   -10.549042     1Bu   -10.548721     2Bu   -10.548694  
       2Ag   -10.547959     3Ag   -10.547929     3Bu   -10.547596  
       4Ag    -0.953797     4Bu    -0.839630     5Bu    -0.839523  
       5Ag    -0.683580     6Ag    -0.683417     7Ag    -0.595723  
       6Bu    -0.533561     7Bu    -0.509546     8Bu    -0.486055  
       9Bu    -0.485906     1Au    -0.436078     8Ag    -0.402299  
       9Ag    -0.402000     1Bg    -0.307178     2Bg    -0.307059  

    Virtual:                                                              

       2Au     0.020854     3Au     0.020985    10Ag     0.073347  
      10Bu     0.102286    11Bu     0.102298    11Ag     0.131779  
      12Ag     0.131786    12Bu     0.152892     3Bg     0.190026  
      13Ag     0.262465    14Ag     0.262535    13Bu     0.295391  
      15Ag     0.300497    14Bu     0.300790    15Bu     0.300947  
       4Au     0.317244     4Bg     0.361943     5Bg     0.361958  
      16Ag     0.388392    16Bu     0.402748    17Bu     0.402809  
      18Bu     0.414736    17Ag     0.439293    18Ag     0.439433  
       5Au     0.447830     6Au     0.447877    19Bu     0.465362  
      20Bu     0.465486     7Au     0.485334    19Ag     0.516294  
      20Ag     0.516327    21Ag     0.517653     6Bg     0.524983  
      22Ag     0.532032    21Bu     0.580466    23Ag     0.587089  
      24Ag     0.587183    22Bu     0.613851    23Bu     0.614022  
       7Bg     0.689490     8Bg     0.713667     9Bg     0.713732  
      25Ag     0.754783    24Bu     0.759453    25Bu     0.759480  
      26Bu     0.791767     8Au     0.800793     9Au     0.800819  
      26Ag     0.839691    27Ag     0.891853    28Ag     0.891888  
      27Bu     0.940437    10Au     0.963359    28Bu     0.998044  
      11Au     1.038061    12Au     1.038192    10Bg     1.055454  
      29Ag     1.060217    30Ag     1.060405    11Bg     1.116403  
      12Bg     1.116437    31Ag     1.126842    29Bu     1.141128  
      30Bu     1.141192    31Bu     1.198437    32Bu     1.198468  
      33Bu     1.285178    34Bu     1.285353    35Bu     1.294309  
      32Ag     1.295465    13Bg     1.299924    14Bg     1.299989  
      33Ag     1.314860    34Ag     1.314951    13Au     1.398012  
      14Au     1.398230    36Bu     1.414226    35Ag     1.416453  
      36Ag     1.416790    37Bu     1.455200    38Bu     1.455426  
      37Ag     1.504195    38Ag     1.512629    39Ag     1.512844  
      15Bg     1.559370    15Au     1.594281    39Bu     1.691748  
      40Ag     1.869148    41Ag     1.947325    42Ag     1.947576  
      40Bu     1.979194    41Bu     2.027036    42Bu     2.027510  
      16Au     2.033544    43Ag     2.108776    16Bg     2.147176  
      17Bg     2.147354    43Bu     2.175127    44Bu     2.175649  
      45Bu     2.184147    17Au     2.230009    18Au     2.230090  
      18Bg     2.320634    44Ag     2.377804    45Ag     2.441648  
      46Ag     2.441990    46Bu     2.487275    47Bu     2.487353  
      19Au     2.511835    19Bg     2.531762    47Ag     2.594753  
      48Ag     2.595053    48Bu     2.625196    20Au     2.649345  
      21Au     2.649434    20Bg     2.700911    21Bg     2.700994  
      22Au     2.701527    49Bu     2.721824    50Bu     2.721946  
      22Bg     2.765663    23Bg     2.765995    49Ag     2.778503  
      51Bu     2.785291    50Ag     2.840009    51Ag     2.840249  
      23Au     2.911291    24Bg     2.935176    25Bg     2.935407  
      52Ag     2.968286    53Ag     2.968425    52Bu     2.991245  
      53Bu     2.991370    54Ag     3.012542    54Bu     3.050995  
      55Bu     3.051225    55Ag     3.056071    56Ag     3.056470  
      56Bu     3.058224    24Au     3.073227    25Au     3.073569  
      57Ag     3.080965    57Bu     3.124884    26Bg     3.136243  
      26Au     3.139526    27Au     3.139705    58Ag     3.201707  
      28Au     3.278260    29Au     3.278542    30Au     3.306933  
      27Bg     3.315949    58Bu     3.318457    59Bu     3.318700  
      59Ag     3.341148    60Ag     3.341226    60Bu     3.380085  
      61Bu     3.380409    28Bg     3.381924    29Bg     3.382003  
      62Bu     3.410479    61Ag     3.553571    62Ag     3.554050  
      30Bg     3.556267    31Bg     3.565150    63Ag     3.686564  
      32Bg     3.706612    33Bg     3.706880    31Au     3.712636  
      63Bu     3.733885    64Ag     3.744295    65Ag     3.744767  
      64Bu     3.746218    65Bu     3.746346    32Au     3.763956  
      66Ag     3.765444    66Bu     3.784131    33Au     3.798572  
      34Au     3.798721    34Bg     3.844029    35Bg     3.844276  
      67Bu     3.950734    68Bu     3.950989    69Bu     3.976404  
      35Au     4.034220    36Au     4.034688    67Ag     4.048287  
      68Ag     4.050471    69Ag     4.051154    70Ag     4.051488  
      70Bu     4.115985    36Bg     4.118447    71Bu     4.153090  
      71Ag     4.159016    72Ag     4.159262    72Bu     4.247741  
      73Bu     4.248257    37Au     4.251765    38Au     4.252588  
      37Bg     4.256814    38Bg     4.257723    73Ag     4.292305  
      74Ag     4.292353    75Ag     4.427065    76Ag     4.451001  
      77Ag     4.451387    74Bu     4.603614    75Bu     4.604138  
      39Au     4.604519    39Bg     4.640514    76Bu     4.671274  
      77Bu     4.671948    40Bg     4.701719    41Bg     4.702298  
      40Au     4.704603    78Bu     4.822181    78Ag     4.880855  
      79Ag     4.916172    79Bu     4.918544    41Au     4.952798  
      42Au     4.953526    80Ag     4.977182    81Ag     4.977777  
      80Bu     5.066018    81Bu     5.066297    82Bu     5.269555  
      83Bu     5.270212    42Bg     5.354598    82Ag     5.550353  
      83Ag     5.551000    84Bu     5.594137    84Ag     5.748230  
      85Ag     5.749107    86Ag     5.842025    85Bu     5.966607  
      86Bu     5.967249    87Bu     6.308014    87Ag     6.740579  
      88Ag     8.746519    88Bu    12.089144    89Bu    12.094681  
      89Ag    12.617412    90Ag    12.621823    90Bu    15.091374  

    Final Occupation by Irrep:
             Ag    Bg    Au    Bu 
    DOCC [     9,    2,    1,    9 ]

  @DF-RKS Final Energy:  -232.22044401128068

   => Energetics <=

    Nuclear Repulsion Energy =            201.9980475612722159
    One-Electron Energy =                -711.1615523400192842
    Two-Electron Energy =                 293.6648524961216253
    DFT Exchange-Correlation Energy =     -16.7217917286552087
    Empirical Dispersion Energy =           0.0000000000000000
    VV10 Nonlocal Energy =                  0.0000000000000000
    Total Energy =                       -232.2204440112806765

Computation Completed


Properties will be evaluated at   0.000000,   0.000000,   0.000000 [a0]

Properties computed using the SCF density matrix

  Nuclear Dipole Moment: [e a0]
     X:     0.0000      Y:     0.0000      Z:     0.0000

  Electronic Dipole Moment: [e a0]
     X:     0.0000      Y:     0.0000      Z:     0.0000

  Dipole Moment: [e a0]
     X:     0.0000      Y:     0.0000      Z:     0.0000     Total:     0.0000

  Dipole Moment: [D]
     X:     0.0000      Y:     0.0000      Z:     0.0000     Total:     0.0000


*** tstop() called on atlantis at Wed Apr 20 06:58:05 2022
Module time:
	user time   =      61.20 seconds =       1.02 minutes
	system time =       0.14 seconds =       0.00 minutes
	total time  =         61 seconds =       1.02 minutes
Total time:
	user time   =     265.68 seconds =       4.43 minutes
	system time =       0.94 seconds =       0.02 minutes
	total time  =        267 seconds =       4.45 minutes

*** tstart() called on atlantis
*** at Wed Apr 20 06:58:05 2022


         ------------------------------------------------------------
                                   SCF GRAD                          
                          Rob Parrish, Justin Turney,                
                       Andy Simmonett, and Alex Sokolov              
         ------------------------------------------------------------

  ==> Geometry <==

    Molecular point group: c2h
    Full point group: C2h

    Geometry (in Angstrom), charge = 0, multiplicity = 1:

       Center              X                  Y                   Z               Mass       
    ------------   -----------------  -----------------  -----------------  -----------------
         C           -1.222032477591    -0.693313109608     0.000000000000    12.000000000000
         C           -1.211176745353     0.711157426160     0.000000000000    12.000000000000
         C           -0.010297435136    -1.404520535769     0.000000000000    12.000000000000
         C            0.010297435136     1.404520535769     0.000000000000    12.000000000000
         C            1.211176745353    -0.711157426160     0.000000000000    12.000000000000
         C            1.222032477591     0.693313109608     0.000000000000    12.000000000000
         H           -2.173046280225    -1.233432274252     0.000000000000     1.007825032230
         H           -2.154705373579     1.265218680005     0.000000000000     1.007825032230
         H           -0.018350906646    -2.498650954774     0.000000000000     1.007825032230
         H            0.018350906646     2.498650954774     0.000000000000     1.007825032230
         H            2.154705373579    -1.265218680005     0.000000000000     1.007825032230
         H            2.173046280225     1.233432274252     0.000000000000     1.007825032230

  Nuclear repulsion =  201.998047561272216

  ==> Basis Set <==

  Basis Set: CC-PVTZ
    Blend: CC-PVTZ
    Number of shells: 96
    Number of basis function: 264
    Number of Cartesian functions: 300
    Spherical Harmonics?: true
    Max angular momentum: 3

  ==> DFJKGrad: Density-Fitted SCF Gradients <==

    Gradient:                    1
    J tasked:                  Yes
    K tasked:                  Yes
    wK tasked:                  No
    OpenMP threads:              1
    Integrals threads:           1
    Memory [MiB]:              375
    Schwarz Cutoff:          0E+00
    Fitting Condition:       1E-10

   => Auxiliary Basis Set <=

  Basis Set: (CC-PVTZ AUX)
    Blend: CC-PVTZ-JKFIT
    Number of shells: 210
    Number of basis function: 654
    Number of Cartesian functions: 786
    Spherical Harmonics?: true
    Max angular momentum: 4

  ==> DFT Potential <==

   => Composite Functional: M06-2X <= 

    Hybrid M06-2X Meta-GGA XC Functional

    Y. Zhao and D. G. Truhlar,  Theor. Chem. Acc., 120, 215, 2008


    Deriv               =              1
    GGA                 =           TRUE
    Meta                =           TRUE

    Exchange Hybrid     =           TRUE
    MP2 Hybrid          =          FALSE

   => Exchange Functionals <=

    1.0000   XC_HYB_MGGA_X_M06_2X

   => Exact (HF) Exchange <=

    0.5400               HF 

   => Correlation Functionals <=

    1.0000   XC_MGGA_C_M06_2X

   => Molecular Quadrature <=

    Radial Scheme          =       TREUTLER
    Pruning Scheme         =           FLAT
    Nuclear Scheme         =       TREUTLER

    BS radius alpha        =              1
    Pruning alpha          =              1
    Radial Points          =             75
    Spherical Points       =            302
    Total Points           =         267392
    Total Blocks           =           2098
    Max Points             =            256
    Max Functions          =            261


  -Total Gradient:
     Atom            X                  Y                   Z
    ------   -----------------  -----------------  -----------------
       1       -0.007040000595    -0.003600469730     0.000000000000
       2       -0.006217647227     0.003676820554     0.000000000000
       3        0.000206749094    -0.007433701861     0.000000000000
       4       -0.000206749094     0.007433701861     0.000000000000
       5        0.006217647227    -0.003676820554     0.000000000000
       6        0.007040000595     0.003600469730    -0.000000000000
       7       -0.007270613785    -0.004148644567    -0.000000000000
       8       -0.007482372830     0.004363642979    -0.000000000000
       9       -0.000080200514    -0.008658549185    -0.000000000000
      10        0.000080200514     0.008658549185    -0.000000000000
      11        0.007482372830    -0.004363642979     0.000000000000
      12        0.007270613785     0.004148644567    -0.000000000000


*** tstop() called on atlantis at Wed Apr 20 06:58:19 2022
Module time:
	user time   =      13.60 seconds =       0.23 minutes
	system time =       0.17 seconds =       0.00 minutes
	total time  =         14 seconds =       0.23 minutes
Total time:
	user time   =     279.28 seconds =       4.65 minutes
	system time =       1.11 seconds =       0.02 minutes
	total time  =        281 seconds =       4.68 minutes

  //>>>>>>>>>>>>>>>>>>>>>>>>>>>>>>>>>>>//
  //    Loading displacement 3 of 42   //
  //<<<<<<<<<<<<<<<<<<<<<<<<<<<<<<<<<<<//
gradient() will perform analytic gradient computation.

*** tstart() called on atlantis
*** at Wed Apr 20 06:58:19 2022

   => Loading Basis Set <=

    Name: CC-PVTZ
    Role: ORBITAL
    Keyword: BASIS
    atoms 1-6  entry C          line   186 file /home/akrom/software/anaconda3/envs/ffpenv/share/psi4/basis/cc-pvtz.gbs 
    atoms 7-12 entry H          line    23 file /home/akrom/software/anaconda3/envs/ffpenv/share/psi4/basis/cc-pvtz.gbs 


         ---------------------------------------------------------
                                   SCF
               by Justin Turney, Rob Parrish, Andy Simmonett
                          and Daniel G. A. Smith
                              RKS Reference
                        1 Threads,    500 MiB Core
         ---------------------------------------------------------

  ==> Geometry <==

    Molecular point group: c2h
    Full point group: C2h

    Geometry (in Angstrom), charge = 0, multiplicity = 1:

       Center              X                  Y                   Z               Mass       
    ------------   -----------------  -----------------  -----------------  -----------------
         C           -1.220987522409    -0.693186890392     0.000000000000    12.000000000000
         C           -1.211103254647     0.711282573840     0.000000000000    12.000000000000
         C           -0.010442564864    -1.404519464231     0.000000000000    12.000000000000
         C            0.010442564864     1.404519464231     0.000000000000    12.000000000000
         C            1.211103254647    -0.711282573840     0.000000000000    12.000000000000
[...]
      5   C               -0.32  0.13  0.00   -0.00  0.00  0.20    0.00 -0.00 -0.03   
      6   C               -0.00  0.16  0.00    0.00 -0.00 -0.20    0.00  0.00 -0.04   
      7   H               -0.17  0.15  0.00   -0.00 -0.00  0.36    0.00 -0.00  0.41   
      8   H                0.24 -0.26  0.00    0.00  0.00 -0.35   -0.00  0.00  0.41   
      9   H                0.22 -0.25 -0.00    0.00 -0.00 -0.36   -0.00 -0.00  0.41   
     10   H               -0.22  0.25  0.00    0.00 -0.00  0.36    0.00 -0.00  0.41   
     11   H               -0.24  0.26 -0.00   -0.00  0.00  0.35   -0.00 -0.00  0.41   
     12   H                0.17 -0.15 -0.00    0.00 -0.00 -0.36   -0.00  0.00  0.41   

  Vibration                       13                  14                  15          
  Freq [cm^-1]                 927.0057            929.1022            982.6849       
  Irrep                           Bg                  Bg                  Ag          
  Reduced mass [u]              1.2479              1.2479              3.7874        
  Force const [mDyne/A]         0.6318              0.6347              2.1549        
  Turning point v=0 [a0]        0.3226              0.3222              0.1799        
  RMS dev v=0 [a0 u^1/2]        0.2548              0.2545              0.2475        
  Char temp [K]               1333.7548           1336.7712           1413.8648       
  ----------------------------------------------------------------------------------
      1   C                0.00  0.00 -0.08    0.00  0.00 -0.03    0.15  0.14  0.00   
      2   C               -0.00  0.00 -0.02   -0.00 -0.00 -0.08    0.16 -0.11  0.00   
      3   C               -0.00 -0.00 -0.06    0.00  0.00  0.06    0.04  0.21 -0.00   
      4   C                0.00 -0.00  0.06   -0.00  0.00 -0.06   -0.04 -0.21  0.00   
      5   C                0.00 -0.00  0.02    0.00 -0.00  0.08   -0.16  0.11 -0.00   
      6   C                0.00 -0.00  0.08    0.00 -0.00  0.03   -0.15 -0.14 -0.00   
      7   H                0.00 -0.00  0.55   -0.00  0.00  0.18    0.00  0.44 -0.00   
      8   H               -0.00  0.00  0.12   -0.00 -0.00  0.56    0.15 -0.17 -0.00   
      9   H               -0.00 -0.00  0.42    0.00  0.00 -0.39    0.28  0.22  0.00   
     10   H                0.00 -0.00 -0.42   -0.00  0.00  0.39   -0.28 -0.22 -0.00   
     11   H                0.00 -0.00 -0.12   -0.00 -0.00 -0.56   -0.15  0.17  0.00   
     12   H               -0.00  0.00 -0.55    0.00 -0.00 -0.18   -0.00 -0.44  0.00   

  Vibration                       16                  17                  18          
  Freq [cm^-1]                1014.9525           1042.5985           1044.2925       
  Irrep                           Bu                  Au                  Au          
  Reduced mass [u]              6.5108              1.3495              1.3457        
  Force const [mDyne/A]         3.9516              0.8643              0.8646        
  Turning point v=0 [a0]        0.1350              0.2925              0.2927        
  RMS dev v=0 [a0 u^1/2]        0.2435              0.2403              0.2401        
  Char temp [K]               1460.2906           1500.0671           1502.5044       
  ----------------------------------------------------------------------------------
      1   C               -0.25 -0.14 -0.00    0.00  0.00 -0.10    0.00 -0.00  0.03   
      2   C                0.25 -0.15  0.00    0.00  0.00  0.02   -0.00 -0.00 -0.10   
      3   C                0.00  0.29 -0.00   -0.00 -0.00  0.08    0.00  0.00  0.07   
      4   C                0.00  0.29  0.00    0.00 -0.00  0.08   -0.00  0.00  0.07   
      5   C                0.25 -0.15 -0.00    0.00  0.00  0.02    0.00 -0.00 -0.10   
      6   C               -0.25 -0.14 -0.00   -0.00  0.00 -0.10    0.00 -0.00  0.03   
      7   H               -0.25 -0.14  0.00   -0.00  0.00  0.54   -0.00  0.00 -0.18   
      8   H                0.25 -0.15 -0.00    0.00  0.00 -0.11   -0.00 -0.00  0.56   
      9   H               -0.00  0.29  0.00   -0.00 -0.00 -0.43    0.00  0.00 -0.37   
     10   H               -0.00  0.29 -0.00    0.00 -0.00 -0.43   -0.00  0.00 -0.37   
     11   H                0.25 -0.15  0.00    0.00  0.00 -0.11   -0.00 -0.00  0.56   
     12   H               -0.25 -0.14  0.00   -0.00  0.00  0.54    0.00 -0.00 -0.18   

  Vibration                       19                  20                  21          
  Freq [cm^-1]                1055.8257           1056.2408           1072.4013       
  Irrep                           Bu                  Bu                  Bg          
  Reduced mass [u]              1.8108              1.8130              1.2542        
  Force const [mDyne/A]         1.1893              1.1918              0.8498        
  Turning point v=0 [a0]        0.2509              0.2507              0.2992        
  RMS dev v=0 [a0 u^1/2]        0.2388              0.2387              0.2369        
  Char temp [K]               1519.0981           1519.6954           1542.9467       
  ----------------------------------------------------------------------------------
      1   C               -0.12 -0.02  0.00    0.01  0.10 -0.00    0.00 -0.00 -0.06   
      2   C                0.04  0.08 -0.00    0.11 -0.06  0.00   -0.00  0.00  0.06   
      3   C                0.05 -0.11  0.00   -0.08 -0.07  0.00    0.00  0.00  0.06   
      4   C                0.05 -0.11 -0.00   -0.08 -0.07 -0.00    0.00  0.00 -0.06   
      5   C                0.04  0.08  0.00    0.11 -0.06 -0.00   -0.00  0.00 -0.06   
      6   C               -0.12 -0.02  0.00    0.01  0.10  0.00   -0.00 -0.00  0.06   
      7   H               -0.23  0.16 -0.00   -0.18  0.44  0.00    0.00 -0.00  0.40   
      8   H                0.27  0.47  0.00    0.13 -0.05 -0.00   -0.00  0.00 -0.41   
      9   H                0.29 -0.12 -0.00   -0.46 -0.07 -0.00    0.00  0.00 -0.40   
     10   H                0.29 -0.12  0.00   -0.46 -0.07  0.00    0.00  0.00  0.40   
     11   H                0.27  0.47 -0.00    0.13 -0.05  0.00   -0.00  0.00  0.41   
     12   H               -0.23  0.16 -0.00   -0.18  0.44 -0.00    0.00 -0.00 -0.40   

  Vibration                       22                  23                  24          
  Freq [cm^-1]                1089.2170           1141.3709           1232.9272       
  Irrep                           Ag                  Bu                  Ag          
  Reduced mass [u]              1.4014              1.7692              1.1626        
  Force const [mDyne/A]         0.9796              1.3580              1.0413        
  Turning point v=0 [a0]        0.2809              0.2442              0.2898        
  RMS dev v=0 [a0 u^1/2]        0.2351              0.2297              0.2210        
  Char temp [K]               1567.1408           1642.1786           1773.9077       
  ----------------------------------------------------------------------------------
      1   C               -0.09  0.04 -0.00   -0.05  0.09 -0.00    0.00 -0.02  0.00   
      2   C               -0.06 -0.01  0.00   -0.05 -0.09 -0.00    0.02  0.04  0.00   
      3   C                0.05 -0.05 -0.00    0.11 -0.00  0.00    0.07 -0.00 -0.00   
      4   C               -0.05  0.05  0.00    0.11 -0.00 -0.00   -0.07  0.00  0.00   
      5   C                0.06  0.01 -0.00   -0.05 -0.09  0.00   -0.02 -0.04 -0.00   
      6   C                0.09 -0.04 -0.00   -0.05  0.09  0.00   -0.00  0.02 -0.00   
      7   H               -0.34  0.48  0.00   -0.20  0.34  0.00    0.02 -0.05 -0.00   
      8   H               -0.10 -0.08 -0.00   -0.20 -0.34  0.00    0.32  0.54 -0.00   
      9   H                0.33 -0.06  0.00    0.40 -0.00 -0.00    0.30 -0.01  0.00   
     10   H               -0.33  0.06 -0.00    0.40 -0.00  0.00   -0.30  0.01 -0.00   
     11   H                0.10  0.08  0.00   -0.20 -0.34 -0.00   -0.32 -0.54  0.00   
     12   H                0.34 -0.48  0.00   -0.20  0.34 -0.00   -0.02  0.05  0.00   

  Vibration                       25                  26                  27          
  Freq [cm^-1]                1273.6003           1368.2589           1508.7323       
  Irrep                           Bu                  Ag                  Bu          
  Reduced mass [u]              1.9594              1.2562              1.8793        
  Force const [mDyne/A]         1.8726              1.3856              2.5204        
  Turning point v=0 [a0]        0.2196              0.2647              0.2061        
  RMS dev v=0 [a0 u^1/2]        0.2174              0.2098              0.1998        
  Char temp [K]               1832.4272           1968.6199           2170.7299       
  ----------------------------------------------------------------------------------
      1   C               -0.06  0.10 -0.00   -0.03  0.06  0.00    0.09 -0.00 -0.00   
      2   C               -0.06 -0.10  0.00    0.03  0.07  0.00   -0.06 -0.12 -0.00   
      3   C                0.12 -0.00  0.00   -0.03 -0.01  0.00   -0.09  0.07 -0.00   
      4   C                0.12 -0.00  0.00    0.03  0.01 -0.00   -0.09  0.07  0.00   
      5   C               -0.06 -0.10 -0.00   -0.03 -0.07  0.00   -0.06 -0.12 -0.00   
      6   C               -0.06  0.10 -0.00    0.03 -0.06  0.00    0.09 -0.00 -0.00   
      7   H                0.19 -0.34  0.00    0.19 -0.33 -0.00   -0.01  0.22  0.00   
      8   H                0.20  0.34 -0.00   -0.14 -0.23  0.00    0.29  0.45 -0.00   
      9   H               -0.39  0.00  0.00    0.52 -0.01 -0.00    0.34  0.08  0.00   
     10   H               -0.39  0.00 -0.00   -0.52  0.01  0.00    0.34  0.08 -0.00   
     11   H                0.20  0.34  0.00    0.14  0.23 -0.00    0.29  0.45  0.00   
     12   H                0.19 -0.34  0.00   -0.19  0.33 -0.00   -0.01  0.22  0.00   

  Vibration                       28                  29                  30          
  Freq [cm^-1]                1508.8549           1605.7130           1637.6396       
  Irrep                           Bu                  Ag                  Ag          
  Reduced mass [u]              1.8763              4.8389              3.9723        
  Force const [mDyne/A]         2.5168              7.3508              6.2766        
  Turning point v=0 [a0]        0.2062              0.1245              0.1360        
  RMS dev v=0 [a0 u^1/2]        0.1997              0.1936              0.1917        
  Char temp [K]               2170.9062           2310.2635           2356.1988       
  ----------------------------------------------------------------------------------
      1   C               -0.04  0.13  0.00   -0.06 -0.17  0.00   -0.16  0.19  0.00   
      2   C                0.08 -0.02  0.00    0.17  0.26  0.00    0.10 -0.10 -0.00   
      3   C               -0.11 -0.05 -0.00    0.18  0.11 -0.00    0.22 -0.07  0.00   
      4   C               -0.11 -0.05  0.00   -0.18 -0.11  0.00   -0.22  0.07 -0.00   
      5   C                0.08 -0.02 -0.00   -0.17 -0.26  0.00   -0.10  0.10 -0.00   
      6   C               -0.04  0.13 -0.00    0.06  0.17 -0.00    0.16 -0.19  0.00   
      7   H                0.28 -0.42 -0.00   -0.24  0.11  0.00    0.14 -0.37 -0.00   
      8   H                0.05 -0.12 -0.00   -0.21 -0.39  0.00    0.14 -0.06  0.00   
      9   H                0.42 -0.07  0.00   -0.20  0.13  0.00   -0.43 -0.08 -0.00   
     10   H                0.42 -0.07 -0.00    0.20 -0.13 -0.00    0.43  0.08 -0.00   
     11   H                0.05 -0.12  0.00    0.21  0.39 -0.00   -0.14  0.06  0.00   
     12   H                0.28 -0.42  0.00    0.24 -0.11  0.00   -0.14  0.37 -0.00   

  Vibration                       31                  32                  33          
  Freq [cm^-1]                3085.7150           3094.9657           3095.2920       
  Irrep                           Bu                  Ag                  Ag          
  Reduced mass [u]              1.0846              1.0882              1.0883        
  Force const [mDyne/A]         6.0847              6.1415              6.1433        
  Turning point v=0 [a0]        0.1897              0.1891              0.1891        
  RMS dev v=0 [a0 u^1/2]        0.1397              0.1395              0.1395        
  Char temp [K]               4439.6569           4452.9665           4453.4360       
  ----------------------------------------------------------------------------------
      1   C                0.03  0.02  0.00    0.01  0.01 -0.00   -0.04 -0.02  0.00   
      2   C               -0.03  0.02 -0.00    0.03 -0.02 -0.00    0.03 -0.02 -0.00   
      3   C               -0.00 -0.03  0.00    0.00 -0.05  0.00    0.00  0.01  0.00   
      4   C               -0.00 -0.03 -0.00   -0.00  0.05  0.00   -0.00 -0.01  0.00   
      5   C               -0.03  0.02 -0.00   -0.03  0.02  0.00   -0.03  0.02  0.00   
      6   C                0.03  0.02 -0.00   -0.01 -0.01  0.00    0.04  0.02  0.00   
      7   H               -0.35 -0.20 -0.00   -0.14 -0.08  0.00    0.49  0.28  0.00   
      8   H                0.35 -0.21  0.00   -0.35  0.21  0.00   -0.35  0.20  0.00   
      9   H                0.00  0.40 -0.00    0.01  0.55 -0.00   -0.00 -0.13 -0.00   
     10   H                0.00  0.40  0.00   -0.01 -0.55  0.00    0.00  0.13  0.00   
     11   H                0.35 -0.21  0.00    0.35 -0.21 -0.00    0.35 -0.20 -0.00   
     12   H               -0.35 -0.20 -0.00    0.14  0.08 -0.00   -0.49 -0.28 -0.00   

  Vibration                       34                  35                  36          
  Freq [cm^-1]                3110.0307           3110.2020           3119.8076       
  Irrep                           Bu                  Bu                  Ag          
  Reduced mass [u]              1.0954              1.0954              1.0988        
  Force const [mDyne/A]         6.2423              6.2429              6.3010        
  Turning point v=0 [a0]        0.1880              0.1880              0.1874        
  RMS dev v=0 [a0 u^1/2]        0.1391              0.1391              0.1389        
  Char temp [K]               4474.6418           4474.8882           4488.7085       
  ----------------------------------------------------------------------------------
      1   C               -0.03 -0.02 -0.00   -0.03 -0.01  0.00   -0.03 -0.02 -0.00   
      2   C               -0.04  0.03  0.00    0.02 -0.01 -0.00   -0.03  0.02 -0.00   
      3   C                0.00  0.01  0.00    0.00 -0.05 -0.00   -0.00 -0.04 -0.00   
      4   C                0.00  0.01 -0.00    0.00 -0.05  0.00    0.00  0.04 -0.00   
      5   C               -0.04  0.03 -0.00    0.02 -0.01 -0.00    0.03 -0.02 -0.00   
      6   C               -0.03 -0.02 -0.00   -0.03 -0.01  0.00    0.03  0.02  0.00   
      7   H                0.37  0.22 -0.00    0.33  0.19  0.00    0.34  0.19  0.00   
      8   H                0.47 -0.28 -0.00   -0.16  0.09  0.00    0.36 -0.21  0.00   
      9   H               -0.01 -0.12  0.00    0.00  0.56 -0.00    0.00  0.42  0.00   
     10   H               -0.01 -0.12 -0.00    0.00  0.56  0.00   -0.00 -0.42 -0.00   
     11   H                0.47 -0.28  0.00   -0.16  0.09 -0.00   -0.36  0.21 -0.00   
     12   H                0.37  0.22  0.00    0.33  0.19 -0.00   -0.34 -0.19 -0.00   

  ==> Thermochemistry Components <==

  Entropy, S
    Electronic S            0.000 [cal/(mol K)]        0.000 [J/(mol K)]       0.00000000 [mEh/K] (multiplicity = 1)
    Translational S        38.979 [cal/(mol K)]      163.089 [J/(mol K)]       0.06211726 [mEh/K] (mol. weight = 78.0470 [u], P = 101325.00 [Pa])
    Rotational S           24.318 [cal/(mol K)]      101.746 [J/(mol K)]       0.03875307 [mEh/K] (symmetry no. = 2)
    Vibrational S           4.004 [cal/(mol K)]       16.753 [J/(mol K)]       0.00638106 [mEh/K]
  Total S                  67.301 [cal/(mol K)]      281.589 [J/(mol K)]       0.10725140 [mEh/K]
  Correction S              0.000 [cal/(mol K)]        0.000 [J/(mol K)]       0.00000000 [mEh/K]

  Constant volume heat capacity, Cv
    Electronic Cv           0.000 [cal/(mol K)]        0.000 [J/(mol K)]       0.00000000 [mEh/K]
    Translational Cv        2.981 [cal/(mol K)]       12.472 [J/(mol K)]       0.00475022 [mEh/K]
    Rotational Cv           2.981 [cal/(mol K)]       12.472 [J/(mol K)]       0.00475022 [mEh/K]
    Vibrational Cv         10.717 [cal/(mol K)]       44.841 [J/(mol K)]       0.01707899 [mEh/K]
  Total Cv                 16.679 [cal/(mol K)]       69.784 [J/(mol K)]       0.02657942 [mEh/K]
  Correction Cv             0.000 [cal/(mol K)]        0.000 [J/(mol K)]       0.00000000 [mEh/K]

  Constant pressure heat capacity, Cp
    Electronic Cp           0.000 [cal/(mol K)]        0.000 [J/(mol K)]       0.00000000 [mEh/K]
    Translational Cp        4.968 [cal/(mol K)]       20.786 [J/(mol K)]       0.00791703 [mEh/K]
    Rotational Cp           2.981 [cal/(mol K)]       12.472 [J/(mol K)]       0.00475022 [mEh/K]
    Vibrational Cp         10.717 [cal/(mol K)]       44.841 [J/(mol K)]       0.01707899 [mEh/K]
  Total Cp                 18.666 [cal/(mol K)]       78.099 [J/(mol K)]       0.02974623 [mEh/K]
  Correction Cp             0.000 [cal/(mol K)]        0.000 [J/(mol K)]       0.00000000 [mEh/K]

  ==> Thermochemistry Energy Analysis <==

  Raw electronic energy, E0
  Total E0, Electronic energy at well bottom at 0 [K]                 -232.22032133 [Eh]

  Zero-point energy, ZPE_vib = Sum_i nu_i / 2
    Electronic ZPE          0.000 [kcal/mol]        0.000 [kJ/mol]       0.00000000 [Eh]
    Translational ZPE       0.000 [kcal/mol]        0.000 [kJ/mol]       0.00000000 [Eh]
    Rotational ZPE          0.000 [kcal/mol]        0.000 [kJ/mol]       0.00000000 [Eh]
    Vibrational ZPE        62.537 [kcal/mol]      261.655 [kJ/mol]       0.09965903 [Eh]       21872.628 [cm^-1]
  Correction ZPE           62.537 [kcal/mol]      261.655 [kJ/mol]       0.09965903 [Eh]       21872.628 [cm^-1]
  Total ZPE, Electronic energy at 0 [K]                               -232.12066231 [Eh]

  Thermal Energy, E (includes ZPE)
    Electronic E            0.000 [kcal/mol]        0.000 [kJ/mol]       0.00000000 [Eh]
    Translational E         0.889 [kcal/mol]        3.718 [kJ/mol]       0.00141628 [Eh]
    Rotational E            0.889 [kcal/mol]        3.718 [kJ/mol]       0.00141628 [Eh]
    Vibrational E          63.440 [kcal/mol]      265.431 [kJ/mol]       0.10109750 [Eh]
  Correction E             65.217 [kcal/mol]      272.868 [kJ/mol]       0.10393005 [Eh]
  Total E, Electronic energy at  298.15 [K]                           -232.11639128 [Eh]

  Enthalpy, H_trans = E_trans + k_B * T
    Electronic H            0.000 [kcal/mol]        0.000 [kJ/mol]       0.00000000 [Eh]
    Translational H         1.481 [kcal/mol]        6.197 [kJ/mol]       0.00236046 [Eh]
    Rotational H            0.889 [kcal/mol]        3.718 [kJ/mol]       0.00141628 [Eh]
    Vibrational H          63.440 [kcal/mol]      265.431 [kJ/mol]       0.10109750 [Eh]
  Correction H             65.810 [kcal/mol]      275.347 [kJ/mol]       0.10487424 [Eh]
  Total H, Enthalpy at  298.15 [K]                                    -232.11544710 [Eh]

  Gibbs free energy, G = H - T * S
    Electronic G            0.000 [kcal/mol]        0.000 [kJ/mol]       0.00000000 [Eh]
    Translational G       -10.140 [kcal/mol]      -42.428 [kJ/mol]      -0.01615980 [Eh]
    Rotational G           -6.362 [kcal/mol]      -26.617 [kJ/mol]      -0.01013795 [Eh]
    Vibrational G          62.246 [kcal/mol]      260.436 [kJ/mol]       0.09919498 [Eh]
  Correction G             45.744 [kcal/mol]      191.392 [kJ/mol]       0.07289723 [Eh]
  Total G, Free enthalpy at  298.15 [K]                               -232.14742410 [Eh]

    Psi4 stopped on: Wednesday, 20 April 2022 07:49AM
    Psi4 wall time for execution: 0:55:37.05

*** Psi4 exiting successfully. Buy a developer a beer!
