
    -----------------------------------------------------------------------
          Psi4: An Open-Source Ab Initio Electronic Structure Package
                               Psi4 1.3.2 release

                         Git: Rev {HEAD} ecbda83 


    R. M. Parrish, L. A. Burns, D. G. A. Smith, A. C. Simmonett,
    A. E. DePrince III, E. G. Hohenstein, U. Bozkaya, A. Yu. Sokolov,
    R. Di Remigio, R. M. Richard, J. F. Gonthier, A. M. James,
    H. R. McAlexander, A. Kumar, M. Saitow, X. Wang, B. P. Pritchard,
    P. Verma, H. F. Schaefer III, K. Patkowski, R. A. King, E. F. Valeev,
    F. A. Evangelista, J. M. Turney, T. D. Crawford, and C. D. Sherrill,
    J. Chem. Theory Comput. 13(7) pp 3185--3197 (2017).
    (doi: 10.1021/acs.jctc.7b00174)


                         Additional Contributions by
    P. Kraus, H. Kruse, M. H. Lechner, M. C. Schieber, R. A. Shaw,
    A. Alenaizan, R. Galvelis, Z. L. Glick, S. Lehtola, and J. P. Misiewicz

    -----------------------------------------------------------------------


    Psi4 started on: Tuesday, 19 April 2022 10:03PM

    Process ID: 10130
    Host:       atlantis
    PSIDATADIR: /home/akrom/software/anaconda3/envs/ffpenv/share/psi4
    Memory:     500.0 MiB
    Threads:    1
    
  ==> Input File <==

--------------------------------------------------------------------------
set basis  6-31+G*
molecule {
0 1
   C       -1.22151       -0.69325        0.00000
   C       -1.21114        0.71122        0.00000
   C       -0.01037       -1.40452        0.00000
   C        0.01037        1.40452        0.00000
   C        1.21114       -0.71122        0.00000
   C        1.22151        0.69325        0.00000
   H       -2.17311       -1.23332        0.00000
   H       -2.15464        1.26533        0.00000
   H       -0.01848       -2.49865        0.00000
   H        0.01848        2.49865        0.00000
   H        2.15464       -1.26533        0.00000
   H        2.17311        1.23332        0.00000
}
energy('MP2')
frequencies('MP2')
--------------------------------------------------------------------------
    SCF Algorithm Type (re)set to DF.

*** tstart() called on atlantis
*** at Tue Apr 19 22:03:25 2022

   => Loading Basis Set <=

    Name: 6-31+G*
    Role: ORBITAL
    Keyword: BASIS
    atoms 1-6  entry C          line   119 file /home/akrom/software/anaconda3/envs/ffpenv/share/psi4/basis/6-31pgs.gbs 
    atoms 7-12 entry H          line    46 file /home/akrom/software/anaconda3/envs/ffpenv/share/psi4/basis/6-31pgs.gbs 


         ---------------------------------------------------------
                                   SCF
               by Justin Turney, Rob Parrish, Andy Simmonett
                          and Daniel G. A. Smith
                              RHF Reference
                        1 Threads,    500 MiB Core
         ---------------------------------------------------------

  ==> Geometry <==

    Molecular point group: c2h
    Full point group: C2h

    Geometry (in Angstrom), charge = 0, multiplicity = 1:

       Center              X                  Y                   Z               Mass       
    ------------   -----------------  -----------------  -----------------  -----------------
         C           -1.221510000000    -0.693250000000     0.000000000000    12.000000000000
         C           -1.211140000000     0.711220000000     0.000000000000    12.000000000000
         C           -0.010370000000    -1.404520000000     0.000000000000    12.000000000000
         C            0.010370000000     1.404520000000     0.000000000000    12.000000000000
         C            1.211140000000    -0.711220000000     0.000000000000    12.000000000000
         C            1.221510000000     0.693250000000     0.000000000000    12.000000000000
         H           -2.173110000000    -1.233320000000     0.000000000000     1.007825032230
         H           -2.154640000000     1.265330000000     0.000000000000     1.007825032230
         H           -0.018480000000    -2.498650000000     0.000000000000     1.007825032230
         H            0.018480000000     2.498650000000     0.000000000000     1.007825032230
         H            2.154640000000    -1.265330000000     0.000000000000     1.007825032230
         H            2.173110000000     1.233320000000     0.000000000000     1.007825032230

  Running in c2h symmetry.

  Rotational constants: A =      0.18753  B =      0.18752  C =      0.09376 [cm^-1]
  Rotational constants: A =   5621.92707  B =   5621.82252  C =   2810.93740 [MHz]
  Nuclear repulsion =  202.013308935380167

  Charge       = 0
  Multiplicity = 1
  Electrons    = 42
  Nalpha       = 21
  Nbeta        = 21

  ==> Algorithm <==

  SCF Algorithm Type is DF.
  DIIS enabled.
  MOM disabled.
  Fractional occupation disabled.
  Guess Type is SAD.
  Energy threshold   = 1.00e-08
  Density threshold  = 1.00e-08
  Integral threshold = 0.00e+00

  ==> Primary Basis <==

  Basis Set: 6-31+G*
    Blend: 6-31+G*
    Number of shells: 60
    Number of basis function: 126
    Number of Cartesian functions: 126
    Spherical Harmonics?: false
    Max angular momentum: 2

   => Loading Basis Set <=

    Name: (6-31+G* AUX)
    Role: JKFIT
    Keyword: DF_BASIS_SCF
    atoms 1-6  entry C          line   194 file /home/akrom/software/anaconda3/envs/ffpenv/share/psi4/basis/heavy-aug-cc-pvdz-jkfit.gbs 
    atoms 7-12 entry H          line   116 file /home/akrom/software/anaconda3/envs/ffpenv/share/psi4/basis/heavy-aug-cc-pvdz-jkfit.gbs 

  ==> Pre-Iterations <==

   -------------------------------------------------------
    Irrep   Nso     Nmo     Nalpha   Nbeta   Ndocc  Nsocc
   -------------------------------------------------------
     Ag        48      48       0       0       0       0
     Bg        15      15       0       0       0       0
     Au        15      15       0       0       0       0
     Bu        48      48       0       0       0       0
   -------------------------------------------------------
    Total     126     126      21      21      21       0
   -------------------------------------------------------

  ==> Integral Setup <==

  DFHelper Memory: AOs need 0.097 GiB; user supplied 0.366 GiB. Using in-core AOs.

  ==> MemDFJK: Density-Fitted J/K Matrices <==

    J tasked:                   Yes
    K tasked:                   Yes
    wK tasked:                   No
    OpenMP threads:               1
    Memory [MiB]:               375
    Algorithm:                 Core
    Schwarz Cutoff:           1E-12
    Mask sparsity (%):       0.2268
    Fitting Condition:        1E-10

   => Auxiliary Basis Set <=

  Basis Set: (6-31+G* AUX)
    Blend: HEAVY-AUG-CC-PVDZ-JKFIT
    Number of shells: 222
    Number of basis function: 756
    Number of Cartesian functions: 756
    Spherical Harmonics?: false
    Max angular momentum: 3

  Minimum eigenvalue in the overlap matrix is 6.7977624208E-06.
  Using Symmetric Orthogonalization.

  SCF Guess: Superposition of Atomic Densities via on-the-fly atomic UHF.

  ==> Iterations <==

                           Total Energy        Delta E     RMS |[F,P]|

   @DF-RHF iter SAD:  -229.90720734007979   -2.29907e+02   0.00000e+00 
   @DF-RHF iter   1:  -230.54249009288509   -6.35283e-01   7.18083e-03 DIIS
   @DF-RHF iter   2:  -230.67797132332188   -1.35481e-01   3.33339e-03 DIIS
   @DF-RHF iter   3:  -230.70661131210471   -2.86400e-02   4.78686e-04 DIIS
   @DF-RHF iter   4:  -230.70767033973522   -1.05903e-03   4.47478e-05 DIIS
   @DF-RHF iter   5:  -230.70768183331552   -1.14936e-05   7.85116e-06 DIIS
   @DF-RHF iter   6:  -230.70768217321182   -3.39896e-07   9.16722e-07 DIIS
   @DF-RHF iter   7:  -230.70768217823075   -5.01893e-09   9.82998e-08 DIIS
   @DF-RHF iter   8:  -230.70768217829681   -6.60521e-11   1.88641e-08 DIIS
   @DF-RHF iter   9:  -230.70768217829882   -2.01794e-12   7.73043e-09 DIIS
  Energy and wave function converged.


  ==> Post-Iterations <==

    Orbital Energies [Eh]
    ---------------------

    Doubly Occupied:                                                      

       1Ag   -11.247238     1Bu   -11.246704     2Bu   -11.246702  
       2Ag   -11.245552     3Ag   -11.245550     3Bu   -11.244995  
       4Ag    -1.146742     4Bu    -1.013251     5Bu    -1.013244  
       5Ag    -0.822738     6Ag    -0.822726     7Ag    -0.705548  
       6Bu    -0.644391     7Bu    -0.616908     8Bu    -0.587339  
       9Bu    -0.587336     1Au    -0.497401     8Ag    -0.495760  
       9Ag    -0.495731     1Bg    -0.334971     2Bg    -0.334960  

    Virtual:                                                              

      10Ag     0.084781    10Bu     0.089324    11Bu     0.089325  
      11Ag     0.102168    12Ag     0.102168     2Au     0.108367  
       3Au     0.108377    12Bu     0.128743     4Au     0.138319  
       3Bg     0.159534     4Bg     0.159534    13Bu     0.165554  
      13Ag     0.173017    14Ag     0.204686    15Ag     0.204687  
       5Bg     0.210458     5Au     0.225717     6Au     0.225724  
      14Bu     0.240961    15Bu     0.240963    16Bu     0.252619  
      17Bu     0.252620    16Ag     0.289943    17Ag     0.289943  
      18Ag     0.305162    19Ag     0.323332    18Bu     0.324604  
       6Bg     0.378376    19Bu     0.384299    20Bu     0.384306  
      20Ag     0.430025    21Ag     0.430027    21Bu     0.451183  
      22Ag     0.516636    23Ag     0.516651    22Bu     0.519464  
      23Bu     0.519486    24Bu     0.762540    24Ag     0.779155  
      25Ag     0.820092    25Bu     0.826415     7Au     0.892140  
       7Bg     0.951732     8Bg     0.951737    26Ag     0.959415  
      27Ag     0.959433     8Au     0.991198     9Au     0.991203  
      26Bu     1.008264    27Bu     1.008277    28Ag     1.028206  
       9Bg     1.048523    28Bu     1.162275    29Ag     1.190262  
      30Ag     1.190264    29Bu     1.211454    30Bu     1.211474  
      31Ag     1.250815    32Ag     1.275406    31Bu     1.298701  
      32Bu     1.298717    33Bu     1.376290    34Bu     1.376308  
      33Ag     1.387415    34Ag     1.387420    10Bg     1.508699  
      35Bu     1.559514    10Au     1.662686    35Ag     1.688470  
      36Ag     1.688488    11Au     1.755997    12Au     1.756020  
      11Bg     1.786402    12Bg     1.786410    37Ag     2.039340  
      36Bu     2.114203    37Bu     2.157210    38Ag     2.187858  
      38Bu     2.308344    39Bu     2.308350    39Ag     2.419642  
      40Ag     2.419648    13Au     2.462094    14Au     2.462105  
      40Bu     2.468483    41Bu     2.468512    13Bg     2.623018  
      14Bg     2.623087    15Bg     2.636466    41Ag     2.898876  
      42Ag     2.898894    15Au     2.974188    43Ag     3.048732  
      44Ag     3.048779    42Bu     3.084430    43Bu     3.084467  
      44Bu     3.143732    45Ag     3.385709    45Bu     3.750222  
      46Ag     4.639474    46Bu     4.661630    47Bu     4.661643  
      47Ag     4.799084    48Ag     4.799089    48Bu     5.099410  

    Final Occupation by Irrep:
             Ag    Bg    Au    Bu 
    DOCC [     9,    2,    1,    9 ]

  @DF-RHF Final Energy:  -230.70768217829882

   => Energetics <=

    Nuclear Repulsion Energy =            202.0133089353801665
    One-Electron Energy =                -710.2504062939412961
    Two-Electron Energy =                 277.5294151802622764
    Total Energy =                       -230.7076821782988532

Computation Completed


Properties will be evaluated at   0.000000,   0.000000,   0.000000 [a0]

Properties computed using the SCF density matrix

  Nuclear Dipole Moment: [e a0]
     X:    -0.0000      Y:    -0.0000      Z:     0.0000

  Electronic Dipole Moment: [e a0]
     X:     0.0000      Y:     0.0000      Z:     0.0000

  Dipole Moment: [e a0]
     X:    -0.0000      Y:    -0.0000      Z:     0.0000     Total:     0.0000

  Dipole Moment: [D]
     X:    -0.0000      Y:    -0.0000      Z:     0.0000     Total:     0.0000


*** tstop() called on atlantis at Tue Apr 19 22:03:26 2022
Module time:
	user time   =       1.80 seconds =       0.03 minutes
	system time =       0.04 seconds =       0.00 minutes
	total time  =          1 seconds =       0.02 minutes
Total time:
	user time   =       1.80 seconds =       0.03 minutes
	system time =       0.04 seconds =       0.00 minutes
	total time  =          1 seconds =       0.02 minutes

*** tstart() called on atlantis
*** at Tue Apr 19 22:03:26 2022


  //>>>>>>>>>>>>>>>>>>>>>>>>>>>>>>>>>>>//
  //               DFMP2               //
  //<<<<<<<<<<<<<<<<<<<<<<<<<<<<<<<<<<<//

   => Loading Basis Set <=

    Name: (6-31+G* AUX)
    Role: RIFIT
    Keyword: DF_BASIS_MP2
    atoms 1-6  entry C          line   116 file /home/akrom/software/anaconda3/envs/ffpenv/share/psi4/basis/heavy-aug-cc-pvdz-ri.gbs 
    atoms 7-12 entry H          line    44 file /home/akrom/software/anaconda3/envs/ffpenv/share/psi4/basis/heavy-aug-cc-pvdz-ri.gbs 

	 --------------------------------------------------------
	                          DF-MP2                         
	      2nd-Order Density-Fitted Moller-Plesset Theory     
	              RMP2 Wavefunction,   1 Threads             
	                                                         
	        Rob Parrish, Justin Turney, Andy Simmonett,      
	           Ed Hohenstein, and C. David Sherrill          
	 --------------------------------------------------------

   => Auxiliary Basis Set <=

  Basis Set: (6-31+G* AUX)
    Blend: HEAVY-AUG-CC-PVDZ-RI
    Number of shells: 168
    Number of basis function: 516
    Number of Cartesian functions: 606
    Spherical Harmonics?: true
    Max angular momentum: 3

	 --------------------------------------------------------
	                 NBF =   126, NAUX =   516
	 --------------------------------------------------------
	   CLASS    FOCC     OCC    AOCC    AVIR     VIR    FVIR
	   PAIRS       0      21      21     105     105       0
	 --------------------------------------------------------

	-----------------------------------------------------------
	 ==================> DF-MP2 Energies <==================== 
	-----------------------------------------------------------
	 Reference Energy          =    -230.7076821782988247 [Eh]
	 Singles Energy            =      -0.0000000000000000 [Eh]
	 Same-Spin Energy          =      -0.2084093986335855 [Eh]
	 Opposite-Spin Energy      =      -0.5848699686561649 [Eh]
	 Correlation Energy        =      -0.7932793672897505 [Eh]
	 Total Energy              =    -231.5009615455885807 [Eh]
	-----------------------------------------------------------
	 ================> DF-SCS-MP2 Energies <================== 
	-----------------------------------------------------------
	 SCS Same-Spin Scale       =       0.3333333333333333 [-]
	 SCS Opposite-Spin Scale   =       1.2000000000000000 [-]
	 SCS Same-Spin Energy      =      -0.0694697995445285 [Eh]
	 SCS Opposite-Spin Energy  =      -0.7018439623873979 [Eh]
	 SCS Correlation Energy    =      -0.7713137619319264 [Eh]
	 SCS Total Energy          =    -231.4789959402307602 [Eh]
	-----------------------------------------------------------


*** tstop() called on atlantis at Tue Apr 19 22:03:27 2022
Module time:
	user time   =       0.49 seconds =       0.01 minutes
	system time =       0.04 seconds =       0.00 minutes
	total time  =          1 seconds =       0.02 minutes
Total time:
	user time   =       2.29 seconds =       0.04 minutes
	system time =       0.08 seconds =       0.00 minutes
	total time  =          2 seconds =       0.03 minutes
gradient() will perform analytic gradient computation.
    SCF Algorithm Type (re)set to DF.

*** tstart() called on atlantis
*** at Tue Apr 19 22:03:27 2022

   => Loading Basis Set <=

    Name: 6-31+G*
    Role: ORBITAL
    Keyword: BASIS
    atoms 1-6  entry C          line   119 file /home/akrom/software/anaconda3/envs/ffpenv/share/psi4/basis/6-31pgs.gbs 
    atoms 7-12 entry H          line    46 file /home/akrom/software/anaconda3/envs/ffpenv/share/psi4/basis/6-31pgs.gbs 


         ---------------------------------------------------------
                                   SCF
               by Justin Turney, Rob Parrish, Andy Simmonett
                          and Daniel G. A. Smith
                              RHF Reference
                        1 Threads,    500 MiB Core
         ---------------------------------------------------------

  ==> Geometry <==

    Molecular point group: c2h
    Full point group: C2h

    Geometry (in Angstrom), charge = 0, multiplicity = 1:

       Center              X                  Y                   Z               Mass       
    ------------   -----------------  -----------------  -----------------  -----------------
         C           -1.221510000000    -0.693250000000     0.000000000000    12.000000000000
         C           -1.211140000000     0.711220000000     0.000000000000    12.000000000000
         C           -0.010370000000    -1.404520000000     0.000000000000    12.000000000000
         C            0.010370000000     1.404520000000     0.000000000000    12.000000000000
         C            1.211140000000    -0.711220000000     0.000000000000    12.000000000000
         C            1.221510000000     0.693250000000     0.000000000000    12.000000000000
         H           -2.173110000000    -1.233320000000     0.000000000000     1.007825032230
         H           -2.154640000000     1.265330000000     0.000000000000     1.007825032230
         H           -0.018480000000    -2.498650000000     0.000000000000     1.007825032230
         H            0.018480000000     2.498650000000     0.000000000000     1.007825032230
         H            2.154640000000    -1.265330000000     0.000000000000     1.007825032230
         H            2.173110000000     1.233320000000     0.000000000000     1.007825032230

  Running in c2h symmetry.

  Rotational constants: A =      0.18753  B =      0.18752  C =      0.09376 [cm^-1]
  Rotational constants: A =   5621.92707  B =   5621.82252  C =   2810.93740 [MHz]
  Nuclear repulsion =  202.013308935380167

  Charge       = 0
  Multiplicity = 1
  Electrons    = 42
  Nalpha       = 21
  Nbeta        = 21

  ==> Algorithm <==

  SCF Algorithm Type is DF.
  DIIS enabled.
  MOM disabled.
  Fractional occupation disabled.
  Guess Type is SAD.
  Energy threshold   = 1.00e-10
  Density threshold  = 1.00e-10
  Integral threshold = 0.00e+00

  ==> Primary Basis <==

  Basis Set: 6-31+G*
    Blend: 6-31+G*
    Number of shells: 60
    Number of basis function: 126
    Number of Cartesian functions: 126
    Spherical Harmonics?: false
    Max angular momentum: 2

   => Loading Basis Set <=

    Name: (6-31+G* AUX)
    Role: JKFIT
    Keyword: DF_BASIS_SCF
    atoms 1-6  entry C          line   194 file /home/akrom/software/anaconda3/envs/ffpenv/share/psi4/basis/heavy-aug-cc-pvdz-jkfit.gbs 
    atoms 7-12 entry H          line   116 file /home/akrom/software/anaconda3/envs/ffpenv/share/psi4/basis/heavy-aug-cc-pvdz-jkfit.gbs 

  ==> Pre-Iterations <==

   -------------------------------------------------------
    Irrep   Nso     Nmo     Nalpha   Nbeta   Ndocc  Nsocc
   -------------------------------------------------------
     Ag        48      48       0       0       0       0
     Bg        15      15       0       0       0       0
     Au        15      15       0       0       0       0
     Bu        48      48       0       0       0       0
   -------------------------------------------------------
    Total     126     126      21      21      21       0
   -------------------------------------------------------

  ==> Integral Setup <==

  DFHelper Memory: AOs need 0.097 GiB; user supplied 0.366 GiB. Using in-core AOs.

  ==> MemDFJK: Density-Fitted J/K Matrices <==

    J tasked:                   Yes
    K tasked:                   Yes
    wK tasked:                   No
    OpenMP threads:               1
    Memory [MiB]:               375
    Algorithm:                 Core
    Schwarz Cutoff:           1E-12
    Mask sparsity (%):       0.2268
    Fitting Condition:        1E-10

   => Auxiliary Basis Set <=

  Basis Set: (6-31+G* AUX)
    Blend: HEAVY-AUG-CC-PVDZ-JKFIT
    Number of shells: 222
    Number of basis function: 756
    Number of Cartesian functions: 756
    Spherical Harmonics?: false
    Max angular momentum: 3

  Minimum eigenvalue in the overlap matrix is 6.7977624208E-06.
  Using Symmetric Orthogonalization.

  SCF Guess: Superposition of Atomic Densities via on-the-fly atomic UHF.

  ==> Iterations <==

                           Total Energy        Delta E     RMS |[F,P]|

   @DF-RHF iter SAD:  -229.90720733892226   -2.29907e+02   0.00000e+00 
   @DF-RHF iter   1:  -230.54249009169283   -6.35283e-01   7.18083e-03 DIIS
   @DF-RHF iter   2:  -230.67797132208554   -1.35481e-01   3.33339e-03 DIIS
   @DF-RHF iter   3:  -230.70661131085961   -2.86400e-02   4.78686e-04 DIIS
   @DF-RHF iter   4:  -230.70767033848838   -1.05903e-03   4.47478e-05 DIIS
   @DF-RHF iter   5:  -230.70768183206914   -1.14936e-05   7.85116e-06 DIIS
   @DF-RHF iter   6:  -230.70768217196542   -3.39896e-07   9.16722e-07 DIIS
   @DF-RHF iter   7:  -230.70768217698458   -5.01916e-09   9.82998e-08 DIIS
   @DF-RHF iter   8:  -230.70768217705023   -6.56541e-11   1.88641e-08 DIIS
   @DF-RHF iter   9:  -230.70768217705253   -2.30216e-12   7.73042e-09 DIIS
   @DF-RHF iter  10:  -230.70768217705242    1.13687e-13   1.68365e-09 DIIS
   @DF-RHF iter  11:  -230.70768217705302   -5.96856e-13   1.97014e-10 DIIS
   @DF-RHF iter  12:  -230.70768217705276    2.55795e-13   1.68425e-11 DIIS
  Energy and wave function converged.


  ==> Post-Iterations <==

    Orbital Energies [Eh]
    ---------------------

    Doubly Occupied:                                                      

       1Ag   -11.247238     1Bu   -11.246704     2Bu   -11.246702  
       2Ag   -11.245552     3Ag   -11.245550     3Bu   -11.244995  
       4Ag    -1.146742     4Bu    -1.013251     5Bu    -1.013244  
       5Ag    -0.822738     6Ag    -0.822726     7Ag    -0.705548  
       6Bu    -0.644391     7Bu    -0.616908     8Bu    -0.587339  
       9Bu    -0.587336     1Au    -0.497401     8Ag    -0.495760  
       9Ag    -0.495731     1Bg    -0.334971     2Bg    -0.334960  

    Virtual:                                                              

      10Ag     0.084781    10Bu     0.089324    11Bu     0.089325  
      11Ag     0.102168    12Ag     0.102168     2Au     0.108367  
       3Au     0.108377    12Bu     0.128743     4Au     0.138319  
       3Bg     0.159534     4Bg     0.159534    13Bu     0.165554  
      13Ag     0.173017    14Ag     0.204686    15Ag     0.204687  
       5Bg     0.210458     5Au     0.225717     6Au     0.225724  
      14Bu     0.240961    15Bu     0.240963    16Bu     0.252619  
      17Bu     0.252621    16Ag     0.289943    17Ag     0.289943  
      18Ag     0.305162    19Ag     0.323332    18Bu     0.324605  
       6Bg     0.378376    19Bu     0.384299    20Bu     0.384306  
      20Ag     0.430025    21Ag     0.430027    21Bu     0.451183  
      22Ag     0.516636    23Ag     0.516651    22Bu     0.519464  
      23Bu     0.519486    24Bu     0.762540    24Ag     0.779155  
      25Ag     0.820092    25Bu     0.826415     7Au     0.892140  
       7Bg     0.951732     8Bg     0.951738    26Ag     0.959415  
      27Ag     0.959433     8Au     0.991198     9Au     0.991203  
      26Bu     1.008264    27Bu     1.008277    28Ag     1.028206  
       9Bg     1.048523    28Bu     1.162275    29Ag     1.190262  
      30Ag     1.190264    29Bu     1.211454    30Bu     1.211474  
      31Ag     1.250815    32Ag     1.275406    31Bu     1.298701  
      32Bu     1.298717    33Bu     1.376290    34Bu     1.376308  
      33Ag     1.387415    34Ag     1.387420    10Bg     1.508699  
      35Bu     1.559514    10Au     1.662686    35Ag     1.688470  
      36Ag     1.688488    11Au     1.755997    12Au     1.756020  
      11Bg     1.786402    12Bg     1.786410    37Ag     2.039340  
      36Bu     2.114203    37Bu     2.157210    38Ag     2.187858  
      38Bu     2.308344    39Bu     2.308350    39Ag     2.419641  
      40Ag     2.419648    13Au     2.462094    14Au     2.462105  
      40Bu     2.468483    41Bu     2.468512    13Bg     2.623018  
      14Bg     2.623087    15Bg     2.636466    41Ag     2.898876  
      42Ag     2.898894    15Au     2.974188    43Ag     3.048732  
      44Ag     3.048779    42Bu     3.084430    43Bu     3.084467  
      44Bu     3.143732    45Ag     3.385709    45Bu     3.750222  
      46Ag     4.639474    46Bu     4.661630    47Bu     4.661643  
      47Ag     4.799084    48Ag     4.799089    48Bu     5.099410  

    Final Occupation by Irrep:
             Ag    Bg    Au    Bu 
    DOCC [     9,    2,    1,    9 ]

  @DF-RHF Final Energy:  -230.70768217705276

   => Energetics <=

    Nuclear Repulsion Energy =            202.0133089353801665
    One-Electron Energy =                -710.2504065378658424
    Two-Electron Energy =                 277.5294154254329442
    Total Energy =                       -230.7076821770527317

Computation Completed


Properties will be evaluated at   0.000000,   0.000000,   0.000000 [a0]

Properties computed using the SCF density matrix

  Nuclear Dipole Moment: [e a0]
     X:    -0.0000      Y:    -0.0000      Z:     0.0000

  Electronic Dipole Moment: [e a0]
     X:     0.0000      Y:     0.0000      Z:     0.0000

  Dipole Moment: [e a0]
     X:    -0.0000      Y:    -0.0000      Z:     0.0000     Total:     0.0000

  Dipole Moment: [D]
     X:    -0.0000      Y:    -0.0000      Z:     0.0000     Total:     0.0000


*** tstop() called on atlantis at Tue Apr 19 22:03:29 2022
Module time:
	user time   =       1.94 seconds =       0.03 minutes
	system time =       0.04 seconds =       0.00 minutes
	total time  =          2 seconds =       0.03 minutes
Total time:
	user time   =       4.24 seconds =       0.07 minutes
	system time =       0.12 seconds =       0.00 minutes
	total time  =          4 seconds =       0.07 minutes

*** tstart() called on atlantis
*** at Tue Apr 19 22:03:29 2022


  //>>>>>>>>>>>>>>>>>>>>>>>>>>>>>>>>>>>//
  //               DFMP2               //
  //<<<<<<<<<<<<<<<<<<<<<<<<<<<<<<<<<<<//

   => Loading Basis Set <=

    Name: (6-31+G* AUX)
    Role: RIFIT
    Keyword: DF_BASIS_MP2
    atoms 1-6  entry C          line   116 file /home/akrom/software/anaconda3/envs/ffpenv/share/psi4/basis/heavy-aug-cc-pvdz-ri.gbs 
    atoms 7-12 entry H          line    44 file /home/akrom/software/anaconda3/envs/ffpenv/share/psi4/basis/heavy-aug-cc-pvdz-ri.gbs 

	 --------------------------------------------------------
	                          DF-MP2                         
	      2nd-Order Density-Fitted Moller-Plesset Theory     
	              RMP2 Wavefunction,   1 Threads             
	                                                         
	        Rob Parrish, Justin Turney, Andy Simmonett,      
	           Ed Hohenstein, and C. David Sherrill          
	 --------------------------------------------------------

   => Auxiliary Basis Set <=

  Basis Set: (6-31+G* AUX)
    Blend: HEAVY-AUG-CC-PVDZ-RI
    Number of shells: 168
    Number of basis function: 516
    Number of Cartesian functions: 606
    Spherical Harmonics?: true
    Max angular momentum: 3

	 --------------------------------------------------------
	                 NBF =   126, NAUX =   516
	 --------------------------------------------------------
	   CLASS    FOCC     OCC    AOCC    AVIR     VIR    FVIR
	   PAIRS       0      21      21     105     105       0
	 --------------------------------------------------------

  DFHelper Memory: AOs need 0.097 GiB; user supplied 0.366 GiB. Using in-core AOs.


         ------------------------------------------------------------
                                     CPHF                           
                                  Rob Parrish                       
         ------------------------------------------------------------

  ==> Geometry <==

    Molecular point group: c2h
    Full point group: C2h

    Geometry (in Angstrom), charge = 0, multiplicity = 1:

       Center              X                  Y                   Z               Mass       
    ------------   -----------------  -----------------  -----------------  -----------------
         C           -1.221510000000    -0.693250000000     0.000000000000    12.000000000000
         C           -1.211140000000     0.711220000000     0.000000000000    12.000000000000
         C           -0.010370000000    -1.404520000000     0.000000000000    12.000000000000
         C            0.010370000000     1.404520000000     0.000000000000    12.000000000000
         C            1.211140000000    -0.711220000000     0.000000000000    12.000000000000
         C            1.221510000000     0.693250000000     0.000000000000    12.000000000000
         H           -2.173110000000    -1.233320000000     0.000000000000     1.007825032230
         H           -2.154640000000     1.265330000000     0.000000000000     1.007825032230
         H           -0.018480000000    -2.498650000000     0.000000000000     1.007825032230
         H            0.018480000000     2.498650000000     0.000000000000     1.007825032230
         H            2.154640000000    -1.265330000000     0.000000000000     1.007825032230
         H            2.173110000000     1.233320000000     0.000000000000     1.007825032230

  Nuclear repulsion =  202.013308935380167
  Reference energy  = -230.707682177052760

  ==> Basis Set <==

  Basis Set: 6-31+G*
    Blend: 6-31+G*
    Number of shells: 60
    Number of basis function: 126
    Number of Cartesian functions: 126
    Spherical Harmonics?: false
    Max angular momentum: 2

  ==> CGRSolver (by Rob Parrish) <==

   Number of roots    =         1
   Preconditioning    =    JACOBI
   Convergence cutoff =     1E-06
   Maximum iterations =       100

  ==> CPHFRHamiltonian (by Rob Parrish) <== 

  ==> MemDFJK: Density-Fitted J/K Matrices <==

    J tasked:                   Yes
    K tasked:                   Yes
    wK tasked:                   No
    OpenMP threads:               1
    Memory [MiB]:               375
    Algorithm:                 Core
    Schwarz Cutoff:           1E-12
    Mask sparsity (%):       0.2268
    Fitting Condition:        1E-10

   => Auxiliary Basis Set <=

  Basis Set: (6-31+G* AUX)
    Blend: HEAVY-AUG-CC-PVDZ-JKFIT
    Number of shells: 222
    Number of basis function: 756
    Number of Cartesian functions: 756
    Spherical Harmonics?: false
    Max angular momentum: 3

  ==> CPHF Iterations <==

  => Iterations <=

             Iter  Converged  Remaining    Residual
  CGR           1          0          1   8.276E-02
  CGR           2          0          1   1.084E-02
  CGR           3          0          1   2.608E-03
  CGR           4          0          1   3.909E-04
  CGR           5          0          1   5.304E-05
  CGR           6          0          1   5.997E-06
  CGR           7          1          0   7.085E-07

    CGRSolver converged.

  ==> DFCorrGrad: Density-Fitted Correlated Gradients <==

    OpenMP threads:              1
    Integrals threads:           1
    Memory [GiB]:            0.366
    Schwarz Cutoff:          0E+00
    Fitting Condition:       1E-10

   => Auxiliary Basis Set <=

  Basis Set: (6-31+G* AUX)
    Blend: HEAVY-AUG-CC-PVDZ-JKFIT
    Number of shells: 222
    Number of basis function: 756
    Number of Cartesian functions: 756
    Spherical Harmonics?: false
    Max angular momentum: 3

	-----------------------------------------------------------
	 ==================> DF-MP2 Energies <==================== 
	-----------------------------------------------------------
	 Reference Energy          =    -230.7076821770527602 [Eh]
	 Singles Energy            =      -0.0000000000000000 [Eh]
	 Same-Spin Energy          =      -0.2084093986782280 [Eh]
	 Opposite-Spin Energy      =      -0.5848699684345198 [Eh]
	 Correlation Energy        =      -0.7932793671127477 [Eh]
	 Total Energy              =    -231.5009615441655058 [Eh]
	-----------------------------------------------------------
	 ================> DF-SCS-MP2 Energies <================== 
	-----------------------------------------------------------
	 SCS Same-Spin Scale       =       0.3333333333333333 [-]
	 SCS Opposite-Spin Scale   =       1.2000000000000000 [-]
	 SCS Same-Spin Energy      =      -0.0694697995594093 [Eh]
	 SCS Opposite-Spin Energy  =      -0.7018439621214237 [Eh]
	 SCS Correlation Energy    =      -0.7713137616808331 [Eh]
	 SCS Total Energy          =    -231.4789959387335898 [Eh]
	-----------------------------------------------------------


  -Total Gradient:
     Atom            X                  Y                   Z
    ------   -----------------  -----------------  -----------------
       1       -0.001938991595    -0.001067961352     0.000000000000
       2       -0.001923140381     0.001088547687     0.000000000000
       3       -0.000008383826    -0.002257480762     0.000000000000
       4        0.000008383826     0.002257480762     0.000000000000
       5        0.001923140381    -0.001088547687     0.000000000000
       6        0.001938991595     0.001067961352     0.000000000000
       7       -0.003895176656    -0.002211237902     0.000000000000
       8       -0.003862417018     0.002275316076     0.000000000000
       9       -0.000036014672    -0.004471262162     0.000000000000
      10        0.000036014672     0.004471262162     0.000000000000
      11        0.003862417018    -0.002275316076     0.000000000000
      12        0.003895176656     0.002211237902     0.000000000000


*** tstop() called on atlantis at Tue Apr 19 22:03:35 2022
Module time:
	user time   =       6.13 seconds =       0.10 minutes
	system time =       0.25 seconds =       0.00 minutes
	total time  =          6 seconds =       0.10 minutes
Total time:
	user time   =      10.37 seconds =       0.17 minutes
	system time =       0.37 seconds =       0.01 minutes
	total time  =         10 seconds =       0.17 minutes

  Based on options and gradient (rms=2.04E-03), recommend projecting translations and projecting rotations.
hessian() will perform frequency computation by finite difference of analytic gradients.

         ----------------------------------------------------------
                                   FINDIF
                     R. A. King and Jonathon Misiewicz
         ---------------------------------------------------------

  Using finite-differences of gradients to determine vibrational frequencies and 
  normal modes.  Resulting frequencies are only valid at stationary points.
    Generating geometries for use with 3-point formula.
    Displacement size will be 5.00e-03.
    Number of atoms is 12.
    Number of irreps is 4.
    Number of SALCs is 30.
    Translations projected? 1. Rotations projected? 1.
    Index of SALCs per irrep:
     1 :  0  1  2  3  4  5  6  7  8  9  10 
     2 :  11  12  13  14 
     3 :  15  16  17  18  19 
     4 :  20  21  22  23  24  25  26  27  28  29 
    Number of SALCs per irrep:
     Irrep 1: 11
     Irrep 2: 4
     Irrep 3: 5
     Irrep 4: 10
    Number of geometries (including reference) is 42.
    Number of displacements per irrep:
      Irrep 1: 22
      Irrep 2: 4
      Irrep 3: 5
      Irrep 4: 10

  //>>>>>>>>>>>>>>>>>>>>>>>>>>>>>>>>>>>//
  //    Loading displacement 1 of 42   //
  //<<<<<<<<<<<<<<<<<<<<<<<<<<<<<<<<<<<//
gradient() will perform analytic gradient computation.
    SCF Algorithm Type (re)set to DF.

*** tstart() called on atlantis
*** at Tue Apr 19 22:03:36 2022

   => Loading Basis Set <=

    Name: 6-31+G*
    Role: ORBITAL
    Keyword: BASIS
    atoms 1-6  entry C          line   119 file /home/akrom/software/anaconda3/envs/ffpenv/share/psi4/basis/6-31pgs.gbs 
    atoms 7-12 entry H          line    46 file /home/akrom/software/anaconda3/envs/ffpenv/share/psi4/basis/6-31pgs.gbs 


         ---------------------------------------------------------
                                   SCF
               by Justin Turney, Rob Parrish, Andy Simmonett
                          and Daniel G. A. Smith
                              RHF Reference
                        1 Threads,    500 MiB Core
         ---------------------------------------------------------

  ==> Geometry <==

    Molecular point group: c2h
    Full point group: C2h

    Geometry (in Angstrom), charge = 0, multiplicity = 1:

       Center              X                  Y                   Z               Mass       
    ------------   -----------------  -----------------  -----------------  -----------------
         C           -1.221510000000    -0.693250000000     0.000000000000    12.000000000000
         C           -1.211140000000     0.711220000000     0.000000000000    12.000000000000
         C           -0.010370000000    -1.404520000000     0.000000000000    12.000000000000
         C            0.010370000000     1.404520000000     0.000000000000    12.000000000000
         C            1.211140000000    -0.711220000000     0.000000000000    12.000000000000
         C            1.221510000000     0.693250000000     0.000000000000    12.000000000000
         H           -2.173110000000    -1.233320000000     0.000000000000     1.007825032230
         H           -2.154640000000     1.265330000000     0.000000000000     1.007825032230
         H           -0.018480000000    -2.498650000000     0.000000000000     1.007825032230
         H            0.018480000000     2.498650000000     0.000000000000     1.007825032230
         H            2.154640000000    -1.265330000000     0.000000000000     1.007825032230
         H            2.173110000000     1.233320000000     0.000000000000     1.007825032230

  Running in c2h symmetry.

  Rotational constants: A =      0.18753  B =      0.18752  C =      0.09376 [cm^-1]
  Rotational constants: A =   5621.92707  B =   5621.82252  C =   2810.93740 [MHz]
  Nuclear repulsion =  202.013308935380167

  Charge       = 0
  Multiplicity = 1
  Electrons    = 42
  Nalpha       = 21
  Nbeta        = 21

  ==> Algorithm <==

  SCF Algorithm Type is DF.
  DIIS enabled.
  MOM disabled.
  Fractional occupation disabled.
  Guess Type is SAD.
  Energy threshold   = 1.00e-10
  Density threshold  = 1.00e-10
  Integral threshold = 0.00e+00

  ==> Primary Basis <==

  Basis Set: 6-31+G*
    Blend: 6-31+G*
    Number of shells: 60
    Number of basis function: 126
    Number of Cartesian functions: 126
    Spherical Harmonics?: false
    Max angular momentum: 2

   => Loading Basis Set <=

    Name: (6-31+G* AUX)
    Role: JKFIT
    Keyword: DF_BASIS_SCF
    atoms 1-6  entry C          line   194 file /home/akrom/software/anaconda3/envs/ffpenv/share/psi4/basis/heavy-aug-cc-pvdz-jkfit.gbs 
    atoms 7-12 entry H          line   116 file /home/akrom/software/anaconda3/envs/ffpenv/share/psi4/basis/heavy-aug-cc-pvdz-jkfit.gbs 

  ==> Pre-Iterations <==

   -------------------------------------------------------
    Irrep   Nso     Nmo     Nalpha   Nbeta   Ndocc  Nsocc
   -------------------------------------------------------
     Ag        48      48       0       0       0       0
     Bg        15      15       0       0       0       0
     Au        15      15       0       0       0       0
     Bu        48      48       0       0       0       0
   -------------------------------------------------------
    Total     126     126      21      21      21       0
   -------------------------------------------------------

  ==> Integral Setup <==

  DFHelper Memory: AOs need 0.097 GiB; user supplied 0.366 GiB. Using in-core AOs.

  ==> MemDFJK: Density-Fitted J/K Matrices <==

    J tasked:                   Yes
    K tasked:                   Yes
    wK tasked:                   No
    OpenMP threads:               1
    Memory [MiB]:               375
    Algorithm:                 Core
    Schwarz Cutoff:           1E-12
    Mask sparsity (%):       0.2268
    Fitting Condition:        1E-10

   => Auxiliary Basis Set <=

  Basis Set: (6-31+G* AUX)
    Blend: HEAVY-AUG-CC-PVDZ-JKFIT
    Number of shells: 222
    Number of basis function: 756
    Number of Cartesian functions: 756
    Spherical Harmonics?: false
    Max angular momentum: 3

  Minimum eigenvalue in the overlap matrix is 6.7977624212E-06.
  Using Symmetric Orthogonalization.

  SCF Guess: Superposition of Atomic Densities via on-the-fly atomic UHF.

  ==> Iterations <==

                           Total Energy        Delta E     RMS |[F,P]|

   @DF-RHF iter SAD:  -229.90720733972574   -2.29907e+02   0.00000e+00 
   @DF-RHF iter   1:  -230.54249009249787   -6.35283e-01   7.18083e-03 DIIS
   @DF-RHF iter   2:  -230.67797132285551   -1.35481e-01   3.33339e-03 DIIS
   @DF-RHF iter   3:  -230.70661131162791   -2.86400e-02   4.78686e-04 DIIS
   @DF-RHF iter   4:  -230.70767033925495   -1.05903e-03   4.47478e-05 DIIS
   @DF-RHF iter   5:  -230.70768183283593   -1.14936e-05   7.85116e-06 DIIS
   @DF-RHF iter   6:  -230.70768217273118   -3.39895e-07   9.16722e-07 DIIS
   @DF-RHF iter   7:  -230.70768217775111   -5.01993e-09   9.82998e-08 DIIS
   @DF-RHF iter   8:  -230.70768217781708   -6.59668e-11   1.88641e-08 DIIS
   @DF-RHF iter   9:  -230.70768217781915   -2.07478e-12   7.73043e-09 DIIS
   @DF-RHF iter  10:  -230.70768217781972   -5.68434e-13   1.68364e-09 DIIS
   @DF-RHF iter  11:  -230.70768217781938    3.41061e-13   1.97012e-10 DIIS
   @DF-RHF iter  12:  -230.70768217781909    2.84217e-13   1.68267e-11 DIIS
  Energy and wave function converged.


  ==> Post-Iterations <==

    Orbital Energies [Eh]
    ---------------------

    Doubly Occupied:                                                      

       1Ag   -11.247238     1Bu   -11.246704     2Bu   -11.246702  
       2Ag   -11.245552     3Ag   -11.245550     3Bu   -11.244995  
       4Ag    -1.146742     4Bu    -1.013251     5Bu    -1.013244  
       5Ag    -0.822738     6Ag    -0.822726     7Ag    -0.705548  
       6Bu    -0.644391     7Bu    -0.616908     8Bu    -0.587339  
       9Bu    -0.587336     1Au    -0.497401     8Ag    -0.495760  
       9Ag    -0.495731     1Bg    -0.334971     2Bg    -0.334960  

    Virtual:                                                              

      10Ag     0.084781    10Bu     0.089324    11Bu     0.089325  
      11Ag     0.102168    12Ag     0.102168     2Au     0.108367  
       3Au     0.108377    12Bu     0.128743     4Au     0.138319  
       3Bg     0.159534     4Bg     0.159534    13Bu     0.165554  
      13Ag     0.173017    14Ag     0.204686    15Ag     0.204687  
       5Bg     0.210458     5Au     0.225717     6Au     0.225724  
      14Bu     0.240961    15Bu     0.240963    16Bu     0.252619  
      17Bu     0.252620    16Ag     0.289943    17Ag     0.289943  
      18Ag     0.305161    19Ag     0.323332    18Bu     0.324607  
       6Bg     0.378376    19Bu     0.384299    20Bu     0.384306  
      20Ag     0.430025    21Ag     0.430027    21Bu     0.451183  
      22Ag     0.516636    23Ag     0.516651    22Bu     0.519464  
      23Bu     0.519486    24Bu     0.762540    24Ag     0.779155  
      25Ag     0.820092    25Bu     0.826415     7Au     0.892140  
       7Bg     0.951732     8Bg     0.951738    26Ag     0.959415  
      27Ag     0.959433     8Au     0.991198     9Au     0.991203  
      26Bu     1.008264    27Bu     1.008277    28Ag     1.028206  
       9Bg     1.048523    28Bu     1.162275    29Ag     1.190262  
      30Ag     1.190264    29Bu     1.211454    30Bu     1.211474  
      31Ag     1.250815    32Ag     1.275406    31Bu     1.298701  
      32Bu     1.298717    33Bu     1.376290    34Bu     1.376308  
      33Ag     1.387415    34Ag     1.387420    10Bg     1.508699  
      35Bu     1.559514    10Au     1.662686    35Ag     1.688470  
      36Ag     1.688488    11Au     1.755997    12Au     1.756020  
      11Bg     1.786402    12Bg     1.786410    37Ag     2.039340  
      36Bu     2.114203    37Bu     2.157210    38Ag     2.187858  
      38Bu     2.308344    39Bu     2.308350    39Ag     2.419641  
      40Ag     2.419648    13Au     2.462094    14Au     2.462105  
      40Bu     2.468483    41Bu     2.468512    13Bg     2.623018  
      14Bg     2.623087    15Bg     2.636466    41Ag     2.898876  
      42Ag     2.898894    15Au     2.974188    43Ag     3.048732  
      44Ag     3.048779    42Bu     3.084430    43Bu     3.084467  
      44Bu     3.143732    45Ag     3.385709    45Bu     3.750222  
      46Ag     4.639474    46Bu     4.661630    47Bu     4.661643  
      47Ag     4.799084    48Ag     4.799089    48Bu     5.099410  

    Final Occupation by Irrep:
             Ag    Bg    Au    Bu 
    DOCC [     9,    2,    1,    9 ]

  @DF-RHF Final Energy:  -230.70768217781909

   => Energetics <=

    Nuclear Repulsion Energy =            202.0133089353801665
    One-Electron Energy =                -710.2504065371451816
    Two-Electron Energy =                 277.5294154239459203
    Total Energy =                       -230.7076821778190947

Computation Completed


Properties will be evaluated at   0.000000,   0.000000,   0.000000 [a0]

Properties computed using the SCF density matrix

  Nuclear Dipole Moment: [e a0]
     X:    -0.0000      Y:    -0.0000      Z:     0.0000

  Electronic Dipole Moment: [e a0]
     X:     0.0000      Y:     0.0000      Z:     0.0000

  Dipole Moment: [e a0]
     X:    -0.0000      Y:    -0.0000      Z:     0.0000     Total:     0.0000

  Dipole Moment: [D]
     X:    -0.0000      Y:    -0.0000      Z:     0.0000     Total:     0.0000


*** tstop() called on atlantis at Tue Apr 19 22:03:38 2022
Module time:
	user time   =       1.96 seconds =       0.03 minutes
	system time =       0.03 seconds =       0.00 minutes
	total time  =          2 seconds =       0.03 minutes
Total time:
	user time   =      12.62 seconds =       0.21 minutes
	system time =       0.40 seconds =       0.01 minutes
	total time  =         13 seconds =       0.22 minutes

*** tstart() called on atlantis
*** at Tue Apr 19 22:03:38 2022


  //>>>>>>>>>>>>>>>>>>>>>>>>>>>>>>>>>>>//
  //               DFMP2               //
  //<<<<<<<<<<<<<<<<<<<<<<<<<<<<<<<<<<<//

   => Loading Basis Set <=

    Name: (6-31+G* AUX)
    Role: RIFIT
    Keyword: DF_BASIS_MP2
    atoms 1-6  entry C          line   116 file /home/akrom/software/anaconda3/envs/ffpenv/share/psi4/basis/heavy-aug-cc-pvdz-ri.gbs 
    atoms 7-12 entry H          line    44 file /home/akrom/software/anaconda3/envs/ffpenv/share/psi4/basis/heavy-aug-cc-pvdz-ri.gbs 

	 --------------------------------------------------------
	                          DF-MP2                         
	      2nd-Order Density-Fitted Moller-Plesset Theory     
	              RMP2 Wavefunction,   1 Threads             
	                                                         
	        Rob Parrish, Justin Turney, Andy Simmonett,      
	           Ed Hohenstein, and C. David Sherrill          
	 --------------------------------------------------------

   => Auxiliary Basis Set <=

  Basis Set: (6-31+G* AUX)
    Blend: HEAVY-AUG-CC-PVDZ-RI
    Number of shells: 168
    Number of basis function: 516
    Number of Cartesian functions: 606
    Spherical Harmonics?: true
    Max angular momentum: 3

	 --------------------------------------------------------
	                 NBF =   126, NAUX =   516
	 --------------------------------------------------------
	   CLASS    FOCC     OCC    AOCC    AVIR     VIR    FVIR
	   PAIRS       0      21      21     105     105       0
	 --------------------------------------------------------

  DFHelper Memory: AOs need 0.097 GiB; user supplied 0.366 GiB. Using in-core AOs.


         ------------------------------------------------------------
                                     CPHF                           
                                  Rob Parrish                       
         ------------------------------------------------------------

  ==> Geometry <==

    Molecular point group: c2h
    Full point group: C2h

    Geometry (in Angstrom), charge = 0, multiplicity = 1:

       Center              X                  Y                   Z               Mass       
    ------------   -----------------  -----------------  -----------------  -----------------
         C           -1.221510000000    -0.693250000000     0.000000000000    12.000000000000
         C           -1.211140000000     0.711220000000     0.000000000000    12.000000000000
         C           -0.010370000000    -1.404520000000     0.000000000000    12.000000000000
         C            0.010370000000     1.404520000000     0.000000000000    12.000000000000
         C            1.211140000000    -0.711220000000     0.000000000000    12.000000000000
         C            1.221510000000     0.693250000000     0.000000000000    12.000000000000
         H           -2.173110000000    -1.233320000000     0.000000000000     1.007825032230
         H           -2.154640000000     1.265330000000     0.000000000000     1.007825032230
         H           -0.018480000000    -2.498650000000     0.000000000000     1.007825032230
         H            0.018480000000     2.498650000000     0.000000000000     1.007825032230
         H            2.154640000000    -1.265330000000     0.000000000000     1.007825032230
         H            2.173110000000     1.233320000000     0.000000000000     1.007825032230

  Nuclear repulsion =  202.013308935380167
  Reference energy  = -230.707682177819095

  ==> Basis Set <==

  Basis Set: 6-31+G*
    Blend: 6-31+G*
    Number of shells: 60
    Number of basis function: 126
    Number of Cartesian functions: 126
    Spherical Harmonics?: false
    Max angular momentum: 2

  ==> CGRSolver (by Rob Parrish) <==

   Number of roots    =         1
   Preconditioning    =    JACOBI
   Convergence cutoff =     1E-06
   Maximum iterations =       100

  ==> CPHFRHamiltonian (by Rob Parrish) <== 

  ==> MemDFJK: Density-Fitted J/K Matrices <==

    J tasked:                   Yes
    K tasked:                   Yes
    wK tasked:                   No
    OpenMP threads:               1
    Memory [MiB]:               375
    Algorithm:                 Core
    Schwarz Cutoff:           1E-12
    Mask sparsity (%):       0.2268
    Fitting Condition:        1E-10

   => Auxiliary Basis Set <=

  Basis Set: (6-31+G* AUX)
    Blend: HEAVY-AUG-CC-PVDZ-JKFIT
    Number of shells: 222
    Number of basis function: 756
    Number of Cartesian functions: 756
    Spherical Harmonics?: false
    Max angular momentum: 3

  ==> CPHF Iterations <==

  => Iterations <=

             Iter  Converged  Remaining    Residual
  CGR           1          0          1   8.276E-02
  CGR           2          0          1   1.084E-02
  CGR           3          0          1   2.608E-03
  CGR           4          0          1   3.909E-04
  CGR           5          0          1   5.304E-05
  CGR           6          0          1   5.997E-06
  CGR           7          1          0   7.085E-07

    CGRSolver converged.

  ==> DFCorrGrad: Density-Fitted Correlated Gradients <==

    OpenMP threads:              1
    Integrals threads:           1
    Memory [GiB]:            0.366
    Schwarz Cutoff:          0E+00
    Fitting Condition:       1E-10

   => Auxiliary Basis Set <=

  Basis Set: (6-31+G* AUX)
    Blend: HEAVY-AUG-CC-PVDZ-JKFIT
    Number of shells: 222
    Number of basis function: 756
    Number of Cartesian functions: 756
    Spherical Harmonics?: false
    Max angular momentum: 3

	-----------------------------------------------------------
	 ==================> DF-MP2 Energies <==================== 
	-----------------------------------------------------------
	 Reference Energy          =    -230.7076821778190947 [Eh]
	 Singles Energy            =      -0.0000000000000000 [Eh]
	 Same-Spin Energy          =      -0.2084093986972686 [Eh]
	 Opposite-Spin Energy      =      -0.5848699684555477 [Eh]
	 Correlation Energy        =      -0.7932793671528163 [Eh]
	 Total Energy              =    -231.5009615449719149 [Eh]
	-----------------------------------------------------------
	 ================> DF-SCS-MP2 Energies <================== 
	-----------------------------------------------------------
	 SCS Same-Spin Scale       =       0.3333333333333333 [-]
	 SCS Opposite-Spin Scale   =       1.2000000000000000 [-]
	 SCS Same-Spin Energy      =      -0.0694697995657562 [Eh]
	 SCS Opposite-Spin Energy  =      -0.7018439621466572 [Eh]
	 SCS Correlation Energy    =      -0.7713137617124134 [Eh]
	 SCS Total Energy          =    -231.4789959395315009 [Eh]
	-----------------------------------------------------------


  -Total Gradient:
     Atom            X                  Y                   Z
    ------   -----------------  -----------------  -----------------
       1       -0.001938895918    -0.001067807681     0.000000000000
       2       -0.001922989831     0.001088494933     0.000000000000
       3       -0.000008264727    -0.002257327822     0.000000000000
       4        0.000008264727     0.002257327822     0.000000000000
       5        0.001922989831    -0.001088494933     0.000000000000
       6        0.001938895918     0.001067807681     0.000000000000
       7       -0.003894946544    -0.002211120544     0.000000000000
       8       -0.003862088920     0.002275118103    -0.000000000000
       9       -0.000036027352    -0.004470944131     0.000000000000
      10        0.000036027352     0.004470944131     0.000000000000
      11        0.003862088920    -0.002275118103     0.000000000000
      12        0.003894946544     0.002211120544     0.000000000000


*** tstop() called on atlantis at Tue Apr 19 22:03:44 2022
Module time:
	user time   =       6.10 seconds =       0.10 minutes
	system time =       0.29 seconds =       0.00 minutes
	total time  =          6 seconds =       0.10 minutes
Total time:
	user time   =      18.72 seconds =       0.31 minutes
	system time =       0.69 seconds =       0.01 minutes
	total time  =         19 seconds =       0.32 minutes

  //>>>>>>>>>>>>>>>>>>>>>>>>>>>>>>>>>>>//
  //    Loading displacement 2 of 42   //
  //<<<<<<<<<<<<<<<<<<<<<<<<<<<<<<<<<<<//
gradient() will perform analytic gradient computation.
    SCF Algorithm Type (re)set to DF.

*** tstart() called on atlantis
*** at Tue Apr 19 22:03:44 2022

   => Loading Basis Set <=

    Name: 6-31+G*
    Role: ORBITAL
    Keyword: BASIS
    atoms 1-6  entry C          line   119 file /home/akrom/software/anaconda3/envs/ffpenv/share/psi4/basis/6-31pgs.gbs 
    atoms 7-12 entry H          line    46 file /home/akrom/software/anaconda3/envs/ffpenv/share/psi4/basis/6-31pgs.gbs 


         ---------------------------------------------------------
                                   SCF
               by Justin Turney, Rob Parrish, Andy Simmonett
                          and Daniel G. A. Smith
                              RHF Reference
                        1 Threads,    500 MiB Core
         ---------------------------------------------------------

  ==> Geometry <==

    Molecular point group: c2h
    Full point group: C2h

    Geometry (in Angstrom), charge = 0, multiplicity = 1:

       Center              X                  Y                   Z               Mass       
    ------------   -----------------  -----------------  -----------------  -----------------
         C           -1.222032477591    -0.693313109608     0.000000000000    12.000000000000
         C           -1.211176745353     0.711157426160     0.000000000000    12.000000000000
         C           -0.010297435136    -1.404520535769     0.000000000000    12.000000000000
         C            0.010297435136     1.404520535769     0.000000000000    12.000000000000
         C            1.211176745353    -0.711157426160     0.000000000000    12.000000000000
         C            1.222032477591     0.693313109608     0.000000000000    12.000000000000
         H           -2.173046280225    -1.233432274252     0.000000000000     1.007825032230
         H           -2.154705373579     1.265218680005     0.000000000000     1.007825032230
         H           -0.018350906646    -2.498650954774     0.000000000000     1.007825032230
         H            0.018350906646     2.498650954774     0.000000000000     1.007825032230
         H            2.154705373579    -1.265218680005     0.000000000000     1.007825032230
         H            2.173046280225     1.233432274252     0.000000000000     1.007825032230

  Running in c2h symmetry.

  Rotational constants: A =      0.18753  B =      0.18745  C =      0.09375 [cm^-1]
  Rotational constants: A =   5621.97670  B =   5619.72613  C =   2810.42560 [MHz]
  Nuclear repulsion =  201.998047561272216

  Charge       = 0
  Multiplicity = 1
  Electrons    = 42
  Nalpha       = 21
  Nbeta        = 21

  ==> Algorithm <==

  SCF Algorithm Type is DF.
  DIIS enabled.
  MOM disabled.
  Fractional occupation disabled.
  Guess Type is SAD.
  Energy threshold   = 1.00e-10
  Density threshold  = 1.00e-10
  Integral threshold = 0.00e+00

  ==> Primary Basis <==

  Basis Set: 6-31+G*
    Blend: 6-31+G*
    Number of shells: 60
    Number of basis function: 126
    Number of Cartesian functions: 126
    Spherical Harmonics?: false
    Max angular momentum: 2

   => Loading Basis Set <=

    Name: (6-31+G* AUX)
    Role: JKFIT
    Keyword: DF_BASIS_SCF
    atoms 1-6  entry C          line   194 file /home/akrom/software/anaconda3/envs/ffpenv/share/psi4/basis/heavy-aug-cc-pvdz-jkfit.gbs 
    atoms 7-12 entry H          line   116 file /home/akrom/software/anaconda3/envs/ffpenv/share/psi4/basis/heavy-aug-cc-pvdz-jkfit.gbs 

  ==> Pre-Iterations <==

   -------------------------------------------------------
    Irrep   Nso     Nmo     Nalpha   Nbeta   Ndocc  Nsocc
   -------------------------------------------------------
     Ag        48      48       0       0       0       0
     Bg        15      15       0       0       0       0
     Au        15      15       0       0       0       0
     Bu        48      48       0       0       0       0
   -------------------------------------------------------
    Total     126     126      21      21      21       0
   -------------------------------------------------------

  ==> Integral Setup <==

  DFHelper Memory: AOs need 0.097 GiB; user supplied 0.366 GiB. Using in-core AOs.

  ==> MemDFJK: Density-Fitted J/K Matrices <==

    J tasked:                   Yes
    K tasked:                   Yes
    wK tasked:                   No
    OpenMP threads:               1
    Memory [MiB]:               375
    Algorithm:                 Core
    Schwarz Cutoff:           1E-12
    Mask sparsity (%):       0.2268
    Fitting Condition:        1E-10

   => Auxiliary Basis Set <=

  Basis Set: (6-31+G* AUX)
    Blend: HEAVY-AUG-CC-PVDZ-JKFIT
    Number of shells: 222
    Number of basis function: 756
    Number of Cartesian functions: 756
    Spherical Harmonics?: false
    Max angular momentum: 3

  Minimum eigenvalue in the overlap matrix is 6.8050935199E-06.
  Using Symmetric Orthogonalization.

  SCF Guess: Superposition of Atomic Densities via on-the-fly atomic UHF.

  ==> Iterations <==

                           Total Energy        Delta E     RMS |[F,P]|

   @DF-RHF iter SAD:  -229.90609961342079   -2.29906e+02   0.00000e+00 
   @DF-RHF iter   1:  -230.54259896087598   -6.36499e-01   7.17782e-03 DIIS
   @DF-RHF iter   2:  -230.67800718823787   -1.35408e-01   3.33081e-03 DIIS
   @DF-RHF iter   3:  -230.70660396050351   -2.85968e-02   4.78601e-04 DIIS
   @DF-RHF iter   4:  -230.70766266449630   -1.05870e-03   4.47398e-05 DIIS
   @DF-RHF iter   5:  -230.70767415574937   -1.14913e-05   7.85647e-06 DIIS
   @DF-RHF iter   6:  -230.70767449578528   -3.40036e-07   9.41287e-07 DIIS
   @DF-RHF iter   7:  -230.70767450085560   -5.07032e-09   1.96337e-07 DIIS
   @DF-RHF iter   8:  -230.70767450098202   -1.26420e-10   6.08068e-08 DIIS
   @DF-RHF iter   9:  -230.70767450099669   -1.46656e-11   7.77380e-09 DIIS
   @DF-RHF iter  10:  -230.70767450099743   -7.38964e-13   1.62898e-09 DIIS
   @DF-RHF iter  11:  -230.70767450099731    1.13687e-13   1.98510e-10 DIIS
   @DF-RHF iter  12:  -230.70767450099726    5.68434e-14   2.06333e-11 DIIS
  Energy and wave function converged.


  ==> Post-Iterations <==

    Orbital Energies [Eh]
    ---------------------

    Doubly Occupied:                                                      

       1Ag   -11.247264     1Bu   -11.246743     2Bu   -11.246714  
       2Ag   -11.245593     3Ag   -11.245562     3Bu   -11.245022  
       4Ag    -1.146646     4Bu    -1.013281     5Bu    -1.013139  
       5Ag    -0.822829     6Ag    -0.822649     7Ag    -0.705550  
       6Bu    -0.644503     7Bu    -0.616838     8Bu    -0.587445  
       9Bu    -0.587270     1Au    -0.497328     8Ag    -0.495944  
       9Ag    -0.495606     1Bg    -0.335005     2Bg    -0.334857  

    Virtual:                                                              

      10Ag     0.084786    10Bu     0.089317    11Bu     0.089328  
      11Ag     0.102162    12Ag     0.102165     2Au     0.108285  
       3Au     0.108402    12Bu     0.128740     4Au     0.138330  
       3Bg     0.159534     4Bg     0.159545    13Bu     0.165554  
      13Ag     0.173032    14Ag     0.204680    15Ag     0.204685  
       5Bg     0.210449     5Au     0.225670     6Au     0.225747  
      14Bu     0.240951    15Bu     0.240970    16Bu     0.252610  
      17Bu     0.252620    16Ag     0.289933    17Ag     0.289941  
      18Ag     0.305157    19Ag     0.323389    18Bu     0.324605  
       6Bg     0.378292    19Bu     0.384298    20Bu     0.384418  
      20Ag     0.429976    21Ag     0.430050    21Bu     0.451190  
      22Ag     0.516513    23Ag     0.516684    22Bu     0.519261  
      23Bu     0.519490    24Bu     0.762604    24Ag     0.779013  
      25Ag     0.819984    25Bu     0.826229     7Au     0.892164  
       7Bg     0.951731     8Bg     0.951799    26Ag     0.959229  
      27Ag     0.959483     8Au     0.991170     9Au     0.991223  
      26Bu     1.008163    27Bu     1.008335    28Ag     1.028199  
       9Bg     1.048499    28Bu     1.162279    29Ag     1.190304  
      30Ag     1.190482    29Bu     1.211456    30Bu     1.211773  
      31Ag     1.250676    32Ag     1.275537    31Bu     1.298582  
      32Bu     1.298758    33Bu     1.376086    34Bu     1.376260  
      33Ag     1.387294    34Ag     1.387396    10Bg     1.508702  
      35Bu     1.559397    10Au     1.662740    35Ag     1.688387  
      36Ag     1.688543    11Au     1.755818    12Au     1.756075  
      11Bg     1.786285    12Bg     1.786461    37Ag     2.039368  
      36Bu     2.114038    37Bu     2.157144    38Ag     2.187973  
      38Bu     2.308377    39Bu     2.308571    39Ag     2.419298  
      40Ag     2.419477    13Au     2.461799    14Au     2.462119  
      40Bu     2.468081    41Bu     2.468409    13Bg     2.622492  
      14Bg     2.623270    15Bg     2.636224    41Ag     2.898721  
      42Ag     2.898984    15Au     2.973860    43Ag     3.048306  
      44Ag     3.048750    42Bu     3.084017    43Bu     3.084440  
      44Bu     3.143726    45Ag     3.385479    45Bu     3.749856  
      46Ag     4.639284    46Bu     4.661514    47Bu     4.661732  
      47Ag     4.799049    48Ag     4.799119    48Bu     5.099298  

    Final Occupation by Irrep:
             Ag    Bg    Au    Bu 
    DOCC [     9,    2,    1,    9 ]

  @DF-RHF Final Energy:  -230.70767450099726

   => Energetics <=

    Nuclear Repulsion Energy =            201.9980475612722159
    One-Electron Energy =                -710.2198701640331819
    Two-Electron Energy =                 277.5141481017637375
    Total Energy =                       -230.7076745009972569

Computation Completed


Properties will be evaluated at   0.000000,   0.000000,   0.000000 [a0]

Properties computed using the SCF density matrix

  Nuclear Dipole Moment: [e a0]
     X:     0.0000      Y:     0.0000      Z:     0.0000

  Electronic Dipole Moment: [e a0]
     X:     0.0000      Y:     0.0000      Z:     0.0000

  Dipole Moment: [e a0]
     X:     0.0000      Y:     0.0000      Z:     0.0000     Total:     0.0000

  Dipole Moment: [D]
     X:     0.0000      Y:     0.0000      Z:     0.0000     Total:     0.0000


*** tstop() called on atlantis at Tue Apr 19 22:03:46 2022
Module time:
	user time   =       1.94 seconds =       0.03 minutes
	system time =       0.05 seconds =       0.00 minutes
	total time  =          2 seconds =       0.03 minutes
Total time:
	user time   =      20.66 seconds =       0.34 minutes
	system time =       0.75 seconds =       0.01 minutes
	total time  =         21 seconds =       0.35 minutes

*** tstart() called on atlantis
*** at Tue Apr 19 22:03:46 2022


  //>>>>>>>>>>>>>>>>>>>>>>>>>>>>>>>>>>>//
  //               DFMP2               //
  //<<<<<<<<<<<<<<<<<<<<<<<<<<<<<<<<<<<//

   => Loading Basis Set <=

    Name: (6-31+G* AUX)
    Role: RIFIT
    Keyword: DF_BASIS_MP2
    atoms 1-6  entry C          line   116 file /home/akrom/software/anaconda3/envs/ffpenv/share/psi4/basis/heavy-aug-cc-pvdz-ri.gbs 
    atoms 7-12 entry H          line    44 file /home/akrom/software/anaconda3/envs/ffpenv/share/psi4/basis/heavy-aug-cc-pvdz-ri.gbs 

	 --------------------------------------------------------
	                          DF-MP2                         
	      2nd-Order Density-Fitted Moller-Plesset Theory     
	              RMP2 Wavefunction,   1 Threads             
	                                                         
	        Rob Parrish, Justin Turney, Andy Simmonett,      
	           Ed Hohenstein, and C. David Sherrill          
	 --------------------------------------------------------

   => Auxiliary Basis Set <=

  Basis Set: (6-31+G* AUX)
    Blend: HEAVY-AUG-CC-PVDZ-RI
    Number of shells: 168
    Number of basis function: 516
    Number of Cartesian functions: 606
    Spherical Harmonics?: true
    Max angular momentum: 3

	 --------------------------------------------------------
	                 NBF =   126, NAUX =   516
	 --------------------------------------------------------
	   CLASS    FOCC     OCC    AOCC    AVIR     VIR    FVIR
	   PAIRS       0      21      21     105     105       0
	 --------------------------------------------------------

  DFHelper Memory: AOs need 0.097 GiB; user supplied 0.366 GiB. Using in-core AOs.


         ------------------------------------------------------------
                                     CPHF                           
                                  Rob Parrish                       
         ------------------------------------------------------------

  ==> Geometry <==

    Molecular point group: c2h
    Full point group: C2h

    Geometry (in Angstrom), charge = 0, multiplicity = 1:

       Center              X                  Y                   Z               Mass       
    ------------   -----------------  -----------------  -----------------  -----------------
         C           -1.222032477591    -0.693313109608     0.000000000000    12.000000000000
         C           -1.211176745353     0.711157426160     0.000000000000    12.000000000000
         C           -0.010297435136    -1.404520535769     0.000000000000    12.000000000000
         C            0.010297435136     1.404520535769     0.000000000000    12.000000000000
         C            1.211176745353    -0.711157426160     0.000000000000    12.000000000000
         C            1.222032477591     0.693313109608     0.000000000000    12.000000000000
         H           -2.173046280225    -1.233432274252     0.000000000000     1.007825032230
         H           -2.154705373579     1.265218680005     0.000000000000     1.007825032230
         H           -0.018350906646    -2.498650954774     0.000000000000     1.007825032230
         H            0.018350906646     2.498650954774     0.000000000000     1.007825032230
         H            2.154705373579    -1.265218680005     0.000000000000     1.007825032230
         H            2.173046280225     1.233432274252     0.000000000000     1.007825032230

  Nuclear repulsion =  201.998047561272216
  Reference energy  = -230.707674500997257

  ==> Basis Set <==

  Basis Set: 6-31+G*
    Blend: 6-31+G*
    Number of shells: 60
    Number of basis function: 126
    Number of Cartesian functions: 126
    Spherical Harmonics?: false
    Max angular momentum: 2

  ==> CGRSolver (by Rob Parrish) <==

   Number of roots    =         1
   Preconditioning    =    JACOBI
   Convergence cutoff =     1E-06
   Maximum iterations =       100

  ==> CPHFRHamiltonian (by Rob Parrish) <== 

  ==> MemDFJK: Density-Fitted J/K Matrices <==

    J tasked:                   Yes
    K tasked:                   Yes
    wK tasked:                   No
    OpenMP threads:               1
    Memory [MiB]:               375
    Algorithm:                 Core
    Schwarz Cutoff:           1E-12
    Mask sparsity (%):       0.2268
    Fitting Condition:        1E-10

   => Auxiliary Basis Set <=

  Basis Set: (6-31+G* AUX)
    Blend: HEAVY-AUG-CC-PVDZ-JKFIT
    Number of shells: 222
    Number of basis function: 756
    Number of Cartesian functions: 756
    Spherical Harmonics?: false
    Max angular momentum: 3

  ==> CPHF Iterations <==

  => Iterations <=

             Iter  Converged  Remaining    Residual
  CGR           1          0          1   8.275E-02
  CGR           2          0          1   1.084E-02
  CGR           3          0          1   2.609E-03
  CGR           4          0          1   3.911E-04
  CGR           5          0          1   5.395E-05
  CGR           6          0          1   1.024E-05
  CGR           7          0          1   2.782E-06
  CGR           8          1          0   1.999E-07

    CGRSolver converged.

  ==> DFCorrGrad: Density-Fitted Correlated Gradients <==

    OpenMP threads:              1
    Integrals threads:           1
    Memory [GiB]:            0.366
    Schwarz Cutoff:          0E+00
    Fitting Condition:       1E-10

   => Auxiliary Basis Set <=

  Basis Set: (6-31+G* AUX)
    Blend: HEAVY-AUG-CC-PVDZ-JKFIT
    Number of shells: 222
    Number of basis function: 756
    Number of Cartesian functions: 756
    Spherical Harmonics?: false
    Max angular momentum: 3

	-----------------------------------------------------------
	 ==================> DF-MP2 Energies <==================== 
	-----------------------------------------------------------
	 Reference Energy          =    -230.7076745009972569 [Eh]
	 Singles Energy            =      -0.0000000000000000 [Eh]
	 Same-Spin Energy          =      -0.2084074959494765 [Eh]
	 Opposite-Spin Energy      =      -0.5848746405174967 [Eh]
	 Correlation Energy        =      -0.7932821364669732 [Eh]
	 Total Energy              =    -231.5009566374642418 [Eh]
	-----------------------------------------------------------
	 ================> DF-SCS-MP2 Energies <================== 
	-----------------------------------------------------------
	 SCS Same-Spin Scale       =       0.3333333333333333 [-]
	 SCS Opposite-Spin Scale   =       1.2000000000000000 [-]
	 SCS Same-Spin Energy      =      -0.0694691653164922 [Eh]
	 SCS Opposite-Spin Energy  =      -0.7018495686209960 [Eh]
	 SCS Correlation Energy    =      -0.7713187339374882 [Eh]
	 SCS Total Energy          =    -231.4789932349347339 [Eh]
	-----------------------------------------------------------


  -Total Gradient:
     Atom            X                  Y                   Z
    ------   -----------------  -----------------  -----------------
       1       -0.002713353427    -0.001073738393     0.000000000000
       2       -0.001842424571     0.001101109164     0.000000000000
       3        0.000323408882    -0.002414836407     0.000000000000
       4       -0.000323408882     0.002414836407     0.000000000000
       5        0.001842424571    -0.001101109164     0.000000000000
       6        0.002713353427     0.001073738393     0.000000000000
       7       -0.003611099206    -0.002085539711     0.000000000000
       8       -0.003870146123     0.002241071527     0.000000000000
       9       -0.000045761528    -0.004469970289     0.000000000000
      10        0.000045761528     0.004469970289     0.000000000000
      11        0.003870146123    -0.002241071527     0.000000000000
      12        0.003611099206     0.002085539711     0.000000000000


*** tstop() called on atlantis at Tue Apr 19 22:03:53 2022
Module time:
	user time   =       6.18 seconds =       0.10 minutes
	system time =       0.29 seconds =       0.00 minutes
	total time  =          7 seconds =       0.12 minutes
Total time:
	user time   =      26.84 seconds =       0.45 minutes
	system time =       1.04 seconds =       0.02 minutes
	total time  =         28 seconds =       0.47 minutes

  //>>>>>>>>>>>>>>>>>>>>>>>>>>>>>>>>>>>//
  //    Loading displacement 3 of 42   //
  //<<<<<<<<<<<<<<<<<<<<<<<<<<<<<<<<<<<//
gradient() will perform analytic gradient computation.
    SCF Algorithm Type (re)set to DF.

*** tstart() called on atlantis
*** at Tue Apr 19 22:03:53 2022

   => Loading Basis Set <=

    Name: 6-31+G*
    Role: ORBITAL
    Keyword: BASIS
    atoms 1-6  entry C          line   119 file /home/akrom/software/anaconda3/envs/ffpenv/share/psi4/basis/6-31pgs.gbs 
    atoms 7-12 entry H          line    46 file /home/akrom/software/anaconda3/envs/ffpenv/share/psi4/basis/6-31pgs.gbs 


         ---------------------------------------------------------
                                   SCF
               by Justin Turney, Rob Parrish, Andy Simmonett
                          and Daniel G. A. Smith
                              RHF Reference
                        1 Threads,    500 MiB Core
         ---------------------------------------------------------

  ==> Geometry <==

    Molecular point group: c2h
    Full point group: C2h

    Geometry (in Angstrom), charge = 0, multiplicity = 1:

       Center              X                  Y                   Z               Mass       
    ------------   -----------------  -----------------  -----------------  -----------------
         C           -1.220987522409    -0.693186890392     0.000000000000    12.000000000000
         C           -1.211103254647     0.711282573840     0.000000000000    12.000000000000
         C           -0.010442564864    -1.404519464231     0.000000000000    12.000000000000
         C            0.010442564864     1.404519464231     0.000000000000    12.000000000000
         C            1.211103254647    -0.711282573840     0.000000000000    12.000000000000
         C            1.220987522409     0.693186890392     0.000000000000    12.000000000000
         H           -2.173173719775    -1.233207725748     0.000000000000     1.007825032230
         H           -2.154574626421     1.265441319995     0.000000000000     1.007825032230
         H           -0.018609093354    -2.498649045226     0.000000000000     1.007825032230
         H            0.018609093354     2.498649045226     0.000000000000     1.007825032230
         H            2.154574626421    -1.265441319995     0.000000000000     1.007825032230
         H            2.173173719775     1.233207725748     0.000000000000     1.007825032230

  Running in c2h symmetry.

  Rotational constants: A =      0.18760  B =      0.18752  C =      0.09378 [cm^-1]
  Rotational constants: A =   5624.12726  B =   5621.66993  C =   2811.44916 [MHz]
  Nuclear repulsion =  202.028576396706484

  Charge       = 0
  Multiplicity = 1
  Electrons    = 42
  Nalpha       = 21
  Nbeta        = 21

  ==> Algorithm <==

  SCF Algorithm Type is DF.
  DIIS enabled.
  MOM disabled.
  Fractional occupation disabled.
  Guess Type is SAD.
  Energy threshold   = 1.00e-10
  Density threshold  = 1.00e-10
  Integral threshold = 0.00e+00

  ==> Primary Basis <==

  Basis Set: 6-31+G*
    Blend: 6-31+G*
    Number of shells: 60
    Number of basis function: 126
    Number of Cartesian functions: 126
    Spherical Harmonics?: false
    Max angular momentum: 2

   => Loading Basis Set <=

    Name: (6-31+G* AUX)
    Role: JKFIT
    Keyword: DF_BASIS_SCF
    atoms 1-6  entry C          line   194 file /home/akrom/software/anaconda3/envs/ffpenv/share/psi4/basis/heavy-aug-cc-pvdz-jkfit.gbs 
    atoms 7-12 entry H          line   116 file /home/akrom/software/anaconda3/envs/ffpenv/share/psi4/basis/heavy-aug-cc-pvdz-jkfit.gbs 

  ==> Pre-Iterations <==

   -------------------------------------------------------
    Irrep   Nso     Nmo     Nalpha   Nbeta   Ndocc  Nsocc
   -------------------------------------------------------
     Ag        48      48       0       0       0       0
     Bg        15      15       0       0       0       0
     Au        15      15       0       0       0       0
     Bu        48      48       0       0       0       0
   -------------------------------------------------------
    Total     126     126      21      21      21       0
   -------------------------------------------------------

  ==> Integral Setup <==

  DFHelper Memory: AOs need 0.097 GiB; user supplied 0.366 GiB. Using in-core AOs.

  ==> MemDFJK: Density-Fitted J/K Matrices <==

    J tasked:                   Yes
    K tasked:                   Yes
    wK tasked:                   No
    OpenMP threads:               1
    Memory [MiB]:               375
    Algorithm:                 Core
    Schwarz Cutoff:           1E-12
    Mask sparsity (%):       0.2268
    Fitting Condition:        1E-10

   => Auxiliary Basis Set <=

  Basis Set: (6-31+G* AUX)
    Blend: HEAVY-AUG-CC-PVDZ-JKFIT
    Number of shells: 222
    Number of basis function: 756
    Number of Cartesian functions: 756
    Spherical Harmonics?: false
    Max angular momentum: 3

  Minimum eigenvalue in the overlap matrix is 6.7904437941E-06.
  Using Symmetric Orthogonalization.

  SCF Guess: Superposition of Atomic Densities via on-the-fly atomic UHF.

  ==> Iterations <==

                           Total Energy        Delta E     RMS |[F,P]|

   @DF-RHF iter SAD:  -229.90831498721201   -2.29908e+02   0.00000e+00 
   @DF-RHF iter   1:  -230.54237923645090   -6.34064e-01   7.18385e-03 DIIS
   @DF-RHF iter   2:  -230.67793356695356   -1.35554e-01   3.33597e-03 DIIS
   @DF-RHF iter   3:  -230.70661691088580   -2.86833e-02   4.78773e-04 DIIS
   @DF-RHF iter   4:  -230.70767626525688   -1.05935e-03   4.47604e-05 DIIS
   @DF-RHF iter   5:  -230.70768776169922   -1.14964e-05   7.86017e-06 DIIS
   @DF-RHF iter   6:  -230.70768810179894   -3.40100e-07   9.42785e-07 DIIS
   @DF-RHF iter   7:  -230.70768810685922   -5.06029e-09   2.01149e-07 DIIS
   @DF-RHF iter   8:  -230.70768810698959   -1.30370e-10   6.04875e-08 DIIS
   @DF-RHF iter   9:  -230.70768810700383   -1.42393e-11   7.66221e-09 DIIS
   @DF-RHF iter  10:  -230.70768810700457   -7.38964e-13   1.61567e-09 DIIS
   @DF-RHF iter  11:  -230.70768810700483   -2.55795e-13   1.98353e-10 DIIS
   @DF-RHF iter  12:  -230.70768810700469    1.42109e-13   2.01059e-11 DIIS
  Energy and wave function converged.


  ==> Post-Iterations <==

    Orbital Energies [Eh]
    ---------------------

    Doubly Occupied:                                                      

       1Ag   -11.247213     1Bu   -11.246690     2Bu   -11.246665  
       2Ag   -11.245538     3Ag   -11.245511     3Bu   -11.244968  
       4Ag    -1.146839     4Bu    -1.013350     5Bu    -1.013221  
       5Ag    -0.822813     6Ag    -0.822636     7Ag    -0.705546  
       6Bu    -0.644279     7Bu    -0.616977     8Bu    -0.587408  
[...]
      5   C               -0.31  0.10  0.00    0.08 -0.21 -0.00    0.00 -0.00 -0.03   
      6   C               -0.07  0.14 -0.00   -0.32 -0.18 -0.00   -0.00 -0.00 -0.03   
      7   H               -0.11  0.18 -0.00    0.32  0.18 -0.00   -0.00  0.00  0.41   
      8   H                0.22 -0.25  0.00   -0.24 -0.07 -0.00   -0.00  0.00  0.41   
      9   H                0.11 -0.31  0.00   -0.18 -0.18 -0.00   -0.00 -0.00  0.41   
     10   H               -0.11  0.31 -0.00    0.18  0.18  0.00   -0.00  0.00  0.41   
     11   H               -0.22  0.25 -0.00    0.24  0.07  0.00   -0.00 -0.00  0.41   
     12   H                0.11 -0.18  0.00   -0.32 -0.18 -0.00   -0.00  0.00  0.41   

  Vibration                       13                  14                  15          
  Freq [cm^-1]                 860.7286            860.7901            889.1463       
  Irrep                           Bg                  Bg                  Bg          
  Reduced mass [u]              1.2479              1.2479              1.0079        
  Force const [mDyne/A]         0.5447              0.5448              0.4695        
  Turning point v=0 [a0]        0.3348              0.3348              0.3665        
  RMS dev v=0 [a0 u^1/2]        0.2645              0.2645              0.2602        
  Char temp [K]               1238.3968           1238.4853           1279.2835       
  ----------------------------------------------------------------------------------
      1   C               -0.00  0.00 -0.05    0.00  0.00 -0.07    0.00 -0.00 -0.00   
      2   C               -0.00  0.00  0.03   -0.00  0.00 -0.08    0.00  0.00  0.00   
      3   C                0.00  0.00 -0.08    0.00 -0.00  0.01   -0.00 -0.00  0.00   
      4   C                0.00  0.00  0.08    0.00  0.00 -0.01   -0.00  0.00 -0.00   
      5   C                0.00 -0.00 -0.03    0.00 -0.00  0.08   -0.00  0.00 -0.00   
      6   C                0.00  0.00  0.05    0.00 -0.00  0.07    0.00  0.00  0.00   
      7   H                0.00 -0.00  0.35   -0.00  0.00  0.45   -0.00 -0.00  0.41   
      8   H                0.00  0.00 -0.22   -0.00  0.00  0.53    0.00  0.00 -0.41   
      9   H                0.00  0.00  0.57   -0.00 -0.00 -0.08   -0.00 -0.00 -0.41   
     10   H               -0.00  0.00 -0.57   -0.00  0.00  0.08   -0.00  0.00  0.41   
     11   H               -0.00 -0.00  0.22   -0.00 -0.00 -0.53    0.00  0.00  0.41   
     12   H               -0.00  0.00 -0.35   -0.00  0.00 -0.45    0.00 -0.00 -0.41   

  Vibration                       16                  17                  18          
  Freq [cm^-1]                 910.3274            910.4011           1002.4147       
  Irrep                           Au                  Au                  Ag          
  Reduced mass [u]              1.2833              1.2832              5.9888        
  Force const [mDyne/A]         0.6266              0.6266              3.5456        
  Turning point v=0 [a0]        0.3210              0.3210              0.1416        
  RMS dev v=0 [a0 u^1/2]        0.2572              0.2571              0.2451        
  Char temp [K]               1309.7585           1309.8645           1442.2516       
  ----------------------------------------------------------------------------------
      1   C               -0.00 -0.00  0.05   -0.00  0.00 -0.08    0.24  0.13 -0.00   
      2   C                0.00 -0.00  0.05   -0.00  0.00  0.08    0.24 -0.14 -0.00   
      3   C                0.00  0.00 -0.09    0.00 -0.00 -0.00    0.00  0.28  0.00   
      4   C               -0.00 -0.00 -0.09   -0.00 -0.00 -0.00   -0.00 -0.28  0.00   
      5   C                0.00  0.00  0.05    0.00 -0.00  0.08   -0.24  0.14 -0.00   
      6   C               -0.00 -0.00  0.05    0.00 -0.00 -0.08   -0.24 -0.13 -0.00   
      7   H               -0.00  0.00 -0.29    0.00 -0.00  0.49    0.26  0.15  0.00   
      8   H                0.00 -0.00 -0.28    0.00  0.00 -0.50    0.26 -0.15 -0.00   
      9   H               -0.00  0.00  0.57   -0.00 -0.00  0.00    0.00  0.30 -0.00   
     10   H               -0.00  0.00  0.57   -0.00 -0.00  0.00   -0.00 -0.30  0.00   
     11   H               -0.00  0.00 -0.28    0.00 -0.00 -0.50   -0.26  0.15  0.00   
     12   H               -0.00  0.00 -0.29    0.00 -0.00  0.49   -0.26 -0.15 -0.00   

  Vibration                       19                  20                  21          
  Freq [cm^-1]                1015.9097           1071.9099           1072.0931       
  Irrep                           Bu                  Bu                  Bu          
  Reduced mass [u]              6.4900              1.8043              1.8035        
  Force const [mDyne/A]         3.9464              1.2214              1.2213        
  Turning point v=0 [a0]        0.1351              0.2495              0.2495        
  RMS dev v=0 [a0 u^1/2]        0.2434              0.2370              0.2370        
  Char temp [K]               1461.6678           1542.2397           1542.5033       
  ----------------------------------------------------------------------------------
      1   C               -0.25 -0.14 -0.00   -0.12 -0.03 -0.00    0.00  0.10 -0.00   
      2   C                0.25 -0.15  0.00    0.03  0.09 -0.00    0.11 -0.05  0.00   
      3   C                0.00  0.29  0.00    0.05 -0.10 -0.00   -0.07 -0.08  0.00   
      4   C                0.00  0.29  0.00    0.05 -0.10 -0.00   -0.07 -0.08  0.00   
      5   C                0.25 -0.15 -0.00    0.03  0.09  0.00    0.11 -0.05 -0.00   
      6   C               -0.25 -0.14 -0.00   -0.12 -0.03  0.00    0.00  0.10  0.00   
      7   H               -0.25 -0.14  0.00   -0.21  0.12 -0.00   -0.20  0.46 -0.00   
      8   H                0.25 -0.15 -0.00    0.26  0.47  0.00    0.15 -0.01  0.00   
      9   H               -0.00  0.29 -0.00    0.33 -0.11  0.00   -0.43 -0.08  0.00   
     10   H               -0.00  0.29  0.00    0.33 -0.11 -0.00   -0.43 -0.08 -0.00   
     11   H                0.25 -0.15  0.00    0.26  0.47 -0.00    0.15 -0.01  0.00   
     12   H               -0.25 -0.14 -0.00   -0.21  0.12  0.00   -0.20  0.46  0.00   

  Vibration                       22                  23                  24          
  Freq [cm^-1]                1213.8035           1227.8225           1227.9108       
  Irrep                           Bu                  Ag                  Ag          
  Reduced mass [u]              1.0585              1.1526              1.1526        
  Force const [mDyne/A]         0.9188              1.0238              1.0239        
  Turning point v=0 [a0]        0.3061              0.2917              0.2917        
  RMS dev v=0 [a0 u^1/2]        0.2227              0.2214              0.2214        
  Char temp [K]               1746.3930           1766.5632           1766.6902       
  ----------------------------------------------------------------------------------
      1   C               -0.01  0.02  0.00   -0.02  0.03  0.00    0.03 -0.05  0.00   
      2   C               -0.01 -0.02  0.00    0.02  0.03 -0.00    0.03  0.05  0.00   
      3   C                0.03 -0.00  0.00    0.07 -0.00  0.00    0.00  0.00  0.00   
      4   C                0.03 -0.00 -0.00   -0.07  0.00  0.00   -0.00 -0.00 -0.00   
      5   C               -0.01 -0.02  0.00   -0.02 -0.03 -0.00   -0.03 -0.05 -0.00   
      6   C               -0.01  0.02 -0.00    0.02 -0.03  0.00   -0.03  0.05 -0.00   
      7   H               -0.20  0.35  0.00   -0.15  0.26 -0.00    0.24 -0.43  0.00   
      8   H               -0.21 -0.35 -0.00    0.14  0.23  0.00    0.25  0.44 -0.00   
      9   H                0.41 -0.00 -0.00    0.57 -0.00  0.00    0.02  0.00 -0.00   
     10   H                0.41 -0.00  0.00   -0.57  0.00 -0.00   -0.02 -0.00  0.00   
     11   H               -0.21 -0.35  0.00   -0.14 -0.23 -0.00   -0.25 -0.44  0.00   
     12   H               -0.20  0.35 -0.00    0.15 -0.26  0.00   -0.24  0.43 -0.00   

  Vibration                       25                  26                  27          
  Freq [cm^-1]                1397.5133           1435.2450           1526.4528       
  Irrep                           Ag                  Bu                  Bu          
  Reduced mass [u]              1.2479              7.6433              1.8840        
  Force const [mDyne/A]         1.4359              9.2764              2.5864        
  Turning point v=0 [a0]        0.2628              0.1048              0.2046        
  RMS dev v=0 [a0 u^1/2]        0.2075              0.2048              0.1986        
  Char temp [K]               2010.7104           2064.9981           2196.2258       
  ----------------------------------------------------------------------------------
      1   C               -0.03  0.05 -0.00   -0.16  0.28  0.00    0.02  0.10 -0.00   
      2   C                0.03  0.05  0.00   -0.16 -0.27 -0.00    0.03 -0.09  0.00   
      3   C               -0.06  0.00 -0.00    0.32 -0.00 -0.00   -0.14 -0.00 -0.00   
      4   C                0.06 -0.00 -0.00    0.32 -0.00 -0.00   -0.14 -0.00 -0.00   
      5   C               -0.03 -0.05  0.00   -0.16 -0.27 -0.00    0.03 -0.09 -0.00   
      6   C                0.03 -0.05 -0.00   -0.16  0.28  0.00    0.02  0.10  0.00   
      7   H                0.20 -0.35  0.00    0.13 -0.22 -0.00    0.22 -0.21  0.00   
      8   H               -0.20 -0.35 -0.00    0.13  0.22  0.00    0.21  0.17 -0.00   
      9   H                0.40 -0.00 -0.00   -0.26  0.00  0.00    0.54 -0.01  0.00   
     10   H               -0.40  0.00  0.00   -0.26  0.00 -0.00    0.54 -0.01  0.00   
     11   H                0.20  0.35  0.00    0.13  0.22 -0.00    0.21  0.17  0.00   
     12   H               -0.20  0.35 -0.00    0.13 -0.22  0.00    0.22 -0.21 -0.00   

  Vibration                       28                  29                  30          
  Freq [cm^-1]                1526.5163           1639.8526           1640.0355       
  Irrep                           Bu                  Ag                  Ag          
  Reduced mass [u]              1.8835              4.9005              4.8997        
  Force const [mDyne/A]         2.5860              7.7643              7.7647        
  Turning point v=0 [a0]        0.2046              0.1224              0.1224        
  RMS dev v=0 [a0 u^1/2]        0.1986              0.1916              0.1916        
  Char temp [K]               2196.3171           2359.3828           2359.6460       
  ----------------------------------------------------------------------------------
      1   C                0.10 -0.08  0.00   -0.19  0.09 -0.00    0.06 -0.27 -0.00   
      2   C               -0.10 -0.09  0.00    0.18  0.05  0.00    0.09  0.27  0.00   
      3   C               -0.01  0.08  0.00    0.31 -0.01 -0.00    0.02  0.14 -0.00   
      4   C               -0.01  0.08  0.00   -0.31  0.01  0.00   -0.02 -0.14  0.00   
      5   C               -0.10 -0.09  0.00   -0.18 -0.05  0.00   -0.09 -0.27  0.00   
      6   C                0.10 -0.08 -0.00    0.19 -0.09 -0.00   -0.06  0.27 -0.00   
      7   H               -0.18  0.43 -0.00   -0.00 -0.28 -0.00   -0.26  0.27 -0.00   
      8   H                0.20  0.44  0.00    0.03 -0.24  0.00   -0.26 -0.30  0.00   
      9   H                0.03  0.11  0.00   -0.43 -0.01  0.00   -0.03  0.17  0.00   
     10   H                0.03  0.11 -0.00    0.43  0.01 -0.00    0.03 -0.17 -0.00   
     11   H                0.20  0.44 -0.00   -0.03  0.24 -0.00    0.26  0.30 -0.00   
     12   H               -0.18  0.43  0.00    0.00  0.28  0.00    0.26 -0.27  0.00   

  Vibration                       31                  32                  33          
  Freq [cm^-1]                3150.0609           3159.7756           3159.9880       
  Irrep                           Bu                  Ag                  Ag          
  Reduced mass [u]              1.0852              1.0892              1.0892        
  Force const [mDyne/A]         6.3445              6.4071              6.4080        
  Turning point v=0 [a0]        0.1877              0.1870              0.1870        
  RMS dev v=0 [a0 u^1/2]        0.1382              0.1380              0.1380        
  Char temp [K]               4532.2363           4546.2136           4546.5191       
  ----------------------------------------------------------------------------------
      1   C                0.03  0.02 -0.00    0.04  0.02  0.00    0.02  0.02  0.00   
      2   C               -0.03  0.02 -0.00   -0.04  0.02 -0.00    0.02 -0.01  0.00   
      3   C               -0.00 -0.03  0.00   -0.00  0.00 -0.00   -0.00 -0.05 -0.00   
      4   C               -0.00 -0.03 -0.00    0.00 -0.00  0.00    0.00  0.05 -0.00   
      5   C               -0.03  0.02 -0.00    0.04 -0.02 -0.00   -0.02  0.01  0.00   
      6   C                0.03  0.02 -0.00   -0.04 -0.02 -0.00   -0.02 -0.02  0.00   
      7   H               -0.36 -0.20  0.00   -0.42 -0.24 -0.00   -0.27 -0.16  0.00   
      8   H                0.35 -0.21 -0.00    0.44 -0.26  0.00   -0.22  0.13 -0.00   
      9   H                0.00  0.41  0.00    0.00 -0.03  0.00    0.00  0.57 -0.00   
     10   H                0.00  0.41  0.00   -0.00  0.03 -0.00   -0.00 -0.57  0.00   
     11   H                0.35 -0.21 -0.00   -0.44  0.26 -0.00    0.22 -0.13  0.00   
     12   H               -0.36 -0.20 -0.00    0.42  0.24  0.00    0.27  0.16 -0.00   

  Vibration                       34                  35                  36          
  Freq [cm^-1]                3175.0505           3175.2669           3184.2225       
  Irrep                           Bu                  Bu                  Ag          
  Reduced mass [u]              1.0963              1.0962              1.1006        
  Force const [mDyne/A]         6.5115              6.5121              6.5749        
  Turning point v=0 [a0]        0.1860              0.1860              0.1854        
  RMS dev v=0 [a0 u^1/2]        0.1377              0.1377              0.1375        
  Char temp [K]               4568.1907           4568.5021           4581.3872       
  ----------------------------------------------------------------------------------
      1   C               -0.04 -0.02  0.00   -0.01 -0.01  0.00   -0.03 -0.02  0.00   
      2   C               -0.01  0.01 -0.00   -0.04  0.03  0.00   -0.03  0.02  0.00   
      3   C                0.00 -0.04  0.00    0.00  0.03 -0.00   -0.00 -0.04  0.00   
      4   C                0.00 -0.04 -0.00    0.00  0.03  0.00    0.00  0.04 -0.00   
      5   C               -0.01  0.01  0.00   -0.04  0.03 -0.00    0.03 -0.02 -0.00   
      6   C               -0.04 -0.02  0.00   -0.01 -0.01 -0.00    0.03  0.02 -0.00   
      7   H                0.47  0.27  0.00    0.16  0.09 -0.00    0.35  0.20 -0.00   
      8   H                0.10 -0.06 -0.00    0.49 -0.29  0.00    0.35 -0.21 -0.00   
      9   H                0.00  0.43 -0.00   -0.01 -0.38  0.00    0.00  0.41 -0.00   
     10   H                0.00  0.43  0.00   -0.01 -0.38 -0.00   -0.00 -0.41 -0.00   
     11   H                0.10 -0.06  0.00    0.49 -0.29 -0.00   -0.35  0.21  0.00   
     12   H                0.47  0.27 -0.00    0.16  0.09  0.00   -0.35 -0.20 -0.00   

  ==> Thermochemistry Components <==

  Entropy, S
    Electronic S            0.000 [cal/(mol K)]        0.000 [J/(mol K)]       0.00000000 [mEh/K] (multiplicity = 1)
    Translational S        38.979 [cal/(mol K)]      163.089 [J/(mol K)]       0.06211726 [mEh/K] (mol. weight = 78.0470 [u], P = 101325.00 [Pa])
    Rotational S           24.318 [cal/(mol K)]      101.746 [J/(mol K)]       0.03875307 [mEh/K] (symmetry no. = 2)
    Vibrational S           5.931 [cal/(mol K)]       24.814 [J/(mol K)]       0.00945110 [mEh/K]
  Total S                  69.228 [cal/(mol K)]      289.649 [J/(mol K)]       0.11032143 [mEh/K]
  Correction S              0.000 [cal/(mol K)]        0.000 [J/(mol K)]       0.00000000 [mEh/K]

  Constant volume heat capacity, Cv
    Electronic Cv           0.000 [cal/(mol K)]        0.000 [J/(mol K)]       0.00000000 [mEh/K]
    Translational Cv        2.981 [cal/(mol K)]       12.472 [J/(mol K)]       0.00475022 [mEh/K]
    Rotational Cv           2.981 [cal/(mol K)]       12.472 [J/(mol K)]       0.00475022 [mEh/K]
    Vibrational Cv         12.412 [cal/(mol K)]       51.931 [J/(mol K)]       0.01977931 [mEh/K]
  Total Cv                 18.373 [cal/(mol K)]       76.874 [J/(mol K)]       0.02927974 [mEh/K]
  Correction Cv             0.000 [cal/(mol K)]        0.000 [J/(mol K)]       0.00000000 [mEh/K]

  Constant pressure heat capacity, Cp
    Electronic Cp           0.000 [cal/(mol K)]        0.000 [J/(mol K)]       0.00000000 [mEh/K]
    Translational Cp        4.968 [cal/(mol K)]       20.786 [J/(mol K)]       0.00791703 [mEh/K]
    Rotational Cp           2.981 [cal/(mol K)]       12.472 [J/(mol K)]       0.00475022 [mEh/K]
    Vibrational Cp         12.412 [cal/(mol K)]       51.931 [J/(mol K)]       0.01977931 [mEh/K]
  Total Cp                 20.361 [cal/(mol K)]       85.188 [J/(mol K)]       0.03244655 [mEh/K]
  Correction Cp             0.000 [cal/(mol K)]        0.000 [J/(mol K)]       0.00000000 [mEh/K]

  ==> Thermochemistry Energy Analysis <==

  Raw electronic energy, E0
  Total E0, Electronic energy at well bottom at 0 [K]                 -231.50096154 [Eh]

  Zero-point energy, ZPE_vib = Sum_i nu_i / 2
    Electronic ZPE          0.000 [kcal/mol]        0.000 [kJ/mol]       0.00000000 [Eh]
    Translational ZPE       0.000 [kcal/mol]        0.000 [kJ/mol]       0.00000000 [Eh]
    Rotational ZPE          0.000 [kcal/mol]        0.000 [kJ/mol]       0.00000000 [Eh]
    Vibrational ZPE        62.112 [kcal/mol]      259.876 [kJ/mol]       0.09898164 [Eh]       21723.958 [cm^-1]
  Correction ZPE           62.112 [kcal/mol]      259.876 [kJ/mol]       0.09898164 [Eh]       21723.958 [cm^-1]
  Total ZPE, Electronic energy at 0 [K]                               -231.40197991 [Eh]

  Thermal Energy, E (includes ZPE)
    Electronic E            0.000 [kcal/mol]        0.000 [kJ/mol]       0.00000000 [Eh]
    Translational E         0.889 [kcal/mol]        3.718 [kJ/mol]       0.00141628 [Eh]
    Rotational E            0.889 [kcal/mol]        3.718 [kJ/mol]       0.00141628 [Eh]
    Vibrational E          63.355 [kcal/mol]      265.075 [kJ/mol]       0.10096184 [Eh]
  Correction E             65.132 [kcal/mol]      272.512 [kJ/mol]       0.10379439 [Eh]
  Total E, Electronic energy at  298.15 [K]                           -231.39716716 [Eh]

  Enthalpy, H_trans = E_trans + k_B * T
    Electronic H            0.000 [kcal/mol]        0.000 [kJ/mol]       0.00000000 [Eh]
    Translational H         1.481 [kcal/mol]        6.197 [kJ/mol]       0.00236046 [Eh]
    Rotational H            0.889 [kcal/mol]        3.718 [kJ/mol]       0.00141628 [Eh]
    Vibrational H          63.355 [kcal/mol]      265.075 [kJ/mol]       0.10096184 [Eh]
  Correction H             65.724 [kcal/mol]      274.991 [kJ/mol]       0.10473857 [Eh]
  Total H, Enthalpy at  298.15 [K]                                    -231.39622297 [Eh]

  Gibbs free energy, G = H - T * S
    Electronic G            0.000 [kcal/mol]        0.000 [kJ/mol]       0.00000000 [Eh]
    Translational G       -10.140 [kcal/mol]      -42.428 [kJ/mol]      -0.01615980 [Eh]
    Rotational G           -6.362 [kcal/mol]      -26.617 [kJ/mol]      -0.01013795 [Eh]
    Vibrational G          61.586 [kcal/mol]      257.677 [kJ/mol]       0.09814399 [Eh]
  Correction G             45.084 [kcal/mol]      188.632 [kJ/mol]       0.07184624 [Eh]
  Total G, Free enthalpy at  298.15 [K]                               -231.42911531 [Eh]

    Psi4 stopped on: Tuesday, 19 April 2022 10:09PM
    Psi4 wall time for execution: 0:06:07.63

*** Psi4 exiting successfully. Buy a developer a beer!
