
    -----------------------------------------------------------------------
          Psi4: An Open-Source Ab Initio Electronic Structure Package
                               Psi4 1.3.2 release

                         Git: Rev {HEAD} ecbda83 


    R. M. Parrish, L. A. Burns, D. G. A. Smith, A. C. Simmonett,
    A. E. DePrince III, E. G. Hohenstein, U. Bozkaya, A. Yu. Sokolov,
    R. Di Remigio, R. M. Richard, J. F. Gonthier, A. M. James,
    H. R. McAlexander, A. Kumar, M. Saitow, X. Wang, B. P. Pritchard,
    P. Verma, H. F. Schaefer III, K. Patkowski, R. A. King, E. F. Valeev,
    F. A. Evangelista, J. M. Turney, T. D. Crawford, and C. D. Sherrill,
    J. Chem. Theory Comput. 13(7) pp 3185--3197 (2017).
    (doi: 10.1021/acs.jctc.7b00174)


                         Additional Contributions by
    P. Kraus, H. Kruse, M. H. Lechner, M. C. Schieber, R. A. Shaw,
    A. Alenaizan, R. Galvelis, Z. L. Glick, S. Lehtola, and J. P. Misiewicz

    -----------------------------------------------------------------------


    Psi4 started on: Tuesday, 19 April 2022 09:34PM

    Process ID: 9518
    Host:       atlantis
    PSIDATADIR: /home/akrom/software/anaconda3/envs/ffpenv/share/psi4
    Memory:     500.0 MiB
    Threads:    1
    
  ==> Input File <==

--------------------------------------------------------------------------
set basis  6-31+G*
molecule {
0 1
   C        0.32153        0.81326        0.00000
   C       -0.86505       -0.12817        0.00000
   C        0.54353       -0.68508        0.00000
   H        0.53795        1.36069       -0.92039
   H        0.53795        1.36069        0.92039
   H       -1.44742       -0.21449        0.92034
   H       -1.44742       -0.21449       -0.92034
   H        0.90937       -1.14629       -0.92037
   H        0.90937       -1.14629        0.92037
}
energy('scf')
frequencies('scf')
--------------------------------------------------------------------------

*** tstart() called on atlantis
*** at Tue Apr 19 21:34:22 2022

   => Loading Basis Set <=

    Name: 6-31+G*
    Role: ORBITAL
    Keyword: BASIS
    atoms 1-3 entry C          line   119 file /home/akrom/software/anaconda3/envs/ffpenv/share/psi4/basis/6-31pgs.gbs 
    atoms 4-9 entry H          line    46 file /home/akrom/software/anaconda3/envs/ffpenv/share/psi4/basis/6-31pgs.gbs 


         ---------------------------------------------------------
                                   SCF
               by Justin Turney, Rob Parrish, Andy Simmonett
                          and Daniel G. A. Smith
                              RHF Reference
                        1 Threads,    500 MiB Core
         ---------------------------------------------------------

  ==> Geometry <==

    Molecular point group: cs
    Full point group: Cs

    Geometry (in Angstrom), charge = 0, multiplicity = 1:

       Center              X                  Y                   Z               Mass       
    ------------   -----------------  -----------------  -----------------  -----------------
         C            0.321531939855     0.813261460475     0.000000000000    12.000000000000
         C           -0.865048060145    -0.128168539525     0.000000000000    12.000000000000
         C            0.543531939855    -0.685078539525     0.000000000000    12.000000000000
         H            0.537951939855     1.360691460475    -0.920390000000     1.007825032230
         H            0.537951939855     1.360691460475     0.920390000000     1.007825032230
         H           -1.447418060145    -0.214488539525     0.920340000000     1.007825032230
         H           -1.447418060145    -0.214488539525    -0.920340000000     1.007825032230
         H            0.909371939855    -1.146288539525    -0.920370000000     1.007825032230
         H            0.909371939855    -1.146288539525     0.920370000000     1.007825032230

  Running in cs symmetry.

  Rotational constants: A =      0.66472  B =      0.66470  C =      0.41647 [cm^-1]
  Rotational constants: A =  19927.70596  B =  19927.20236  C =  12485.44714 [MHz]
  Nuclear repulsion =   75.281464809014025

  Charge       = 0
  Multiplicity = 1
  Electrons    = 24
  Nalpha       = 12
  Nbeta        = 12

  ==> Algorithm <==

  SCF Algorithm Type is DF.
  DIIS enabled.
  MOM disabled.
  Fractional occupation disabled.
  Guess Type is SAD.
  Energy threshold   = 1.00e-06
  Density threshold  = 1.00e-06
  Integral threshold = 0.00e+00

  ==> Primary Basis <==

  Basis Set: 6-31+G*
    Blend: 6-31+G*
    Number of shells: 36
    Number of basis function: 69
    Number of Cartesian functions: 69
    Spherical Harmonics?: false
    Max angular momentum: 2

   => Loading Basis Set <=

    Name: (6-31+G* AUX)
    Role: JKFIT
    Keyword: DF_BASIS_SCF
    atoms 1-3 entry C          line   194 file /home/akrom/software/anaconda3/envs/ffpenv/share/psi4/basis/heavy-aug-cc-pvdz-jkfit.gbs 
    atoms 4-9 entry H          line   116 file /home/akrom/software/anaconda3/envs/ffpenv/share/psi4/basis/heavy-aug-cc-pvdz-jkfit.gbs 

  ==> Pre-Iterations <==

   -------------------------------------------------------
    Irrep   Nso     Nmo     Nalpha   Nbeta   Ndocc  Nsocc
   -------------------------------------------------------
     A'        48      48       0       0       0       0
     A"        21      21       0       0       0       0
   -------------------------------------------------------
    Total      69      69      12      12      12       0
   -------------------------------------------------------

  ==> Integral Setup <==

  DFHelper Memory: AOs need 0.019 GiB; user supplied 0.366 GiB. Using in-core AOs.

  ==> MemDFJK: Density-Fitted J/K Matrices <==

    J tasked:                   Yes
    K tasked:                   Yes
    wK tasked:                   No
    OpenMP threads:               1
    Memory [MiB]:               375
    Algorithm:                 Core
    Schwarz Cutoff:           1E-12
    Mask sparsity (%):       0.0000
    Fitting Condition:        1E-10

   => Auxiliary Basis Set <=

  Basis Set: (6-31+G* AUX)
    Blend: HEAVY-AUG-CC-PVDZ-JKFIT
    Number of shells: 138
    Number of basis function: 453
    Number of Cartesian functions: 453
    Spherical Harmonics?: false
    Max angular momentum: 3

  Minimum eigenvalue in the overlap matrix is 1.9505761385E-04.
  Using Symmetric Orthogonalization.

  SCF Guess: Superposition of Atomic Densities via on-the-fly atomic UHF.

  ==> Iterations <==

                           Total Energy        Delta E     RMS |[F,P]|

   @DF-RHF iter SAD:  -116.53046990436334   -1.16530e+02   0.00000e+00 
   @DF-RHF iter   1:  -116.95636499029018   -4.25895e-01   7.97519e-03 DIIS
   @DF-RHF iter   2:  -117.03743692784408   -8.10719e-02   3.88503e-03 DIIS
   @DF-RHF iter   3:  -117.05849023314650   -2.10533e-02   5.36300e-04 DIIS
   @DF-RHF iter   4:  -117.05924088704755   -7.50654e-04   6.21621e-05 DIIS
   @DF-RHF iter   5:  -117.05925673298350   -1.58459e-05   1.31351e-05 DIIS
   @DF-RHF iter   6:  -117.05925750968647   -7.76703e-07   2.45343e-06 DIIS
   @DF-RHF iter   7:  -117.05925753845264   -2.87662e-08   2.75389e-07 DIIS
  Energy and wave function converged.


  ==> Post-Iterations <==

    Orbital Energies [Eh]
    ---------------------

    Doubly Occupied:                                                      

       1Ap   -11.230202     2Ap   -11.229251     3Ap   -11.229246  
       4Ap    -1.127182     5Ap    -0.815257     6Ap    -0.815251  
       1App   -0.664525     7Ap    -0.623489     2App   -0.511978  
       3App   -0.511963     8Ap    -0.417288     9Ap    -0.417280  

    Virtual:                                                              

      10Ap     0.086309    11Ap     0.086310    12Ap     0.096018  
       4App    0.114106     5App    0.146698     6App    0.146700  
      13Ap     0.152215    14Ap     0.152215    15Ap     0.172030  
      16Ap     0.175924    17Ap     0.233736    18Ap     0.233739  
       7App    0.323470    19Ap     0.352475    20Ap     0.367520  
      21Ap     0.435539    22Ap     0.435553     8App    0.449210  
       9App    0.449225    23Ap     0.493088    24Ap     0.493094  
      25Ap     0.779321    10App    0.856733    26Ap     0.861870  
      27Ap     0.861887    28Ap     0.988842    29Ap     0.988848  
      30Ap     1.015583    11App    1.028234    12App    1.028292  
      31Ap     1.050525    13App    1.180611    32Ap     1.275787  
      14App    1.289994    15App    1.290015    33Ap     1.348571  
      34Ap     1.348589    35Ap     1.530837    36Ap     1.530844  
      37Ap     1.837264    16App    2.108603    17App    2.108629  
      38Ap     2.198691    39Ap     2.198734    18App    2.240921  
      19App    2.316892    40Ap     2.480778    41Ap     2.616227  
      42Ap     2.616243    20App    2.852869    21App    2.852913  
      43Ap     2.880972    44Ap     2.880976    45Ap     3.145625  
      46Ap     4.536997    47Ap     4.825179    48Ap     4.825183  

    Final Occupation by Irrep:
             Ap   App 
    DOCC [     9,    3 ]

  @DF-RHF Final Energy:  -117.05925753845264

   => Energetics <=

    Nuclear Repulsion Energy =             75.2814648090140253
    One-Electron Energy =                -305.4956392102407676
    Two-Electron Energy =                 113.1549168627740869
    Total Energy =                       -117.0592575384526413

Computation Completed


Properties will be evaluated at   0.000000,   0.000000,   0.000000 [a0]

Properties computed using the SCF density matrix

  Nuclear Dipole Moment: [e a0]
     X:    -0.0002      Y:    -0.0002      Z:     0.0000

  Electronic Dipole Moment: [e a0]
     X:     0.0002      Y:     0.0001      Z:     0.0000

  Dipole Moment: [e a0]
     X:    -0.0000      Y:    -0.0000      Z:     0.0000     Total:     0.0000

  Dipole Moment: [D]
     X:    -0.0001      Y:    -0.0001      Z:     0.0000     Total:     0.0001


*** tstop() called on atlantis at Tue Apr 19 21:34:22 2022
Module time:
	user time   =       0.56 seconds =       0.01 minutes
	system time =       0.02 seconds =       0.00 minutes
	total time  =          0 seconds =       0.00 minutes
Total time:
	user time   =       0.56 seconds =       0.01 minutes
	system time =       0.02 seconds =       0.00 minutes
	total time  =          0 seconds =       0.00 minutes
gradient() will perform analytic gradient computation.

*** tstart() called on atlantis
*** at Tue Apr 19 21:34:22 2022

   => Loading Basis Set <=

    Name: 6-31+G*
    Role: ORBITAL
    Keyword: BASIS
    atoms 1-3 entry C          line   119 file /home/akrom/software/anaconda3/envs/ffpenv/share/psi4/basis/6-31pgs.gbs 
    atoms 4-9 entry H          line    46 file /home/akrom/software/anaconda3/envs/ffpenv/share/psi4/basis/6-31pgs.gbs 


         ---------------------------------------------------------
                                   SCF
               by Justin Turney, Rob Parrish, Andy Simmonett
                          and Daniel G. A. Smith
                              RHF Reference
                        1 Threads,    500 MiB Core
         ---------------------------------------------------------

  ==> Geometry <==

    Molecular point group: cs
    Full point group: Cs

    Geometry (in Angstrom), charge = 0, multiplicity = 1:

       Center              X                  Y                   Z               Mass       
    ------------   -----------------  -----------------  -----------------  -----------------
         C            0.321531939855     0.813261460475     0.000000000000    12.000000000000
         C           -0.865048060145    -0.128168539525     0.000000000000    12.000000000000
         C            0.543531939855    -0.685078539525     0.000000000000    12.000000000000
         H            0.537951939855     1.360691460475    -0.920390000000     1.007825032230
         H            0.537951939855     1.360691460475     0.920390000000     1.007825032230
         H           -1.447418060145    -0.214488539525     0.920340000000     1.007825032230
         H           -1.447418060145    -0.214488539525    -0.920340000000     1.007825032230
         H            0.909371939855    -1.146288539525    -0.920370000000     1.007825032230
         H            0.909371939855    -1.146288539525     0.920370000000     1.007825032230

  Running in cs symmetry.

  Rotational constants: A =      0.66472  B =      0.66470  C =      0.41647 [cm^-1]
  Rotational constants: A =  19927.70596  B =  19927.20236  C =  12485.44714 [MHz]
  Nuclear repulsion =   75.281464809014025

  Charge       = 0
  Multiplicity = 1
  Electrons    = 24
  Nalpha       = 12
  Nbeta        = 12

  ==> Algorithm <==

  SCF Algorithm Type is DF.
  DIIS enabled.
  MOM disabled.
  Fractional occupation disabled.
  Guess Type is SAD.
  Energy threshold   = 1.00e-08
  Density threshold  = 1.00e-08
  Integral threshold = 0.00e+00

  ==> Primary Basis <==

  Basis Set: 6-31+G*
    Blend: 6-31+G*
    Number of shells: 36
    Number of basis function: 69
    Number of Cartesian functions: 69
    Spherical Harmonics?: false
    Max angular momentum: 2

   => Loading Basis Set <=

    Name: (6-31+G* AUX)
    Role: JKFIT
    Keyword: DF_BASIS_SCF
    atoms 1-3 entry C          line   194 file /home/akrom/software/anaconda3/envs/ffpenv/share/psi4/basis/heavy-aug-cc-pvdz-jkfit.gbs 
    atoms 4-9 entry H          line   116 file /home/akrom/software/anaconda3/envs/ffpenv/share/psi4/basis/heavy-aug-cc-pvdz-jkfit.gbs 

  ==> Pre-Iterations <==

   -------------------------------------------------------
    Irrep   Nso     Nmo     Nalpha   Nbeta   Ndocc  Nsocc
   -------------------------------------------------------
     A'        48      48       0       0       0       0
     A"        21      21       0       0       0       0
   -------------------------------------------------------
    Total      69      69      12      12      12       0
   -------------------------------------------------------

  ==> Integral Setup <==

  DFHelper Memory: AOs need 0.019 GiB; user supplied 0.366 GiB. Using in-core AOs.

  ==> MemDFJK: Density-Fitted J/K Matrices <==

    J tasked:                   Yes
    K tasked:                   Yes
    wK tasked:                   No
    OpenMP threads:               1
    Memory [MiB]:               375
    Algorithm:                 Core
    Schwarz Cutoff:           1E-12
    Mask sparsity (%):       0.0000
    Fitting Condition:        1E-10

   => Auxiliary Basis Set <=

  Basis Set: (6-31+G* AUX)
    Blend: HEAVY-AUG-CC-PVDZ-JKFIT
    Number of shells: 138
    Number of basis function: 453
    Number of Cartesian functions: 453
    Spherical Harmonics?: false
    Max angular momentum: 3

  Minimum eigenvalue in the overlap matrix is 1.9505761385E-04.
  Using Symmetric Orthogonalization.

  SCF Guess: Superposition of Atomic Densities via on-the-fly atomic UHF.

  ==> Iterations <==

                           Total Energy        Delta E     RMS |[F,P]|

   @DF-RHF iter SAD:  -116.53046990454447   -1.16530e+02   0.00000e+00 
   @DF-RHF iter   1:  -116.95636499045942   -4.25895e-01   7.97519e-03 DIIS
   @DF-RHF iter   2:  -117.03743692800874   -8.10719e-02   3.88503e-03 DIIS
   @DF-RHF iter   3:  -117.05849023330924   -2.10533e-02   5.36300e-04 DIIS
   @DF-RHF iter   4:  -117.05924088721045   -7.50654e-04   6.21621e-05 DIIS
   @DF-RHF iter   5:  -117.05925673314589   -1.58459e-05   1.31351e-05 DIIS
   @DF-RHF iter   6:  -117.05925750984922   -7.76703e-07   2.45343e-06 DIIS
   @DF-RHF iter   7:  -117.05925753861540   -2.87662e-08   2.75389e-07 DIIS
   @DF-RHF iter   8:  -117.05925753891783   -3.02435e-10   3.16266e-08 DIIS
   @DF-RHF iter   9:  -117.05925753892161   -3.78009e-12   6.08242e-09 DIIS
  Energy and wave function converged.


  ==> Post-Iterations <==

    Orbital Energies [Eh]
    ---------------------

    Doubly Occupied:                                                      

       1Ap   -11.230201     2Ap   -11.229250     3Ap   -11.229246  
       4Ap    -1.127182     5Ap    -0.815257     6Ap    -0.815251  
       1App   -0.664526     7Ap    -0.623489     2App   -0.511978  
       3App   -0.511963     8Ap    -0.417288     9Ap    -0.417280  

    Virtual:                                                              

      10Ap     0.086309    11Ap     0.086310    12Ap     0.096018  
       4App    0.114106     5App    0.146698     6App    0.146700  
      13Ap     0.152215    14Ap     0.152215    15Ap     0.172031  
      16Ap     0.175924    17Ap     0.233736    18Ap     0.233739  
       7App    0.323470    19Ap     0.352476    20Ap     0.367520  
      21Ap     0.435539    22Ap     0.435554     8App    0.449210  
       9App    0.449225    23Ap     0.493089    24Ap     0.493094  
      25Ap     0.779321    10App    0.856733    26Ap     0.861871  
      27Ap     0.861888    28Ap     0.988843    29Ap     0.988849  
      30Ap     1.015584    11App    1.028234    12App    1.028293  
      31Ap     1.050525    13App    1.180611    32Ap     1.275787  
      14App    1.289995    15App    1.290015    33Ap     1.348571  
      34Ap     1.348590    35Ap     1.530838    36Ap     1.530845  
      37Ap     1.837264    16App    2.108604    17App    2.108629  
      38Ap     2.198692    39Ap     2.198735    18App    2.240922  
      19App    2.316893    40Ap     2.480779    41Ap     2.616228  
      42Ap     2.616244    20App    2.852870    21App    2.852914  
      43Ap     2.880973    44Ap     2.880976    45Ap     3.145625  
      46Ap     4.536998    47Ap     4.825179    48Ap     4.825183  

    Final Occupation by Irrep:
             Ap   App 
    DOCC [     9,    3 ]

  @DF-RHF Final Energy:  -117.05925753892161

   => Energetics <=

    Nuclear Repulsion Energy =             75.2814648090140253
    One-Electron Energy =                -305.4956246652964751
    Two-Electron Energy =                 113.1549023173608219
    Total Energy =                       -117.0592575389216137

Computation Completed


Properties will be evaluated at   0.000000,   0.000000,   0.000000 [a0]

Properties computed using the SCF density matrix

  Nuclear Dipole Moment: [e a0]
     X:    -0.0002      Y:    -0.0002      Z:     0.0000

  Electronic Dipole Moment: [e a0]
     X:     0.0002      Y:     0.0001      Z:     0.0000

  Dipole Moment: [e a0]
     X:    -0.0000      Y:    -0.0000      Z:     0.0000     Total:     0.0000

  Dipole Moment: [D]
     X:    -0.0001      Y:    -0.0001      Z:     0.0000     Total:     0.0001


*** tstop() called on atlantis at Tue Apr 19 21:34:23 2022
Module time:
	user time   =       0.55 seconds =       0.01 minutes
	system time =       0.01 seconds =       0.00 minutes
	total time  =          1 seconds =       0.02 minutes
Total time:
	user time   =       1.11 seconds =       0.02 minutes
	system time =       0.03 seconds =       0.00 minutes
	total time  =          1 seconds =       0.02 minutes

*** tstart() called on atlantis
*** at Tue Apr 19 21:34:23 2022


         ------------------------------------------------------------
                                   SCF GRAD                          
                          Rob Parrish, Justin Turney,                
                       Andy Simmonett, and Alex Sokolov              
         ------------------------------------------------------------

  ==> Geometry <==

    Molecular point group: cs
    Full point group: Cs

    Geometry (in Angstrom), charge = 0, multiplicity = 1:

       Center              X                  Y                   Z               Mass       
    ------------   -----------------  -----------------  -----------------  -----------------
         C            0.321531939855     0.813261460475     0.000000000000    12.000000000000
         C           -0.865048060145    -0.128168539525     0.000000000000    12.000000000000
         C            0.543531939855    -0.685078539525     0.000000000000    12.000000000000
         H            0.537951939855     1.360691460475    -0.920390000000     1.007825032230
         H            0.537951939855     1.360691460475     0.920390000000     1.007825032230
         H           -1.447418060145    -0.214488539525     0.920340000000     1.007825032230
         H           -1.447418060145    -0.214488539525    -0.920340000000     1.007825032230
         H            0.909371939855    -1.146288539525    -0.920370000000     1.007825032230
         H            0.909371939855    -1.146288539525     0.920370000000     1.007825032230

  Nuclear repulsion =   75.281464809014025

  ==> Basis Set <==

  Basis Set: 6-31+G*
    Blend: 6-31+G*
    Number of shells: 36
    Number of basis function: 69
    Number of Cartesian functions: 69
    Spherical Harmonics?: false
    Max angular momentum: 2

  ==> DFJKGrad: Density-Fitted SCF Gradients <==

    Gradient:                    1
    J tasked:                  Yes
    K tasked:                  Yes
    wK tasked:                  No
    OpenMP threads:              1
    Integrals threads:           1
    Memory [MiB]:              375
    Schwarz Cutoff:          0E+00
    Fitting Condition:       1E-10

   => Auxiliary Basis Set <=

  Basis Set: (6-31+G* AUX)
    Blend: HEAVY-AUG-CC-PVDZ-JKFIT
    Number of shells: 138
    Number of basis function: 453
    Number of Cartesian functions: 453
    Spherical Harmonics?: false
    Max angular momentum: 3


  -Total Gradient:
     Atom            X                  Y                   Z
    ------   -----------------  -----------------  -----------------
       1        0.001273657637     0.003222652984     0.000000000000
       2       -0.003399239418    -0.000499502837     0.000000000000
       3        0.002152161697    -0.002700338737     0.000000000000
       4        0.002140196148     0.005417150246    -0.010823343253
       5        0.002140196148     0.005417150246     0.010823343253
       6       -0.005771952832    -0.000858387008     0.010812464467
       7       -0.005771952832    -0.000858387008    -0.010812464467
       8        0.003618466726    -0.004570168943    -0.010819119730
       9        0.003618466726    -0.004570168943     0.010819119730


*** tstop() called on atlantis at Tue Apr 19 21:34:23 2022
Module time:
	user time   =       0.41 seconds =       0.01 minutes
	system time =       0.00 seconds =       0.00 minutes
	total time  =          0 seconds =       0.00 minutes
Total time:
	user time   =       1.52 seconds =       0.03 minutes
	system time =       0.03 seconds =       0.00 minutes
	total time  =          1 seconds =       0.02 minutes

  Based on options and gradient (rms=5.91E-03), recommend projecting translations and projecting rotations.
hessian() will perform analytic frequency computation.

*** tstart() called on atlantis
*** at Tue Apr 19 21:34:23 2022

   => Loading Basis Set <=

    Name: 6-31+G*
    Role: ORBITAL
    Keyword: BASIS
    atoms 1-3 entry C          line   119 file /home/akrom/software/anaconda3/envs/ffpenv/share/psi4/basis/6-31pgs.gbs 
    atoms 4-9 entry H          line    46 file /home/akrom/software/anaconda3/envs/ffpenv/share/psi4/basis/6-31pgs.gbs 


         ---------------------------------------------------------
                                   SCF
               by Justin Turney, Rob Parrish, Andy Simmonett
                          and Daniel G. A. Smith
                              RHF Reference
                        1 Threads,    500 MiB Core
         ---------------------------------------------------------

  ==> Geometry <==

    Molecular point group: cs
    Full point group: Cs

    Geometry (in Angstrom), charge = 0, multiplicity = 1:

       Center              X                  Y                   Z               Mass       
    ------------   -----------------  -----------------  -----------------  -----------------
         C            0.321531939855     0.813261460475     0.000000000000    12.000000000000
         C           -0.865048060145    -0.128168539525     0.000000000000    12.000000000000
         C            0.543531939855    -0.685078539525     0.000000000000    12.000000000000
         H            0.537951939855     1.360691460475    -0.920390000000     1.007825032230
         H            0.537951939855     1.360691460475     0.920390000000     1.007825032230
         H           -1.447418060145    -0.214488539525     0.920340000000     1.007825032230
         H           -1.447418060145    -0.214488539525    -0.920340000000     1.007825032230
         H            0.909371939855    -1.146288539525    -0.920370000000     1.007825032230
         H            0.909371939855    -1.146288539525     0.920370000000     1.007825032230

  Running in cs symmetry.

  Rotational constants: A =      0.66472  B =      0.66470  C =      0.41647 [cm^-1]
  Rotational constants: A =  19927.70596  B =  19927.20236  C =  12485.44714 [MHz]
  Nuclear repulsion =   75.281464809014025

  Charge       = 0
  Multiplicity = 1
  Electrons    = 24
  Nalpha       = 12
  Nbeta        = 12

  ==> Algorithm <==

  SCF Algorithm Type is DF.
  DIIS enabled.
  MOM disabled.
  Fractional occupation disabled.
  Guess Type is SAD.
  Energy threshold   = 1.00e-08
  Density threshold  = 1.00e-08
  Integral threshold = 0.00e+00

  ==> Primary Basis <==

  Basis Set: 6-31+G*
    Blend: 6-31+G*
    Number of shells: 36
    Number of basis function: 69
    Number of Cartesian functions: 69
    Spherical Harmonics?: false
    Max angular momentum: 2

   => Loading Basis Set <=

    Name: (6-31+G* AUX)
    Role: JKFIT
    Keyword: DF_BASIS_SCF
    atoms 1-3 entry C          line   194 file /home/akrom/software/anaconda3/envs/ffpenv/share/psi4/basis/heavy-aug-cc-pvdz-jkfit.gbs 
    atoms 4-9 entry H          line   116 file /home/akrom/software/anaconda3/envs/ffpenv/share/psi4/basis/heavy-aug-cc-pvdz-jkfit.gbs 

  ==> Pre-Iterations <==

   -------------------------------------------------------
    Irrep   Nso     Nmo     Nalpha   Nbeta   Ndocc  Nsocc
   -------------------------------------------------------
     A'        48      48       0       0       0       0
     A"        21      21       0       0       0       0
   -------------------------------------------------------
    Total      69      69      12      12      12       0
   -------------------------------------------------------

  ==> Integral Setup <==

  DFHelper Memory: AOs need 0.019 GiB; user supplied 0.366 GiB. Using in-core AOs.

  ==> MemDFJK: Density-Fitted J/K Matrices <==

    J tasked:                   Yes
    K tasked:                   Yes
    wK tasked:                   No
    OpenMP threads:               1
    Memory [MiB]:               375
    Algorithm:                 Core
    Schwarz Cutoff:           1E-12
    Mask sparsity (%):       0.0000
    Fitting Condition:        1E-10

   => Auxiliary Basis Set <=

  Basis Set: (6-31+G* AUX)
    Blend: HEAVY-AUG-CC-PVDZ-JKFIT
    Number of shells: 138
    Number of basis function: 453
    Number of Cartesian functions: 453
    Spherical Harmonics?: false
    Max angular momentum: 3

  Minimum eigenvalue in the overlap matrix is 1.9505761385E-04.
  Using Symmetric Orthogonalization.

  SCF Guess: Superposition of Atomic Densities via on-the-fly atomic UHF.

  ==> Iterations <==

                           Total Energy        Delta E     RMS |[F,P]|

   @DF-RHF iter SAD:  -116.53046990454432   -1.16530e+02   0.00000e+00 
   @DF-RHF iter   1:  -116.95636499045865   -4.25895e-01   7.97519e-03 DIIS
   @DF-RHF iter   2:  -117.03743692800785   -8.10719e-02   3.88503e-03 DIIS
   @DF-RHF iter   3:  -117.05849023330838   -2.10533e-02   5.36300e-04 DIIS
   @DF-RHF iter   4:  -117.05924088720953   -7.50654e-04   6.21621e-05 DIIS
   @DF-RHF iter   5:  -117.05925673314513   -1.58459e-05   1.31351e-05 DIIS
   @DF-RHF iter   6:  -117.05925750984842   -7.76703e-07   2.45343e-06 DIIS
   @DF-RHF iter   7:  -117.05925753861435   -2.87659e-08   2.75389e-07 DIIS
   @DF-RHF iter   8:  -117.05925753891717   -3.02819e-10   3.16266e-08 DIIS
   @DF-RHF iter   9:  -117.05925753892073   -3.56692e-12   6.08242e-09 DIIS
  Energy and wave function converged.


  ==> Post-Iterations <==

    Orbital Energies [Eh]
    ---------------------

    Doubly Occupied:                                                      

       1Ap   -11.230201     2Ap   -11.229250     3Ap   -11.229246  
       4Ap    -1.127182     5Ap    -0.815257     6Ap    -0.815251  
       1App   -0.664526     7Ap    -0.623489     2App   -0.511978  
       3App   -0.511963     8Ap    -0.417288     9Ap    -0.417280  

    Virtual:                                                              

      10Ap     0.086309    11Ap     0.086310    12Ap     0.096018  
       4App    0.114106     5App    0.146698     6App    0.146700  
      13Ap     0.152215    14Ap     0.152215    15Ap     0.172031  
      16Ap     0.175924    17Ap     0.233736    18Ap     0.233739  
       7App    0.323470    19Ap     0.352476    20Ap     0.367520  
      21Ap     0.435539    22Ap     0.435554     8App    0.449210  
       9App    0.449225    23Ap     0.493089    24Ap     0.493094  
      25Ap     0.779321    10App    0.856733    26Ap     0.861871  
      27Ap     0.861888    28Ap     0.988843    29Ap     0.988849  
      30Ap     1.015584    11App    1.028234    12App    1.028293  
      31Ap     1.050525    13App    1.180611    32Ap     1.275787  
      14App    1.289995    15App    1.290015    33Ap     1.348571  
      34Ap     1.348590    35Ap     1.530838    36Ap     1.530845  
      37Ap     1.837264    16App    2.108604    17App    2.108629  
      38Ap     2.198692    39Ap     2.198735    18App    2.240922  
      19App    2.316893    40Ap     2.480779    41Ap     2.616228  
      42Ap     2.616244    20App    2.852870    21App    2.852914  
      43Ap     2.880973    44Ap     2.880976    45Ap     3.145625  
      46Ap     4.536998    47Ap     4.825179    48Ap     4.825183  

    Final Occupation by Irrep:
             Ap   App 
    DOCC [     9,    3 ]

  @DF-RHF Final Energy:  -117.05925753892073

   => Energetics <=

    Nuclear Repulsion Energy =             75.2814648090140253
    One-Electron Energy =                -305.4956246652933487
    Two-Electron Energy =                 113.1549023173585766
    Total Energy =                       -117.0592575389207326

Computation Completed


Properties will be evaluated at   0.000000,   0.000000,   0.000000 [a0]

Properties computed using the SCF density matrix

  Nuclear Dipole Moment: [e a0]
     X:    -0.0002      Y:    -0.0002      Z:     0.0000

  Electronic Dipole Moment: [e a0]
     X:     0.0002      Y:     0.0001      Z:     0.0000

  Dipole Moment: [e a0]
     X:    -0.0000      Y:    -0.0000      Z:     0.0000     Total:     0.0000

  Dipole Moment: [D]
     X:    -0.0001      Y:    -0.0001      Z:     0.0000     Total:     0.0001


*** tstop() called on atlantis at Tue Apr 19 21:34:24 2022
Module time:
	user time   =       0.55 seconds =       0.01 minutes
	system time =       0.00 seconds =       0.00 minutes
	total time  =          1 seconds =       0.02 minutes
Total time:
	user time   =       2.07 seconds =       0.03 minutes
	system time =       0.03 seconds =       0.00 minutes
	total time  =          2 seconds =       0.03 minutes

*** tstart() called on atlantis
*** at Tue Apr 19 21:34:24 2022


         ------------------------------------------------------------
                                   SCF HESS                          
                          Rob Parrish, Justin Turney,                
                       Andy Simmonett, and Alex Sokolov              
         ------------------------------------------------------------

  ==> Geometry <==

    Molecular point group: cs
    Full point group: Cs

    Geometry (in Angstrom), charge = 0, multiplicity = 1:

       Center              X                  Y                   Z               Mass       
    ------------   -----------------  -----------------  -----------------  -----------------
         C            0.321531939855     0.813261460475     0.000000000000    12.000000000000
         C           -0.865048060145    -0.128168539525     0.000000000000    12.000000000000
         C            0.543531939855    -0.685078539525     0.000000000000    12.000000000000
         H            0.537951939855     1.360691460475    -0.920390000000     1.007825032230
         H            0.537951939855     1.360691460475     0.920390000000     1.007825032230
         H           -1.447418060145    -0.214488539525     0.920340000000     1.007825032230
         H           -1.447418060145    -0.214488539525    -0.920340000000     1.007825032230
         H            0.909371939855    -1.146288539525    -0.920370000000     1.007825032230
         H            0.909371939855    -1.146288539525     0.920370000000     1.007825032230

  Nuclear repulsion =   75.281464809014025

  ==> Basis Set <==

  Basis Set: 6-31+G*
    Blend: 6-31+G*
    Number of shells: 36
    Number of basis function: 69
    Number of Cartesian functions: 69
    Spherical Harmonics?: false
    Max angular momentum: 2

  ==> DFJKGrad: Density-Fitted SCF Gradients <==

    Gradient:                    2
    J tasked:                  Yes
    K tasked:                  Yes
    wK tasked:                  No
    OpenMP threads:              1
    Integrals threads:           1
    Memory [MiB]:              375
    Schwarz Cutoff:          0E+00
    Fitting Condition:       1E-10

   => Auxiliary Basis Set <=

  Basis Set: (6-31+G* AUX)
    Blend: HEAVY-AUG-CC-PVDZ-JKFIT
    Number of shells: 138
    Number of basis function: 453
    Number of Cartesian functions: 453
    Spherical Harmonics?: false
    Max angular momentum: 3

  DFHelper Memory: AOs need 0.019 GiB; user supplied 0.439 GiB. Using in-core AOs.

  ==> MemDFJK: Density-Fitted J/K Matrices <==

    J tasked:                   Yes
    K tasked:                   Yes
    wK tasked:                   No
    OpenMP threads:               1
    Memory [MiB]:               450
    Algorithm:                 Core
    Schwarz Cutoff:           1E-12
    Mask sparsity (%):       0.0000
    Fitting Condition:        1E-10

   => Auxiliary Basis Set <=

  Basis Set: (6-31+G* AUX)
    Blend: HEAVY-AUG-CC-PVDZ-JKFIT
    Number of shells: 138
    Number of basis function: 453
    Number of Cartesian functions: 453
    Spherical Harmonics?: false
    Max angular momentum: 3


         ------------------------------------------------------------
                                     CPHF                           
                                  Rob Parrish                       
         ------------------------------------------------------------

  ==> Geometry <==

    Molecular point group: cs
    Full point group: Cs

    Geometry (in Angstrom), charge = 0, multiplicity = 1:

       Center              X                  Y                   Z               Mass       
    ------------   -----------------  -----------------  -----------------  -----------------
         C            0.321531939855     0.813261460475     0.000000000000    12.000000000000
         C           -0.865048060145    -0.128168539525     0.000000000000    12.000000000000
         C            0.543531939855    -0.685078539525     0.000000000000    12.000000000000
         H            0.537951939855     1.360691460475    -0.920390000000     1.007825032230
         H            0.537951939855     1.360691460475     0.920390000000     1.007825032230
         H           -1.447418060145    -0.214488539525     0.920340000000     1.007825032230
         H           -1.447418060145    -0.214488539525    -0.920340000000     1.007825032230
         H            0.909371939855    -1.146288539525    -0.920370000000     1.007825032230
         H            0.909371939855    -1.146288539525     0.920370000000     1.007825032230

  Nuclear repulsion =   75.281464809014025
  Reference energy  = -117.059257538920733

  ==> Basis Set <==

  Basis Set: 6-31+G*
    Blend: 6-31+G*
    Number of shells: 36
    Number of basis function: 69
    Number of Cartesian functions: 69
    Spherical Harmonics?: false
    Max angular momentum: 2

  ==> CGRSolver (by Rob Parrish) <==

   Number of roots    =        27
   Preconditioning    =    JACOBI
   Convergence cutoff =     1E-06
   Maximum iterations =       100

  ==> CPHFRHamiltonian (by Rob Parrish) <== 

  ==> MemDFJK: Density-Fitted J/K Matrices <==

    J tasked:                   Yes
    K tasked:                   Yes
    wK tasked:                   No
    OpenMP threads:               1
    Memory [MiB]:               450
    Algorithm:                 Core
    Schwarz Cutoff:           1E-12
    Mask sparsity (%):       0.0000
    Fitting Condition:        1E-10

   => Auxiliary Basis Set <=

  Basis Set: (6-31+G* AUX)
    Blend: HEAVY-AUG-CC-PVDZ-JKFIT
    Number of shells: 138
    Number of basis function: 453
    Number of Cartesian functions: 453
    Spherical Harmonics?: false
    Max angular momentum: 3

  ==> CPHF Iterations <==

  => Iterations <=

             Iter  Converged  Remaining    Residual
  CGR           1          0         27   1.249E-01
  CGR           2          0         27   2.075E-02
  CGR           3          0         27   4.887E-03
  CGR           4          0         27   1.240E-03
  CGR           5          0         27   3.238E-04
  CGR           6          0         27   1.063E-04
  CGR           7          3         24   2.910E-05
  CGR           8          3         24   6.488E-06
  CGR           9         21          6   1.056E-06
  CGR          10         27          0   1.782E-07

    CGRSolver converged.


*** tstop() called on atlantis at Tue Apr 19 21:57:06 2022
Module time:
	user time   =    1360.95 seconds =      22.68 minutes
	system time =       0.08 seconds =       0.00 minutes
	total time  =       1362 seconds =      22.70 minutes
Total time:
	user time   =    1363.02 seconds =      22.72 minutes
	system time =       0.11 seconds =       0.00 minutes
	total time  =       1364 seconds =      22.73 minutes


  ==> Harmonic Vibrational Analysis <==

  non-mass-weighted Hessian:       Symmetric? True   Hermitian? True   Lin Dep Dim?  0 (0)
  projection of translations (True) and rotations (True) removed 6 degrees of freedom (6)
  total projector:                 Symmetric? True   Hermitian? True   Lin Dep Dim?  6 (6)
  mass-weighted Hessian:           Symmetric? True   Hermitian? True   Lin Dep Dim?  0 (0)
  pre-proj  low-frequency mode:    0.0000i [cm^-1]
  pre-proj  low-frequency mode:    0.0000i [cm^-1]
  pre-proj  low-frequency mode:    0.0000i [cm^-1]
  pre-proj  low-frequency mode:  143.0128  [cm^-1]
  pre-proj  low-frequency mode:  217.8322  [cm^-1]
  pre-proj  low-frequency mode:  217.8446  [cm^-1]
  pre-proj  all modes:['0.1710i' '0.0681i' '0.0356i' '143.0128' '217.8322' '217.8446' '883.9281'
 '883.9322' '916.8530' '916.8900' '988.7816' '1223.6026' '1223.6122'
 '1252.9865' '1260.5193' '1293.7905' '1348.7596' '1348.7630' '1624.3096'
 '1624.3286' '1678.3974' '3150.9565' '3150.9743' '3164.6498' '3221.4362'
 '3221.4500' '3245.4299']
  projected mass-weighted Hessian: Symmetric? True   Hermitian? True   Lin Dep Dim?  6 (6)
  post-proj low-frequency mode:    0.0000i [cm^-1] (TR)
  post-proj low-frequency mode:    0.0000i [cm^-1] (TR)
  post-proj low-frequency mode:    0.0000i [cm^-1] (TR)
  post-proj low-frequency mode:    0.0000  [cm^-1] (TR)
  post-proj low-frequency mode:    0.0000  [cm^-1] (TR)
  post-proj low-frequency mode:    0.0000  [cm^-1] (TR)
  post-proj  all modes:['0.0000i' '0.0000i' '0.0000i' '0.0000' '0.0000' '0.0000' '883.9226'
 '883.9266' '916.8530' '916.8900' '988.7816' '1223.6026' '1223.6122'
 '1252.9865' '1260.3780' '1293.7905' '1347.9883' '1347.9917' '1624.3096'
 '1624.3286' '1678.3974' '3150.9565' '3150.9743' '3164.6498' '3221.4359'
 '3221.4497' '3245.4299']

  Vibration                       7                   8                   9           
  Freq [cm^-1]                 883.9226            883.9266            916.8530       
  Irrep                          App                 App                  Ap          
  Reduced mass [u]              1.0215              1.0215              3.9386        
  Force const [mDyne/A]         0.4703              0.4703              1.9507        
  Turning point v=0 [a0]        0.3652              0.3652              0.1826        
  RMS dev v=0 [a0 u^1/2]        0.2610              0.2610              0.2562        
  IR activ [km/mol]             0.0000              0.0000             29.6054        
  Char temp [K]               1271.7678           1271.7735           1319.1473       
  ----------------------------------------------------------------------------------
      1   C               -0.00 -0.00  0.03   -0.00  0.00  0.00   -0.21  0.20  0.00   
      2   C               -0.00  0.00 -0.01    0.00  0.00 -0.03    0.30  0.09 -0.00   
      3   C                0.00  0.00 -0.02    0.00 -0.00  0.02   -0.05 -0.29 -0.00   
      4   H               -0.16 -0.28 -0.18    0.40 -0.19 -0.02   -0.32  0.23 -0.01   
      5   H                0.16  0.28 -0.18   -0.40  0.19 -0.02   -0.32  0.23  0.01   
      6   H                0.19 -0.38  0.07    0.26  0.22  0.16    0.26  0.10 -0.03   
      7   H               -0.19  0.38  0.07   -0.26 -0.22  0.16    0.26  0.10  0.03   
      8   H                0.40  0.07  0.11    0.04  0.37 -0.15   -0.15 -0.33 -0.02   
      9   H               -0.40 -0.07  0.11   -0.04 -0.37 -0.15   -0.15 -0.33  0.02   

  Vibration                       10                  11                  12          
  Freq [cm^-1]                 916.8900            988.7816           1223.6026       
  Irrep                           Ap                 App                  Ap          
  Reduced mass [u]              3.9387              1.0440              1.2368        
  Force const [mDyne/A]         1.9509              0.6014              1.0910        
  Turning point v=0 [a0]        0.1826              0.3415              0.2821        
  RMS dev v=0 [a0 u^1/2]        0.2562              0.2467              0.2218        
  IR activ [km/mol]            29.5961              0.0027              6.2743        
  Char temp [K]               1319.2006           1422.6365           1760.4916       
  ----------------------------------------------------------------------------------
      1   C               -0.20 -0.23 -0.00    0.00 -0.00 -0.03   -0.06  0.04  0.00   
      2   C               -0.09  0.27  0.00   -0.00 -0.00 -0.03    0.03 -0.04 -0.00   
      3   C                0.29 -0.08  0.00   -0.00  0.00 -0.03   -0.09 -0.07  0.00   
      4   H               -0.23 -0.18  0.02    0.13  0.33  0.20    0.31 -0.13 -0.01   
      5   H               -0.23 -0.18 -0.02   -0.13 -0.33  0.20    0.31 -0.13  0.01   
      6   H               -0.10  0.40  0.00    0.35  0.05  0.20   -0.04  0.23 -0.01   
      7   H               -0.10  0.40 -0.00   -0.35 -0.05  0.20   -0.04  0.23  0.01   
      8   H                0.33 -0.01 -0.02    0.22 -0.28  0.20    0.44  0.35 -0.00   
      9   H                0.33 -0.01  0.02   -0.22  0.28  0.20    0.44  0.35  0.00   

  Vibration                       13                  14                  15          
  Freq [cm^-1]                1223.6122           1252.9865           1260.3780       
  Irrep                           Ap                  Ap                  Ap          
  Reduced mass [u]              1.2368              2.9801              1.4254        
  Force const [mDyne/A]         1.0910              2.7566              1.3341        
  Turning point v=0 [a0]        0.2821              0.1796              0.2589        
  RMS dev v=0 [a0 u^1/2]        0.2218              0.2192              0.2185        
  IR activ [km/mol]             6.2723              0.0000              0.0000        
  Char temp [K]               1760.5056           1802.7686           1813.4033       
  ----------------------------------------------------------------------------------
      1   C                0.09 -0.02  0.00   -0.09 -0.23  0.00   -0.10  0.04  0.00   
      2   C                0.01 -0.11  0.00    0.24  0.04 -0.00    0.02 -0.11 -0.00   
      3   C               -0.02  0.01 -0.00   -0.15  0.19  0.00    0.09  0.07  0.00   
      4   H               -0.43  0.17 -0.01   -0.13 -0.34 -0.05    0.37 -0.15 -0.00   
      5   H               -0.43  0.17  0.01   -0.13 -0.34  0.05    0.37 -0.15  0.00   
      6   H               -0.08  0.52  0.01    0.36  0.05  0.05   -0.06  0.40  0.00   
      7   H               -0.08  0.52 -0.01    0.36  0.05 -0.05   -0.06  0.40 -0.00   
      8   H                0.05  0.04  0.01   -0.23  0.29 -0.05   -0.31 -0.25  0.00   
      9   H                0.05  0.04 -0.01   -0.23  0.29  0.05   -0.31 -0.25 -0.00   

  Vibration                       16                  17                  18          
  Freq [cm^-1]                1293.7905           1347.9883           1347.9917       
  Irrep                          App                 App                 App          
  Reduced mass [u]              1.0078              1.4481              1.4481        
  Force const [mDyne/A]         0.9939              1.5504              1.5504        
  Turning point v=0 [a0]        0.3039              0.2483              0.2483        
  RMS dev v=0 [a0 u^1/2]        0.2157              0.2113              0.2113        
  IR activ [km/mol]             0.0000              0.0000              0.0000        
  Char temp [K]               1861.4765           1939.4551           1939.4599       
  ----------------------------------------------------------------------------------
      1   C                0.00 -0.00 -0.00    0.00  0.00  0.16    0.00  0.00 -0.02   
      2   C                0.00  0.00 -0.00   -0.00  0.00 -0.10   -0.00 -0.00 -0.13   
      3   C               -0.00  0.00  0.00    0.00 -0.00 -0.06    0.00  0.00  0.15   
      4   H               -0.38  0.15  0.00   -0.20 -0.35 -0.08   -0.34  0.19  0.01   
      5   H                0.38 -0.15  0.00    0.20  0.35 -0.08    0.34 -0.19  0.01   
      6   H               -0.06  0.40  0.00    0.20  0.34  0.05    0.35 -0.19  0.07   
      7   H                0.06 -0.40  0.00   -0.20 -0.34  0.05   -0.35  0.19  0.07   
      8   H                0.32  0.25 -0.00   -0.19 -0.34  0.03   -0.35  0.20 -0.08   
      9   H               -0.32 -0.25 -0.00    0.19  0.34  0.03    0.35 -0.20 -0.08   

  Vibration                       19                  20                  21          
  Freq [cm^-1]                1624.3096           1624.3286           1678.3974       
  Irrep                           Ap                  Ap                  Ap          
  Reduced mass [u]              1.0929              1.0929              1.2623        
  Force const [mDyne/A]         1.6989              1.6989              2.0951        
  Turning point v=0 [a0]        0.2604              0.2604              0.2384        
  RMS dev v=0 [a0 u^1/2]        0.1925              0.1925              0.1894        
  IR activ [km/mol]             0.0297              0.0297              0.0000        
  Char temp [K]               2337.0199           2337.0473           2414.8401       
  ----------------------------------------------------------------------------------
      1   C               -0.02 -0.06  0.00   -0.02 -0.02 -0.00   -0.03 -0.08 -0.00   
      2   C               -0.01 -0.01 -0.00   -0.07 -0.01 -0.00    0.09  0.01 -0.00   
      3   C                0.03 -0.05 -0.00   -0.04  0.03  0.00   -0.05  0.07  0.00   
      4   H                0.16  0.42  0.32    0.06  0.13  0.10    0.12  0.29  0.25   
      5   H                0.16  0.42 -0.32    0.06  0.13 -0.10    0.12  0.29 -0.25   
      6   H                0.10  0.03  0.07    0.45  0.06  0.32   -0.31 -0.05 -0.25   
      7   H                0.10  0.03 -0.07    0.45  0.06 -0.32   -0.31 -0.05  0.25   
      8   H               -0.21  0.28 -0.24    0.21 -0.24  0.22    0.20 -0.25  0.25   
      9   H               -0.21  0.28  0.24    0.21 -0.24 -0.22    0.20 -0.25 -0.25   

  Vibration                       22                  23                  24          
  Freq [cm^-1]                3150.9565           3150.9743           3164.6498       
  Irrep                           Ap                  Ap                  Ap          
  Reduced mass [u]              1.0505              1.0506              1.0638        
  Force const [mDyne/A]         6.1454              6.1455              6.2770        
  Turning point v=0 [a0]        0.1907              0.1907              0.1891        
  RMS dev v=0 [a0 u^1/2]        0.1382              0.1382              0.1379        
  IR activ [km/mol]            38.6750             38.6807              0.0000        
  Char temp [K]               4533.5249           4533.5505           4553.2265       
  ----------------------------------------------------------------------------------
      1   C                0.02  0.04  0.00    0.01  0.02  0.00    0.02  0.04 -0.00   
      2   C                0.01  0.00 -0.00    0.05  0.01 -0.00   -0.04 -0.01  0.00   
      3   C               -0.03  0.03 -0.00    0.02 -0.02  0.00    0.03 -0.03  0.00   
      4   H               -0.10 -0.26  0.46   -0.04 -0.11  0.19   -0.08 -0.20  0.35   
      5   H               -0.10 -0.26 -0.46   -0.04 -0.11 -0.19   -0.08 -0.20 -0.35   
      6   H               -0.04 -0.01  0.07   -0.29 -0.04  0.49    0.21  0.03 -0.35   
      7   H               -0.04 -0.01 -0.07   -0.29 -0.04 -0.49    0.21  0.03  0.35   
      8   H                0.15 -0.19 -0.39   -0.11  0.14  0.30   -0.13  0.17  0.35   
      9   H                0.15 -0.19  0.39   -0.11  0.14 -0.30   -0.13  0.17 -0.35   

  Vibration                       25                  26                  27          
  Freq [cm^-1]                3221.4359           3221.4497           3245.4299       
  Irrep                          App                 App                 App          
  Reduced mass [u]              1.1215              1.1215              1.1162        
  Force const [mDyne/A]         6.8569              6.8570              6.9268        
  Turning point v=0 [a0]        0.1826              0.1826              0.1823        
  RMS dev v=0 [a0 u^1/2]        0.1367              0.1367              0.1362        
  IR activ [km/mol]             0.0000              0.0000             56.7696        
  Char temp [K]               4634.9290           4634.9489           4669.4510       
  ----------------------------------------------------------------------------------
      1   C               -0.00 -0.00  0.02   -0.00 -0.00 -0.08    0.00  0.00 -0.06   
      2   C               -0.00 -0.00 -0.08    0.00  0.00  0.03   -0.00 -0.00 -0.06   
      3   C               -0.00  0.00  0.06   -0.00  0.00  0.06   -0.00 -0.00 -0.06   
      4   H                0.02  0.06 -0.10   -0.11 -0.28  0.47   -0.08 -0.21  0.34   
      5   H               -0.02 -0.06 -0.10    0.11  0.28  0.47    0.08  0.21  0.34   
      6   H               -0.29 -0.04  0.46    0.10  0.01 -0.15   -0.22 -0.03  0.34   
      7   H                0.29  0.04  0.46   -0.10 -0.01 -0.15    0.22  0.03  0.34   
      8   H                0.14 -0.18 -0.36    0.13 -0.16 -0.32   -0.14  0.17  0.34   
      9   H               -0.14  0.18 -0.36   -0.13  0.16 -0.32    0.14 -0.17  0.34   

  ==> Thermochemistry Components <==

  Entropy, S
    Electronic S            0.000 [cal/(mol K)]        0.000 [J/(mol K)]       0.00000000 [mEh/K] (multiplicity = 1)
    Translational S        37.135 [cal/(mol K)]      155.375 [J/(mol K)]       0.05917914 [mEh/K] (mol. weight = 42.0470 [u], P = 101325.00 [Pa])
    Rotational S           21.699 [cal/(mol K)]       90.789 [J/(mol K)]       0.03457982 [mEh/K] (symmetry no. = 1)
    Vibrational S           0.889 [cal/(mol K)]        3.720 [J/(mol K)]       0.00141703 [mEh/K]
  Total S                  59.724 [cal/(mol K)]      249.885 [J/(mol K)]       0.09517599 [mEh/K]
  Correction S              0.000 [cal/(mol K)]        0.000 [J/(mol K)]       0.00000000 [mEh/K]

  Constant volume heat capacity, Cv
    Electronic Cv           0.000 [cal/(mol K)]        0.000 [J/(mol K)]       0.00000000 [mEh/K]
    Translational Cv        2.981 [cal/(mol K)]       12.472 [J/(mol K)]       0.00475022 [mEh/K]
    Rotational Cv           2.981 [cal/(mol K)]       12.472 [J/(mol K)]       0.00475022 [mEh/K]
    Vibrational Cv          3.650 [cal/(mol K)]       15.273 [J/(mol K)]       0.00581736 [mEh/K]
  Total Cv                  9.612 [cal/(mol K)]       40.217 [J/(mol K)]       0.01531779 [mEh/K]
  Correction Cv             0.000 [cal/(mol K)]        0.000 [J/(mol K)]       0.00000000 [mEh/K]

  Constant pressure heat capacity, Cp
    Electronic Cp           0.000 [cal/(mol K)]        0.000 [J/(mol K)]       0.00000000 [mEh/K]
    Translational Cp        4.968 [cal/(mol K)]       20.786 [J/(mol K)]       0.00791703 [mEh/K]
    Rotational Cp           2.981 [cal/(mol K)]       12.472 [J/(mol K)]       0.00475022 [mEh/K]
    Vibrational Cp          3.650 [cal/(mol K)]       15.273 [J/(mol K)]       0.00581736 [mEh/K]
  Total Cp                 11.599 [cal/(mol K)]       48.531 [J/(mol K)]       0.01848460 [mEh/K]
  Correction Cp             0.000 [cal/(mol K)]        0.000 [J/(mol K)]       0.00000000 [mEh/K]

  ==> Thermochemistry Energy Analysis <==

  Raw electronic energy, E0
  Total E0, Electronic energy at well bottom at 0 [K]                 -117.05925754 [Eh]

  Zero-point energy, ZPE_vib = Sum_i nu_i / 2
    Electronic ZPE          0.000 [kcal/mol]        0.000 [kJ/mol]       0.00000000 [Eh]
    Translational ZPE       0.000 [kcal/mol]        0.000 [kJ/mol]       0.00000000 [Eh]
    Rotational ZPE          0.000 [kcal/mol]        0.000 [kJ/mol]       0.00000000 [Eh]
    Vibrational ZPE        53.784 [kcal/mol]      225.033 [kJ/mol]       0.08571071 [Eh]       18811.328 [cm^-1]
  Correction ZPE           53.784 [kcal/mol]      225.033 [kJ/mol]       0.08571071 [Eh]       18811.328 [cm^-1]
  Total ZPE, Electronic energy at 0 [K]                               -116.97354682 [Eh]

  Thermal Energy, E (includes ZPE)
    Electronic E            0.000 [kcal/mol]        0.000 [kJ/mol]       0.00000000 [Eh]
    Translational E         0.889 [kcal/mol]        3.718 [kJ/mol]       0.00141628 [Eh]
    Rotational E            0.889 [kcal/mol]        3.718 [kJ/mol]       0.00141628 [Eh]
    Vibrational E          54.004 [kcal/mol]      225.952 [kJ/mol]       0.08606046 [Eh]
  Correction E             55.781 [kcal/mol]      233.389 [kJ/mol]       0.08889301 [Eh]
  Total E, Electronic energy at  298.15 [K]                           -116.97036453 [Eh]

  Enthalpy, H_trans = E_trans + k_B * T
    Electronic H            0.000 [kcal/mol]        0.000 [kJ/mol]       0.00000000 [Eh]
    Translational H         1.481 [kcal/mol]        6.197 [kJ/mol]       0.00236046 [Eh]
    Rotational H            0.889 [kcal/mol]        3.718 [kJ/mol]       0.00141628 [Eh]
    Vibrational H          54.004 [kcal/mol]      225.952 [kJ/mol]       0.08606046 [Eh]
  Correction H             56.374 [kcal/mol]      235.868 [kJ/mol]       0.08983720 [Eh]
  Total H, Enthalpy at  298.15 [K]                                    -116.96942034 [Eh]

  Gibbs free energy, G = H - T * S
    Electronic G            0.000 [kcal/mol]        0.000 [kJ/mol]       0.00000000 [Eh]
    Translational G        -9.591 [kcal/mol]      -40.128 [kJ/mol]      -0.01528380 [Eh]
    Rotational G           -5.581 [kcal/mol]      -23.350 [kJ/mol]      -0.00889370 [Eh]
    Vibrational G          53.739 [kcal/mol]      224.842 [kJ/mol]       0.08563797 [Eh]
  Correction G             38.567 [kcal/mol]      161.364 [kJ/mol]       0.06146048 [Eh]
  Total G, Free enthalpy at  298.15 [K]                               -116.99779706 [Eh]

    Psi4 stopped on: Tuesday, 19 April 2022 09:57PM
    Psi4 wall time for execution: 0:22:43.82

*** Psi4 exiting successfully. Buy a developer a beer!
