
    -----------------------------------------------------------------------
          Psi4: An Open-Source Ab Initio Electronic Structure Package
                               Psi4 1.3.2 release

                         Git: Rev {HEAD} ecbda83 


    R. M. Parrish, L. A. Burns, D. G. A. Smith, A. C. Simmonett,
    A. E. DePrince III, E. G. Hohenstein, U. Bozkaya, A. Yu. Sokolov,
    R. Di Remigio, R. M. Richard, J. F. Gonthier, A. M. James,
    H. R. McAlexander, A. Kumar, M. Saitow, X. Wang, B. P. Pritchard,
    P. Verma, H. F. Schaefer III, K. Patkowski, R. A. King, E. F. Valeev,
    F. A. Evangelista, J. M. Turney, T. D. Crawford, and C. D. Sherrill,
    J. Chem. Theory Comput. 13(7) pp 3185--3197 (2017).
    (doi: 10.1021/acs.jctc.7b00174)


                         Additional Contributions by
    P. Kraus, H. Kruse, M. H. Lechner, M. C. Schieber, R. A. Shaw,
    A. Alenaizan, R. Galvelis, Z. L. Glick, S. Lehtola, and J. P. Misiewicz

    -----------------------------------------------------------------------


    Psi4 started on: Tuesday, 19 April 2022 12:19AM

    Process ID: 25380
    Host:       atlantis
    PSIDATADIR: /home/akrom/software/anaconda3/envs/ffpenv/share/psi4
    Memory:     500.0 MiB
    Threads:    1
    
  ==> Input File <==

--------------------------------------------------------------------------
set basis  6-31+G*
molecule {
0 1
   O        0.00000        0.00000       -0.06797
   H        0.74903        0.00000        0.53936
   H       -0.74903        0.00000        0.53936
}
energy('CCSD')
frequencies('CCSD')


--------------------------------------------------------------------------

*** tstart() called on atlantis
*** at Tue Apr 19 00:19:47 2022

   => Loading Basis Set <=

    Name: 6-31+G*
    Role: ORBITAL
    Keyword: BASIS
    atoms 1   entry O          line   157 file /home/akrom/software/anaconda3/envs/ffpenv/share/psi4/basis/6-31pgs.gbs 
    atoms 2-3 entry H          line    46 file /home/akrom/software/anaconda3/envs/ffpenv/share/psi4/basis/6-31pgs.gbs 


         ---------------------------------------------------------
                                   SCF
               by Justin Turney, Rob Parrish, Andy Simmonett
                          and Daniel G. A. Smith
                              RHF Reference
                        1 Threads,    500 MiB Core
         ---------------------------------------------------------

  ==> Geometry <==

    Molecular point group: c2v
    Full point group: C2v

    Geometry (in Angstrom), charge = 0, multiplicity = 1:

       Center              X                  Y                   Z               Mass       
    ------------   -----------------  -----------------  -----------------  -----------------
         O            0.000000000000     0.000000000000    -0.067969259994    15.994914619570
         H            0.749030000000     0.000000000000     0.539360740006     1.007825032230
         H           -0.749030000000    -0.000000000000     0.539360740006     1.007825032230

  Running in c2v symmetry.

  Rotational constants: A =     25.53156  B =     14.90675  C =      9.41168 [cm^-1]
  Rotational constants: A = 765416.81232  B = 446893.08836  C = 282155.15104 [MHz]
  Nuclear repulsion =    9.133433460995141

  Charge       = 0
  Multiplicity = 1
  Electrons    = 10
  Nalpha       = 5
  Nbeta        = 5

  ==> Algorithm <==

  SCF Algorithm Type is PK.
  DIIS enabled.
  MOM disabled.
  Fractional occupation disabled.
  Guess Type is SAD.
  Energy threshold   = 1.00e-08
  Density threshold  = 1.00e-08
  Integral threshold = 0.00e+00

  ==> Primary Basis <==

  Basis Set: 6-31+G*
    Blend: 6-31+G*
    Number of shells: 12
    Number of basis function: 23
    Number of Cartesian functions: 23
    Spherical Harmonics?: false
    Max angular momentum: 2

  ==> Pre-Iterations <==

   -------------------------------------------------------
    Irrep   Nso     Nmo     Nalpha   Nbeta   Ndocc  Nsocc
   -------------------------------------------------------
     A1        12      12       0       0       0       0
     A2         1       1       0       0       0       0
     B1         6       6       0       0       0       0
     B2         4       4       0       0       0       0
   -------------------------------------------------------
    Total      23      23       5       5       5       0
   -------------------------------------------------------

  ==> Integral Setup <==

  Using in-core PK algorithm.
   Calculation information:
      Number of atoms:                   3
      Number of AO shells:              12
      Number of primitives:             25
      Number of atomic orbitals:        23
      Number of basis functions:        23

      Integral cutoff                 1.00e-12
      Number of threads:                 1

  Performing in-core PK
  Using 76452 doubles for integral storage.
  We computed 3081 shell quartets total.
  Whereas there are 3081 unique shell quartets.

  ==> DiskJK: Disk-Based J/K Matrices <==

    J tasked:                  Yes
    K tasked:                  Yes
    wK tasked:                  No
    Memory [MiB]:              375
    Schwarz Cutoff:          1E-12

    OpenMP threads:              1

  Minimum eigenvalue in the overlap matrix is 1.7438801318E-02.
  Using Symmetric Orthogonalization.

  SCF Guess: Superposition of Atomic Densities via on-the-fly atomic UHF.

  ==> Iterations <==

                        Total Energy        Delta E     RMS |[F,P]|

   @RHF iter SAD:   -75.51796486449169   -7.55180e+01   0.00000e+00 
   @RHF iter   1:   -75.94139223206481   -4.23427e-01   3.01054e-02 DIIS
   @RHF iter   2:   -75.99183446654661   -5.04422e-02   1.91510e-02 DIIS
   @RHF iter   3:   -76.01632808459992   -2.44936e-02   1.53642e-03 DIIS
   @RHF iter   4:   -76.01666821202262   -3.40127e-04   3.46293e-04 DIIS
   @RHF iter   5:   -76.01668698181521   -1.87698e-05   6.07794e-05 DIIS
   @RHF iter   6:   -76.01668794581711   -9.64002e-07   1.31491e-05 DIIS
   @RHF iter   7:   -76.01668799918532   -5.33682e-08   1.66262e-06 DIIS
   @RHF iter   8:   -76.01668799988474   -6.99416e-10   2.93944e-07 DIIS
   @RHF iter   9:   -76.01668799990661   -2.18705e-11   7.56592e-08 DIIS
   @RHF iter  10:   -76.01668799990790   -1.29319e-12   9.24139e-09 DIIS
  Energy and wave function converged.


  ==> Post-Iterations <==

    Orbital Energies [Eh]
    ---------------------

    Doubly Occupied:                                                      

       1A1   -20.583425     2A1    -1.355673     1B1    -0.713527  
       3A1    -0.588781     1B2    -0.509540  

    Virtual:                                                              

       4A1     0.144391     2B1     0.222216     5A1     0.250839  
       2B2     0.252627     3B1     0.346461     6A1     0.389059  
       4B1     1.213998     7A1     1.338358     5B1     1.393856  
       3B2     1.403998     8A1     1.422895     9A1     1.489969  
      10A1     2.001212     1A2     2.022977     4B2     2.052120  
      11A1     2.611156     6B1     2.999486    12A1     4.101472  

    Final Occupation by Irrep:
             A1    A2    B1    B2 
    DOCC [     3,    0,    1,    1 ]

  @RHF Final Energy:   -76.01668799990790

   => Energetics <=

    Nuclear Repulsion Energy =              9.1334334609951409
    One-Electron Energy =                -122.7983504584974810
    Two-Electron Energy =                  37.6482289975944440
    Total Energy =                        -76.0166879999079015

Computation Completed


Properties will be evaluated at   0.000000,   0.000000,   0.000000 [a0]

Properties computed using the SCF density matrix

  Nuclear Dipole Moment: [e a0]
     X:     0.0000      Y:     0.0000      Z:     1.0109

  Electronic Dipole Moment: [e a0]
     X:     0.0000      Y:     0.0000      Z:    -0.0725

  Dipole Moment: [e a0]
     X:     0.0000      Y:     0.0000      Z:     0.9384     Total:     0.9384

  Dipole Moment: [D]
     X:     0.0000      Y:     0.0000      Z:     2.3852     Total:     2.3852


*** tstop() called on atlantis at Tue Apr 19 00:19:47 2022
Module time:
	user time   =       0.22 seconds =       0.00 minutes
	system time =       0.01 seconds =       0.00 minutes
	total time  =          0 seconds =       0.00 minutes
Total time:
	user time   =       0.22 seconds =       0.00 minutes
	system time =       0.01 seconds =       0.00 minutes
	total time  =          0 seconds =       0.00 minutes
 MINTS: Wrapper to libmints.
   by Justin Turney

   Calculation information:
      Number of threads:                 1
      Number of atoms:                   3
      Number of AO shells:              12
      Number of SO shells:              10
      Number of primitives:             25
      Number of atomic orbitals:        23
      Number of basis functions:        23

      Number of irreps:                  4
      Integral cutoff                 0.00e+00
      Number of functions per irrep: [  12    1    6    4 ]

 OEINTS: Overlap, kinetic, potential, dipole, and quadrupole integrals
         stored in file 35.

      Computing two-electron integrals...done
      Computed 8788 non-zero two-electron integrals.
        Stored in file 33.


*** tstart() called on atlantis
*** at Tue Apr 19 00:19:47 2022


	Wfn Parameters:
	--------------------
	Wavefunction         = CCSD
	Number of irreps     = 4
	Number of MOs        = 23
	Number of active MOs = 23
	AO-Basis             = NONE
	Semicanonical        = false
	Reference            = RHF
	Print Level          = 1

	IRREP	# MOs	# FZDC	# DOCC	# SOCC	# VIRT	# FZVR
	-----	-----	------	------	------	------	------
	 A1	   12	    0	    3	    0	    9	    0
	 A2	   1	    0	    0	    0	    1	    0
	 B1	   6	    0	    1	    0	    5	    0
	 B2	   4	    0	    1	    0	    3	    0
	Transforming integrals...
	IWL integrals will be deleted.
	(OO|OO)...
	Presorting SO-basis two-electron integrals.
	Sorting File: SO Ints (nn|nn) nbuckets = 1
	Transforming the one-electron integrals and constructing Fock matrices
	Starting first half-transformation.
	Sorting half-transformed integrals.
	First half integral transformation complete.
	Starting second half-transformation.
	Two-electron integral transformation complete.
	(OO|OV)...
	Starting second half-transformation.
	Two-electron integral transformation complete.
	(OO|VV)...
	Starting second half-transformation.
	Two-electron integral transformation complete.
	(OV|OO)...
	Starting first half-transformation.
	Sorting half-transformed integrals.
	First half integral transformation complete.
	Starting second half-transformation.
	Two-electron integral transformation complete.
	(OV|OV)...
	Starting second half-transformation.
	Two-electron integral transformation complete.
	(OV|VV)...
	Starting second half-transformation.
	Two-electron integral transformation complete.
	(VV|OO)...
	Starting first half-transformation.
	Sorting half-transformed integrals.
	First half integral transformation complete.
	Starting second half-transformation.
	Two-electron integral transformation complete.
	(VV|OV)...
	Starting second half-transformation.
	Two-electron integral transformation complete.
	(VV|VV)...
	Starting second half-transformation.
	Two-electron integral transformation complete.
	Frozen core energy     =      0.00000000000000

	Size of irrep 0 of <ab|cd> integrals:      0.013 (MW) /      0.108 (MB)
	Size of irrep 1 of <ab|cd> integrals:      0.002 (MW) /      0.018 (MB)
	Size of irrep 2 of <ab|cd> integrals:      0.009 (MW) /      0.074 (MB)
	Size of irrep 3 of <ab|cd> integrals:      0.004 (MW) /      0.033 (MB)
	Total:                                     0.029 (MW) /      0.233 (MB)

	Size of irrep 0 of <ia|bc> integrals:      0.004 (MW) /      0.032 (MB)
	Size of irrep 1 of <ia|bc> integrals:      0.001 (MW) /      0.004 (MB)
	Size of irrep 2 of <ia|bc> integrals:      0.002 (MW) /      0.019 (MB)
	Size of irrep 3 of <ia|bc> integrals:      0.001 (MW) /      0.010 (MB)
	Total:                                     0.008 (MW) /      0.066 (MB)

	Size of irrep 0 of tijab amplitudes:       0.001 (MW) /      0.010 (MB)
	Size of irrep 1 of tijab amplitudes:       0.000 (MW) /      0.001 (MB)
	Size of irrep 2 of tijab amplitudes:       0.001 (MW) /      0.005 (MB)
	Size of irrep 3 of tijab amplitudes:       0.000 (MW) /      0.003 (MB)
	Total:                                     0.002 (MW) /      0.019 (MB)

	Nuclear Rep. energy          =      9.13343346099514
	SCF energy                   =    -76.01668799990790
	One-electron energy          =   -122.79835037671089
	Two-electron energy          =     37.64822891580784
	Reference energy             =    -76.01668799990792

*** tstop() called on atlantis at Tue Apr 19 00:19:47 2022
Module time:
	user time   =       0.00 seconds =       0.00 minutes
	system time =       0.02 seconds =       0.00 minutes
	total time  =          0 seconds =       0.00 minutes
Total time:
	user time   =       0.24 seconds =       0.00 minutes
	system time =       0.03 seconds =       0.00 minutes
	total time  =          0 seconds =       0.00 minutes
            **************************
            *                        *
            *        CCENERGY        *
            *                        *
            **************************

    Nuclear Rep. energy (wfn)     =    9.133433460995141
    SCF energy          (wfn)     =  -76.016687999907901
    Reference energy    (file100) =  -76.016687999907916

    Input parameters:
    -----------------
    Wave function   =     CCSD
    Reference wfn   =     RHF
    Brueckner       =     No
    Memory (Mbytes) =     524.3
    Maxiter         =     50
    R_Convergence   =     1.0e-07
    E_Convergence   =     1.0e-06
    Restart         =     Yes
    DIIS            =     Yes
    AO Basis        =     NONE
    ABCD            =     NEW
    Cache Level     =     2
    Cache Type      =     LOW
    Print Level     =     1
    Num. of threads =     1
    # Amps to Print =     10
    Print MP2 Amps? =     No
    Analyze T2 Amps =     No
    Print Pair Ener =     No
    Local CC        =     No
    SCS-MP2         =     False
    SCSN-MP2        =     False
    SCS-CCSD        =     False

MP2 correlation energy -0.1951494082368476
                Solving CC Amplitude Equations
                ------------------------------
  Iter             Energy              RMS        T1Diag      D1Diag    New D1Diag    D2Diag
  ----     ---------------------    ---------   ----------  ----------  ----------   --------
     0        -0.195149408236848    0.000e+00    0.000000    0.000000    0.000000    0.108915
     1        -0.197696057592286    3.563e-02    0.007988    0.018827    0.018827    0.115655
     2        -0.201804620730651    1.225e-02    0.008479    0.020118    0.020118    0.120939
     3        -0.203013082402617    4.988e-03    0.009879    0.023907    0.023907    0.123424
     4        -0.202963202206990    8.943e-04    0.010023    0.024394    0.024394    0.123575
     5        -0.202979494089869    2.570e-04    0.010080    0.024614    0.024614    0.123607
     6        -0.202979378234684    5.771e-05    0.010091    0.024664    0.024664    0.123596
     7        -0.202978046050500    1.455e-05    0.010093    0.024674    0.024674    0.123591
     8        -0.202978090713188    4.091e-06    0.010094    0.024678    0.024678    0.123590
     9        -0.202978024815588    8.921e-07    0.010094    0.024678    0.024678    0.123590
    10        -0.202978022263282    2.498e-07    0.010094    0.024678    0.024678    0.123590
    11        -0.202978025224188    8.548e-08    0.010094    0.024678    0.024678    0.123590

    Iterations converged.


    Largest TIA Amplitudes:
              4  15        -0.0245893703
              2   1        -0.0121019731
              3  13         0.0068671918
              2   2         0.0067661709
              2   0         0.0059135579
              1   1        -0.0053931918
              3  14         0.0038087019
              1   4        -0.0037609048
              3  10        -0.0036336533
              3  12         0.0036245433

    Largest TIjAb Amplitudes:
      4   4  16  16        -0.0388493262
      3   3  11  11        -0.0329542089
      2   2   4   4        -0.0280964638
      3   3  12  12        -0.0269510395
      4   4  15  15        -0.0262403001
      4   4  15  16        -0.0252609819
      4   4  16  15        -0.0252609819
      3   3  13  13        -0.0232181426
      3   3  11  12        -0.0228155387
      3   3  12  11        -0.0228155387

    SCF energy       (wfn)                    =  -76.016687999907901
    Reference energy (file100)                =  -76.016687999907916

    Opposite-spin MP2 correlation energy      =   -0.144910723746983
    Same-spin MP2 correlation energy          =   -0.050238684489865
    MP2 correlation energy                    =   -0.195149408236848
      * MP2 total energy                      =  -76.211837408144760

    Opposite-spin CCSD correlation energy     =   -0.159230237567477
    Same-spin CCSD correlation energy         =   -0.043747787656711
    CCSD correlation energy                   =   -0.202978025224188
      * CCSD total energy                     =  -76.219666025132099

gradient() will perform analytic gradient computation.

*** tstart() called on atlantis
*** at Tue Apr 19 00:19:47 2022

   => Loading Basis Set <=

    Name: 6-31+G*
    Role: ORBITAL
    Keyword: BASIS
    atoms 1   entry O          line   157 file /home/akrom/software/anaconda3/envs/ffpenv/share/psi4/basis/6-31pgs.gbs 
    atoms 2-3 entry H          line    46 file /home/akrom/software/anaconda3/envs/ffpenv/share/psi4/basis/6-31pgs.gbs 


         ---------------------------------------------------------
                                   SCF
               by Justin Turney, Rob Parrish, Andy Simmonett
                          and Daniel G. A. Smith
                              RHF Reference
                        1 Threads,    500 MiB Core
         ---------------------------------------------------------

  ==> Geometry <==

    Molecular point group: c2v
    Full point group: C2v

    Geometry (in Angstrom), charge = 0, multiplicity = 1:

       Center              X                  Y                   Z               Mass       
    ------------   -----------------  -----------------  -----------------  -----------------
         O            0.000000000000     0.000000000000    -0.067969259994    15.994914619570
         H            0.749030000000     0.000000000000     0.539360740006     1.007825032230
         H           -0.749030000000    -0.000000000000     0.539360740006     1.007825032230

  Running in c2v symmetry.

  Rotational constants: A =     25.53156  B =     14.90675  C =      9.41168 [cm^-1]
  Rotational constants: A = 765416.81232  B = 446893.08836  C = 282155.15104 [MHz]
  Nuclear repulsion =    9.133433460995141

  Charge       = 0
  Multiplicity = 1
  Electrons    = 10
  Nalpha       = 5
  Nbeta        = 5

  ==> Algorithm <==

  SCF Algorithm Type is PK.
  DIIS enabled.
  MOM disabled.
  Fractional occupation disabled.
  Guess Type is SAD.
  Energy threshold   = 1.00e-10
  Density threshold  = 1.00e-10
  Integral threshold = 0.00e+00

  ==> Primary Basis <==

  Basis Set: 6-31+G*
    Blend: 6-31+G*
    Number of shells: 12
    Number of basis function: 23
    Number of Cartesian functions: 23
    Spherical Harmonics?: false
    Max angular momentum: 2

  ==> Pre-Iterations <==

   -------------------------------------------------------
    Irrep   Nso     Nmo     Nalpha   Nbeta   Ndocc  Nsocc
   -------------------------------------------------------
     A1        12      12       0       0       0       0
     A2         1       1       0       0       0       0
     B1         6       6       0       0       0       0
     B2         4       4       0       0       0       0
   -------------------------------------------------------
    Total      23      23       5       5       5       0
   -------------------------------------------------------

  ==> Integral Setup <==

  Using in-core PK algorithm.
   Calculation information:
      Number of atoms:                   3
      Number of AO shells:              12
      Number of primitives:             25
      Number of atomic orbitals:        23
      Number of basis functions:        23

      Integral cutoff                 1.00e-12
      Number of threads:                 1

  Performing in-core PK
  Using 76452 doubles for integral storage.
  We computed 3081 shell quartets total.
  Whereas there are 3081 unique shell quartets.

  ==> DiskJK: Disk-Based J/K Matrices <==

    J tasked:                  Yes
    K tasked:                  Yes
    wK tasked:                  No
    Memory [MiB]:              375
    Schwarz Cutoff:          1E-12

    OpenMP threads:              1

  Minimum eigenvalue in the overlap matrix is 1.7438801318E-02.
  Using Symmetric Orthogonalization.

  SCF Guess: Superposition of Atomic Densities via on-the-fly atomic UHF.

  ==> Iterations <==

                        Total Energy        Delta E     RMS |[F,P]|

   @RHF iter SAD:   -75.51796486449169   -7.55180e+01   0.00000e+00 
   @RHF iter   1:   -75.94139223206481   -4.23427e-01   3.01054e-02 DIIS
   @RHF iter   2:   -75.99183446654661   -5.04422e-02   1.91510e-02 DIIS
   @RHF iter   3:   -76.01632808459992   -2.44936e-02   1.53642e-03 DIIS
   @RHF iter   4:   -76.01666821202262   -3.40127e-04   3.46293e-04 DIIS
   @RHF iter   5:   -76.01668698181521   -1.87698e-05   6.07794e-05 DIIS
   @RHF iter   6:   -76.01668794581711   -9.64002e-07   1.31491e-05 DIIS
   @RHF iter   7:   -76.01668799918532   -5.33682e-08   1.66262e-06 DIIS
   @RHF iter   8:   -76.01668799988474   -6.99416e-10   2.93944e-07 DIIS
   @RHF iter   9:   -76.01668799990661   -2.18705e-11   7.56592e-08 DIIS
   @RHF iter  10:   -76.01668799990790   -1.29319e-12   9.24139e-09 DIIS
   @RHF iter  11:   -76.01668799990796   -5.68434e-14   1.55826e-09 DIIS
   @RHF iter  12:   -76.01668799990797   -1.42109e-14   1.47160e-10 DIIS
   @RHF iter  13:   -76.01668799990793    4.26326e-14   2.63212e-11 DIIS
  Energy and wave function converged.


  ==> Post-Iterations <==

    Orbital Energies [Eh]
    ---------------------

    Doubly Occupied:                                                      

       1A1   -20.583425     2A1    -1.355673     1B1    -0.713527  
       3A1    -0.588781     1B2    -0.509540  

    Virtual:                                                              

       4A1     0.144391     2B1     0.222216     5A1     0.250839  
       2B2     0.252627     3B1     0.346461     6A1     0.389059  
       4B1     1.213998     7A1     1.338358     5B1     1.393856  
       3B2     1.403998     8A1     1.422895     9A1     1.489969  
      10A1     2.001212     1A2     2.022977     4B2     2.052120  
      11A1     2.611156     6B1     2.999486    12A1     4.101472  

    Final Occupation by Irrep:
             A1    A2    B1    B2 
    DOCC [     3,    0,    1,    1 ]

  @RHF Final Energy:   -76.01668799990793

   => Energetics <=

    Nuclear Repulsion Energy =              9.1334334609951409
    One-Electron Energy =                -122.7983503831412975
    Two-Electron Energy =                  37.6482289222382320
    Total Energy =                        -76.0166879999079299

Computation Completed


Properties will be evaluated at   0.000000,   0.000000,   0.000000 [a0]

Properties computed using the SCF density matrix

  Nuclear Dipole Moment: [e a0]
     X:     0.0000      Y:     0.0000      Z:     1.0109

  Electronic Dipole Moment: [e a0]
     X:     0.0000      Y:     0.0000      Z:    -0.0725

  Dipole Moment: [e a0]
     X:     0.0000      Y:     0.0000      Z:     0.9384     Total:     0.9384

  Dipole Moment: [D]
     X:     0.0000      Y:     0.0000      Z:     2.3852     Total:     2.3852


*** tstop() called on atlantis at Tue Apr 19 00:19:47 2022
Module time:
	user time   =       0.22 seconds =       0.00 minutes
	system time =       0.01 seconds =       0.00 minutes
	total time  =          0 seconds =       0.00 minutes
Total time:
	user time   =       0.50 seconds =       0.01 minutes
	system time =       0.07 seconds =       0.00 minutes
	total time  =          0 seconds =       0.00 minutes
 MINTS: Wrapper to libmints.
   by Justin Turney

   Calculation information:
      Number of threads:                 1
      Number of atoms:                   3
      Number of AO shells:              12
      Number of SO shells:              10
      Number of primitives:             25
      Number of atomic orbitals:        23
      Number of basis functions:        23

      Number of irreps:                  4
      Integral cutoff                 0.00e+00
      Number of functions per irrep: [  12    1    6    4 ]

 OEINTS: Overlap, kinetic, potential, dipole, and quadrupole integrals
         stored in file 35.

      Computing two-electron integrals...done
      Computed 8788 non-zero two-electron integrals.
        Stored in file 33.


*** tstart() called on atlantis
*** at Tue Apr 19 00:19:47 2022


	Wfn Parameters:
	--------------------
	Wavefunction         = CCSD
	Number of irreps     = 4
	Number of MOs        = 23
	Number of active MOs = 23
	AO-Basis             = NONE
	Semicanonical        = false
	Reference            = RHF
	Print Level          = 1

	IRREP	# MOs	# FZDC	# DOCC	# SOCC	# VIRT	# FZVR
	-----	-----	------	------	------	------	------
	 A1	   12	    0	    3	    0	    9	    0
	 A2	   1	    0	    0	    0	    1	    0
	 B1	   6	    0	    1	    0	    5	    0
	 B2	   4	    0	    1	    0	    3	    0
	Transforming integrals...
	IWL integrals will be deleted.
	(OO|OO)...
	Presorting SO-basis two-electron integrals.
	Sorting File: SO Ints (nn|nn) nbuckets = 1
	Transforming the one-electron integrals and constructing Fock matrices
	Starting first half-transformation.
	Sorting half-transformed integrals.
	First half integral transformation complete.
	Starting second half-transformation.
	Two-electron integral transformation complete.
	(OO|OV)...
	Starting second half-transformation.
	Two-electron integral transformation complete.
	(OO|VV)...
	Starting second half-transformation.
	Two-electron integral transformation complete.
	(OV|OO)...
	Starting first half-transformation.
	Sorting half-transformed integrals.
	First half integral transformation complete.
	Starting second half-transformation.
	Two-electron integral transformation complete.
	(OV|OV)...
	Starting second half-transformation.
	Two-electron integral transformation complete.
	(OV|VV)...
	Starting second half-transformation.
	Two-electron integral transformation complete.
	(VV|OO)...
	Starting first half-transformation.
	Sorting half-transformed integrals.
	First half integral transformation complete.
	Starting second half-transformation.
	Two-electron integral transformation complete.
	(VV|OV)...
	Starting second half-transformation.
	Two-electron integral transformation complete.
	(VV|VV)...
	Starting second half-transformation.
	Two-electron integral transformation complete.
	Frozen core energy     =      0.00000000000000

	Size of irrep 0 of <ab|cd> integrals:      0.013 (MW) /      0.108 (MB)
	Size of irrep 1 of <ab|cd> integrals:      0.002 (MW) /      0.018 (MB)
	Size of irrep 2 of <ab|cd> integrals:      0.009 (MW) /      0.074 (MB)
	Size of irrep 3 of <ab|cd> integrals:      0.004 (MW) /      0.033 (MB)
	Total:                                     0.029 (MW) /      0.233 (MB)

	Size of irrep 0 of <ia|bc> integrals:      0.004 (MW) /      0.032 (MB)
	Size of irrep 1 of <ia|bc> integrals:      0.001 (MW) /      0.004 (MB)
	Size of irrep 2 of <ia|bc> integrals:      0.002 (MW) /      0.019 (MB)
	Size of irrep 3 of <ia|bc> integrals:      0.001 (MW) /      0.010 (MB)
	Total:                                     0.008 (MW) /      0.066 (MB)

	Size of irrep 0 of tijab amplitudes:       0.001 (MW) /      0.010 (MB)
	Size of irrep 1 of tijab amplitudes:       0.000 (MW) /      0.001 (MB)
	Size of irrep 2 of tijab amplitudes:       0.001 (MW) /      0.005 (MB)
	Size of irrep 3 of tijab amplitudes:       0.000 (MW) /      0.003 (MB)
	Total:                                     0.002 (MW) /      0.019 (MB)

	Nuclear Rep. energy          =      9.13343346099514
	SCF energy                   =    -76.01668799990793
	One-electron energy          =   -122.79835038355300
	Two-electron energy          =     37.64822892264991
	Reference energy             =    -76.01668799990796

*** tstop() called on atlantis at Tue Apr 19 00:19:47 2022
Module time:
	user time   =       0.01 seconds =       0.00 minutes
	system time =       0.00 seconds =       0.00 minutes
	total time  =          0 seconds =       0.00 minutes
Total time:
	user time   =       0.52 seconds =       0.01 minutes
	system time =       0.07 seconds =       0.00 minutes
	total time  =          0 seconds =       0.00 minutes
            **************************
            *                        *
            *        CCENERGY        *
            *                        *
            **************************

    Nuclear Rep. energy (wfn)     =    9.133433460995141
    SCF energy          (wfn)     =  -76.016687999907930
    Reference energy    (file100) =  -76.016687999907958

    Input parameters:
    -----------------
    Wave function   =     CCSD
    Reference wfn   =     RHF
    Brueckner       =     No
    Memory (Mbytes) =     524.3
    Maxiter         =     50
    R_Convergence   =     1.0e-07
    E_Convergence   =     1.0e-08
    Restart         =     Yes
    DIIS            =     Yes
    AO Basis        =     NONE
    ABCD            =     NEW
    Cache Level     =     2
    Cache Type      =     LOW
    Print Level     =     1
    Num. of threads =     1
    # Amps to Print =     10
    Print MP2 Amps? =     No
    Analyze T2 Amps =     No
    Print Pair Ener =     No
    Local CC        =     No
    SCS-MP2         =     False
    SCSN-MP2        =     False
    SCS-CCSD        =     False

    Using old T1 amplitudes.
    Using old T2 amplitudes.

MP2 correlation energy -0.1951494084391484
                Solving CC Amplitude Equations
                ------------------------------
  Iter             Energy              RMS        T1Diag      D1Diag    New D1Diag    D2Diag
  ----     ---------------------    ---------   ----------  ----------  ----------   --------
     0        -0.202978025246588    0.000e+00    0.010094    0.024678    0.024678    0.123590
     1        -0.202978026692924    4.467e-08    0.010094    0.024678    0.024678    0.123590
     2        -0.202978026845027    2.607e-08    0.010094    0.024678    0.024678    0.123590

    Iterations converged.


    Largest TIA Amplitudes:
              4  15        -0.0245893582
              2   1        -0.0121019573
              3  13         0.0068671919
              2   2         0.0067661871
              2   0         0.0059136074
              1   1        -0.0053931886
              3  14         0.0038087024
              1   4        -0.0037609056
              3  10        -0.0036336545
              3  12         0.0036245447

    Largest TIjAb Amplitudes:
      4   4  16  16        -0.0388493267
      3   3  11  11        -0.0329542096
      2   2   4   4        -0.0280964628
      3   3  12  12        -0.0269510392
      4   4  15  15        -0.0262402977
      4   4  15  16        -0.0252609814
      4   4  16  15        -0.0252609814
      3   3  13  13        -0.0232181420
      3   3  11  12        -0.0228155386
      3   3  12  11        -0.0228155386

    SCF energy       (wfn)                    =  -76.016687999907930
    Reference energy (file100)                =  -76.016687999907958

    Opposite-spin MP2 correlation energy      =   -0.144910723816533
    Same-spin MP2 correlation energy          =   -0.050238684622615
    MP2 correlation energy                    =   -0.195149408439148
      * MP2 total energy                      =  -76.211837408347108

    Opposite-spin CCSD correlation energy     =   -0.159230239563676
    Same-spin CCSD correlation energy         =   -0.043747787281351
    CCSD correlation energy                   =   -0.202978026845027
      * CCSD total energy                     =  -76.219666026752989


			**************************
			*                        *
			*         CCHBAR         *
			*                        *
			**************************


			**************************
			*        CCLAMBDA        *
			**************************


	Nuclear Rep. energy (wfn)     =    9.133433460995141
	Reference           (wfn)     =                    0
	SCF energy          (wfn)     =  -76.016687999907930
	Reference energy    (CC_INFO) =  -76.016687999907958
	CCSD energy         (CC_INFO) =   -0.202978026845027
	Total CCSD energy   (CC_INFO) =  -76.219666026752989

	Input parameters:
	-----------------
	Maxiter           =     50
	Convergence       = 1.0e-07
	Restart           =     No
	Cache Level       =     2
	Model III         =     No
	DIIS              =     Yes
	AO Basis          =     No
	ABCD              =     NEW
	Local CC          =     No
	Parameters for left-handed eigenvectors:
	    Irr   Root  Ground-State?    EOM energy        R0
	  1   0     0        Yes       0.0000000000   1.0000000000
	Labels for eigenvector 1:
	LIA 0 -1, Lia 0 -1, LIJAB 0 -1, Lijab 0 -1, LIjAb 0 -1, 2LIjAb - LIjbA 0 -1
	Symmetry of left-hand state: A1
	Symmetry of left-hand eigenvector: A1

	          Solving Lambda Equations
	          ------------------------
	Iter     PseudoEnergy or Norm         RMS  
	----     ---------------------     --------
	   0        -0.203034943435491    0.000e+00
	   1        -0.200785165135219    1.331e-02
	   2        -0.200208376311355    2.494e-03
	   3        -0.200067514581244    1.414e-03
	   4        -0.200055142395240    2.955e-04
	   5        -0.200061403335547    7.481e-05
	   6        -0.200061158066868    2.034e-05
	   7        -0.200060798597076    4.703e-06
	   8        -0.200060827056626    1.447e-06
	   9        -0.200060832510904    4.394e-07
	  10        -0.200060837543435    1.184e-07
	  11        -0.200060837393740    3.325e-08

	Largest LIA Amplitudes:
	          4  15        -0.0166179365
	          2   1        -0.0072617303
	          3  13         0.0070120471
	          2   2         0.0042535866
	          1   1        -0.0039068630
	          3  14         0.0033998861
	          1   4        -0.0032320896
	          2   4         0.0029556942
	          2   0         0.0029484260
	          2   7         0.0027968273

	Largest LIjAb Amplitudes:
	  4   4  16  16        -0.0386458661
	  3   3  11  11        -0.0321946418
	  2   2   4   4        -0.0278378950
	  3   3  12  12        -0.0263742045
	  4   4  15  15        -0.0252167496
	  4   4  15  16        -0.0249360552
	  4   4  16  15        -0.0249360552
	  3   3  13  13        -0.0230272096
	  3   3  11  12        -0.0223978618
	  3   3  12  11        -0.0223978618

	Iterations converged.

	Overlap <L|e^T> =        0.94007689979

			**************************
			*                        *
			*        CCDENSITY       *
			*                        *
			**************************


	Input parameters:
	-----------------
	Wave function    =   CCSD
	Reference wfn    =   RHF
	Dertype          = 1
	Tolerance        = 1.0e-14
	Cache Level      = 2
	AO Basis         = No
	OPDM Only        = No
	Relax OPDM       = Yes
	Compute Xi       = No
	Use Zeta         = No
	Xi connected     = Yes
	Compute NO       = No

	Nuclear Rep. energy (wfn)     =    9.133433460995141
	SCF energy          (wfn)     =  -76.016687999907930
	Reference energy    (file100) =  -76.016687999907958
	CCSD energy         (CC_INFO) =   -0.202978026845027
	Total CCSD energy   (CC_INFO) =  -76.219666026752989
	Number of States = 1

	Ground?  State     EOM Energy       R0
	  Yes     0 A1    0.0000000000   1.00000000

	Virial Theorem Data:
	--------------------
	Kinetic energy (ref)   =   75.733410027880780
	Kinetic energy (corr)  =    0.128155748654232
	Kinetic energy (total) =   75.861565776535016
	-V/T (ref)             =    2.003740462392000
	-V/T (corr)            =    2.583838641469516
	-V/T (total)           =    2.004720443699683
  Cartesian Displacement SALCs
  By SALC:
  Number of SALCs: 3, nirreps: A1
  Project out translations: False
  Project out rotations: False
	irrep = 0, ncomponent = 1
		0: atom 0, direction z, coef 1.000000
	irrep = 0, ncomponent = 2
		0: atom 1, direction x, coef 0.707107
		1: atom 2, direction x, coef -0.707107
	irrep = 0, ncomponent = 2
		0: atom 1, direction z, coef 0.707107
		1: atom 2, direction z, coef 0.707107

  By Atomic Center:
  Number of atomic centers: 3
   Atomic Center 0:
	x component, size = 0
	y component, size = 0
	z component, size = 1
		0: salc 0, irrep 0, coef 1.000000
   Atomic Center 1:
	x component, size = 1
		0: salc 1, irrep 0, coef 0.707107
	y component, size = 0
	z component, size = 1
		0: salc 2, irrep 0, coef 0.707107
   Atomic Center 2:
	x component, size = 1
		0: salc 1, irrep 0, coef -0.707107
	y component, size = 0
	z component, size = 1
		0: salc 2, irrep 0, coef 0.707107

    Molecular point group: c2v
    Full point group: C2v

    Geometry (in Bohr), charge = 0, multiplicity = 1:

       Center              X                  Y                   Z       
    ------------   -----------------  -----------------  -----------------
         O            0.000000000000     0.000000000000    -0.128443286339
         H            1.415461559752     0.000000000000     1.019244081436
         H           -1.415461559752    -0.000000000000     1.019244081436

	Presorting MO-basis TPDM.
	Sorting File: MO TPDM (AA|AA) nbuckets = 1
	Starting first half-transformation.
	Sorting half-transformed TPDM.
	First half integral transformation complete.


  -Nuclear Repulsion Energy 1st Derivatives:
     Atom            X                  Y                   Z
    ------   -----------------  -----------------  -----------------
       1        0.000000000000     0.000000000000     3.034559410088
       2       -1.996065495508    -0.000000000000    -1.517279705044
       3        1.996065495508     0.000000000000    -1.517279705044


  -Core Hamiltonian Gradient:
     Atom            X                  Y                   Z
    ------   -----------------  -----------------  -----------------
       1        0.000000000000    -0.000000000000    -5.984787347291
       2        3.837176135318     0.000000000000     2.992393673646
       3       -3.837176135318    -0.000000000000     2.992393673646


  -Lagrangian contribution to gradient:
     Atom            X                  Y                   Z
    ------   -----------------  -----------------  -----------------
       1        0.000000000000     0.000000000000     0.320313636907
       2       -0.176991813671    -0.000000000000    -0.160156818453
       3        0.176991813671     0.000000000000    -0.160156818453


  -Two-electron contribution to gradient:
     Atom            X                  Y                   Z
    ------   -----------------  -----------------  -----------------
       1        0.000000000000     0.000000000000     2.630480118207
       2       -1.674513170245    -0.000000000000    -1.315240059103
       3        1.674513170245     0.000000000000    -1.315240059103


  -Total gradient:
     Atom            X                  Y                   Z
    ------   -----------------  -----------------  -----------------
       1        0.000000000000    -0.000000000000     0.000565817911
       2       -0.010394344107    -0.000000000000    -0.000282908955
       3        0.010394344107     0.000000000000    -0.000282908955


  Based on options and gradient (rms=4.91E-03), recommend projecting translations and projecting rotations.
hessian() will perform frequency computation by finite difference of analytic gradients.

         ----------------------------------------------------------
                                   FINDIF
                     R. A. King and Jonathon Misiewicz
         ---------------------------------------------------------

  Using finite-differences of gradients to determine vibrational frequencies and 
  normal modes.  Resulting frequencies are only valid at stationary points.
    Generating geometries for use with 3-point formula.
    Displacement size will be 5.00e-03.
    Number of atoms is 3.
    Number of irreps is 4.
    Number of SALCs is 3.
    Translations projected? 1. Rotations projected? 1.
    Index of SALCs per irrep:
     1 :  0  1 
     2 : 
     3 :  2 
     4 : 
    Number of SALCs per irrep:
     Irrep 1: 2
     Irrep 2: 0
     Irrep 3: 1
     Irrep 4: 0
    Number of geometries (including reference) is 6.
    Number of displacements per irrep:
      Irrep 1: 4
      Irrep 2: 0
      Irrep 3: 1
      Irrep 4: 0

  //>>>>>>>>>>>>>>>>>>>>>>>>>>>>>>>>>>>//
  //    Loading displacement 1 of 6    //
  //<<<<<<<<<<<<<<<<<<<<<<<<<<<<<<<<<<<//
gradient() will perform analytic gradient computation.

*** tstart() called on atlantis
*** at Tue Apr 19 00:19:48 2022

   => Loading Basis Set <=

    Name: 6-31+G*
    Role: ORBITAL
    Keyword: BASIS
    atoms 1   entry O          line   157 file /home/akrom/software/anaconda3/envs/ffpenv/share/psi4/basis/6-31pgs.gbs 
    atoms 2-3 entry H          line    46 file /home/akrom/software/anaconda3/envs/ffpenv/share/psi4/basis/6-31pgs.gbs 


         ---------------------------------------------------------
                                   SCF
               by Justin Turney, Rob Parrish, Andy Simmonett
                          and Daniel G. A. Smith
                              RHF Reference
                        1 Threads,    500 MiB Core
         ---------------------------------------------------------

  ==> Geometry <==

    Molecular point group: c2v
    Full point group: C2v

    Geometry (in Angstrom), charge = 0, multiplicity = 1:

       Center              X                  Y                   Z               Mass       
    ------------   -----------------  -----------------  -----------------  -----------------
         O            0.000000000000     0.000000000000    -0.067969259994    15.994914619570
         H            0.749030000000     0.000000000000     0.539360740006     1.007825032230
         H           -0.749030000000    -0.000000000000     0.539360740006     1.007825032230

  Running in c2v symmetry.

  Rotational constants: A =     25.53156  B =     14.90675  C =      9.41168 [cm^-1]
  Rotational constants: A = 765416.81232  B = 446893.08836  C = 282155.15104 [MHz]
  Nuclear repulsion =    9.133433460995141

  Charge       = 0
  Multiplicity = 1
  Electrons    = 10
  Nalpha       = 5
  Nbeta        = 5

  ==> Algorithm <==

  SCF Algorithm Type is PK.
  DIIS enabled.
  MOM disabled.
  Fractional occupation disabled.
  Guess Type is SAD.
  Energy threshold   = 1.00e-10
  Density threshold  = 1.00e-10
  Integral threshold = 0.00e+00

  ==> Primary Basis <==

  Basis Set: 6-31+G*
    Blend: 6-31+G*
    Number of shells: 12
    Number of basis function: 23
    Number of Cartesian functions: 23
    Spherical Harmonics?: false
    Max angular momentum: 2

  ==> Pre-Iterations <==

   -------------------------------------------------------
    Irrep   Nso     Nmo     Nalpha   Nbeta   Ndocc  Nsocc
   -------------------------------------------------------
     A1        12      12       0       0       0       0
     A2         1       1       0       0       0       0
     B1         6       6       0       0       0       0
     B2         4       4       0       0       0       0
   -------------------------------------------------------
    Total      23      23       5       5       5       0
   -------------------------------------------------------

  ==> Integral Setup <==

  Using in-core PK algorithm.
   Calculation information:
      Number of atoms:                   3
      Number of AO shells:              12
      Number of primitives:             25
      Number of atomic orbitals:        23
      Number of basis functions:        23

      Integral cutoff                 1.00e-12
      Number of threads:                 1

  Performing in-core PK
  Using 76452 doubles for integral storage.
  We computed 3081 shell quartets total.
  Whereas there are 3081 unique shell quartets.

  ==> DiskJK: Disk-Based J/K Matrices <==

    J tasked:                  Yes
    K tasked:                  Yes
    wK tasked:                  No
    Memory [MiB]:              375
    Schwarz Cutoff:          1E-12

    OpenMP threads:              1

  Minimum eigenvalue in the overlap matrix is 1.7438801318E-02.
  Using Symmetric Orthogonalization.

  SCF Guess: Superposition of Atomic Densities via on-the-fly atomic UHF.

  ==> Iterations <==

                        Total Energy        Delta E     RMS |[F,P]|

   @RHF iter SAD:   -75.51796486449172   -7.55180e+01   0.00000e+00 
   @RHF iter   1:   -75.94139223206481   -4.23427e-01   3.01054e-02 DIIS
   @RHF iter   2:   -75.99183446654645   -5.04422e-02   1.91510e-02 DIIS
   @RHF iter   3:   -76.01632808459993   -2.44936e-02   1.53642e-03 DIIS
   @RHF iter   4:   -76.01666821202264   -3.40127e-04   3.46293e-04 DIIS
   @RHF iter   5:   -76.01668698181527   -1.87698e-05   6.07794e-05 DIIS
   @RHF iter   6:   -76.01668794581710   -9.64002e-07   1.31491e-05 DIIS
   @RHF iter   7:   -76.01668799918528   -5.33682e-08   1.66262e-06 DIIS
   @RHF iter   8:   -76.01668799988468   -6.99401e-10   2.93944e-07 DIIS
   @RHF iter   9:   -76.01668799990665   -2.19700e-11   7.56592e-08 DIIS
   @RHF iter  10:   -76.01668799990787   -1.22213e-12   9.24139e-09 DIIS
   @RHF iter  11:   -76.01668799990790   -2.84217e-14   1.55826e-09 DIIS
   @RHF iter  12:   -76.01668799990794   -4.26326e-14   1.47160e-10 DIIS
   @RHF iter  13:   -76.01668799990792    2.84217e-14   2.63217e-11 DIIS
  Energy and wave function converged.


  ==> Post-Iterations <==

    Orbital Energies [Eh]
    ---------------------

    Doubly Occupied:                                                      

       1A1   -20.583425     2A1    -1.355673     1B1    -0.713527  
       3A1    -0.588781     1B2    -0.509540  

    Virtual:                                                              

       4A1     0.144391     2B1     0.222216     5A1     0.250839  
       2B2     0.252627     3B1     0.346461     6A1     0.389059  
       4B1     1.213998     7A1     1.338358     5B1     1.393856  
       3B2     1.403998     8A1     1.422895     9A1     1.489969  
      10A1     2.001212     1A2     2.022977     4B2     2.052120  
      11A1     2.611156     6B1     2.999486    12A1     4.101472  

    Final Occupation by Irrep:
             A1    A2    B1    B2 
    DOCC [     3,    0,    1,    1 ]

  @RHF Final Energy:   -76.01668799990792

   => Energetics <=

    Nuclear Repulsion Energy =              9.1334334609951409
    One-Electron Energy =                -122.7983503831412264
    Two-Electron Energy =                  37.6482289222381681
    Total Energy =                        -76.0166879999079299

Computation Completed


Properties will be evaluated at   0.000000,   0.000000,   0.000000 [a0]

Properties computed using the SCF density matrix

  Nuclear Dipole Moment: [e a0]
     X:     0.0000      Y:     0.0000      Z:     1.0109

  Electronic Dipole Moment: [e a0]
     X:     0.0000      Y:     0.0000      Z:    -0.0725

  Dipole Moment: [e a0]
     X:     0.0000      Y:     0.0000      Z:     0.9384     Total:     0.9384

  Dipole Moment: [D]
     X:     0.0000      Y:     0.0000      Z:     2.3852     Total:     2.3852


*** tstop() called on atlantis at Tue Apr 19 00:19:48 2022
Module time:
	user time   =       0.21 seconds =       0.00 minutes
	system time =       0.00 seconds =       0.00 minutes
	total time  =          0 seconds =       0.00 minutes
Total time:
	user time   =       1.09 seconds =       0.02 minutes
	system time =       0.10 seconds =       0.00 minutes
	total time  =          1 seconds =       0.02 minutes
 MINTS: Wrapper to libmints.
   by Justin Turney

   Calculation information:
      Number of threads:                 1
      Number of atoms:                   3
      Number of AO shells:              12
      Number of SO shells:              10
      Number of primitives:             25
      Number of atomic orbitals:        23
      Number of basis functions:        23

      Number of irreps:                  4
      Integral cutoff                 0.00e+00
      Number of functions per irrep: [  12    1    6    4 ]

 OEINTS: Overlap, kinetic, potential, dipole, and quadrupole integrals
         stored in file 35.

      Computing two-electron integrals...done
      Computed 8788 non-zero two-electron integrals.
        Stored in file 33.


*** tstart() called on atlantis
*** at Tue Apr 19 00:19:48 2022


	Wfn Parameters:
	--------------------
	Wavefunction         = CCSD
	Number of irreps     = 4
	Number of MOs        = 23
	Number of active MOs = 23
	AO-Basis             = NONE
	Semicanonical        = false
	Reference            = RHF
	Print Level          = 1

	IRREP	# MOs	# FZDC	# DOCC	# SOCC	# VIRT	# FZVR
	-----	-----	------	------	------	------	------
	 A1	   12	    0	    3	    0	    9	    0
	 A2	   1	    0	    0	    0	    1	    0
	 B1	   6	    0	    1	    0	    5	    0
	 B2	   4	    0	    1	    0	    3	    0
	Transforming integrals...
	IWL integrals will be deleted.
	(OO|OO)...
	Presorting SO-basis two-electron integrals.
	Sorting File: SO Ints (nn|nn) nbuckets = 1
	Transforming the one-electron integrals and constructing Fock matrices
	Starting first half-transformation.
	Sorting half-transformed integrals.
	First half integral transformation complete.
	Starting second half-transformation.
	Two-electron integral transformation complete.
	(OO|OV)...
	Starting second half-transformation.
	Two-electron integral transformation complete.
	(OO|VV)...
	Starting second half-transformation.
	Two-electron integral transformation complete.
	(OV|OO)...
	Starting first half-transformation.
	Sorting half-transformed integrals.
	First half integral transformation complete.
	Starting second half-transformation.
	Two-electron integral transformation complete.
	(OV|OV)...
	Starting second half-transformation.
	Two-electron integral transformation complete.
	(OV|VV)...
	Starting second half-transformation.
	Two-electron integral transformation complete.
	(VV|OO)...
	Starting first half-transformation.
	Sorting half-transformed integrals.
	First half integral transformation complete.
	Starting second half-transformation.
	Two-electron integral transformation complete.
	(VV|OV)...
	Starting second half-transformation.
	Two-electron integral transformation complete.
	(VV|VV)...
	Starting second half-transformation.
	Two-electron integral transformation complete.
	Frozen core energy     =      0.00000000000000

	Size of irrep 0 of <ab|cd> integrals:      0.013 (MW) /      0.108 (MB)
	Size of irrep 1 of <ab|cd> integrals:      0.002 (MW) /      0.018 (MB)
	Size of irrep 2 of <ab|cd> integrals:      0.009 (MW) /      0.074 (MB)
	Size of irrep 3 of <ab|cd> integrals:      0.004 (MW) /      0.033 (MB)
	Total:                                     0.029 (MW) /      0.233 (MB)

	Size of irrep 0 of <ia|bc> integrals:      0.004 (MW) /      0.032 (MB)
	Size of irrep 1 of <ia|bc> integrals:      0.001 (MW) /      0.004 (MB)
	Size of irrep 2 of <ia|bc> integrals:      0.002 (MW) /      0.019 (MB)
	Size of irrep 3 of <ia|bc> integrals:      0.001 (MW) /      0.010 (MB)
	Total:                                     0.008 (MW) /      0.066 (MB)

	Size of irrep 0 of tijab amplitudes:       0.001 (MW) /      0.010 (MB)
	Size of irrep 1 of tijab amplitudes:       0.000 (MW) /      0.001 (MB)
	Size of irrep 2 of tijab amplitudes:       0.001 (MW) /      0.005 (MB)
	Size of irrep 3 of tijab amplitudes:       0.000 (MW) /      0.003 (MB)
	Total:                                     0.002 (MW) /      0.019 (MB)

	Nuclear Rep. energy          =      9.13343346099514
	SCF energy                   =    -76.01668799990792
	One-electron energy          =   -122.79835038355300
	Two-electron energy          =     37.64822892264989
	Reference energy             =    -76.01668799990797

*** tstop() called on atlantis at Tue Apr 19 00:19:48 2022
Module time:
	user time   =       0.01 seconds =       0.00 minutes
	system time =       0.01 seconds =       0.00 minutes
	total time  =          0 seconds =       0.00 minutes
Total time:
	user time   =       1.11 seconds =       0.02 minutes
	system time =       0.11 seconds =       0.00 minutes
	total time  =          1 seconds =       0.02 minutes
            **************************
            *                        *
            *        CCENERGY        *
            *                        *
            **************************

    Nuclear Rep. energy (wfn)     =    9.133433460995141
    SCF energy          (wfn)     =  -76.016687999907916
    Reference energy    (file100) =  -76.016687999907973

    Input parameters:
    -----------------
    Wave function   =     CCSD
    Reference wfn   =     RHF
    Brueckner       =     No
    Memory (Mbytes) =     524.3
    Maxiter         =     50
    R_Convergence   =     1.0e-07
    E_Convergence   =     1.0e-08
    Restart         =     Yes
    DIIS            =     Yes
    AO Basis        =     NONE
    ABCD            =     NEW
    Cache Level     =     2
    Cache Type      =     LOW
    Print Level     =     1
    Num. of threads =     1
    # Amps to Print =     10
    Print MP2 Amps? =     No
    Analyze T2 Amps =     No
    Print Pair Ener =     No
    Local CC        =     No
    SCS-MP2         =     False
    SCSN-MP2        =     False
    SCS-CCSD        =     False

MP2 correlation energy -0.1951494084391490
                Solving CC Amplitude Equations
                ------------------------------
  Iter             Energy              RMS        T1Diag      D1Diag    New D1Diag    D2Diag
  ----     ---------------------    ---------   ----------  ----------  ----------   --------
     0        -0.195149408439149    0.000e+00    0.000000    0.000000    0.000000    0.108915
     1        -0.197696057772004    3.563e-02    0.007988    0.018827    0.018827    0.115655
     2        -0.201804620899791    1.225e-02    0.008479    0.020118    0.020118    0.120939
     3        -0.203013082580393    4.988e-03    0.009879    0.023907    0.023907    0.123424
     4        -0.202963202383980    8.943e-04    0.010023    0.024394    0.024394    0.123575
     5        -0.202979494266522    2.570e-04    0.010080    0.024614    0.024614    0.123607
     6        -0.202979378411531    5.771e-05    0.010091    0.024664    0.024664    0.123596
     7        -0.202978046227326    1.455e-05    0.010093    0.024674    0.024674    0.123591
     8        -0.202978090890021    4.091e-06    0.010094    0.024678    0.024678    0.123590
     9        -0.202978024992420    8.921e-07    0.010094    0.024678    0.024678    0.123590
    10        -0.202978022440115    2.498e-07    0.010094    0.024678    0.024678    0.123590
    11        -0.202978025401020    8.548e-08    0.010094    0.024678    0.024678    0.123590

    Iterations converged.


    Largest TIA Amplitudes:
              4  15        -0.0245893703
              2   1        -0.0121019729
              3  13         0.0068671915
              2   2         0.0067661708
              2   0         0.0059135584
              1   1        -0.0053931918
              3  14         0.0038087019
              1   4        -0.0037609051
              3  10        -0.0036336537
              3  12         0.0036245432

    Largest TIjAb Amplitudes:
      4   4  16  16        -0.0388493262
      3   3  11  11        -0.0329542085
      2   2   4   4        -0.0280964642
      3   3  12  12        -0.0269510395
      4   4  15  15        -0.0262403006
      4   4  15  16        -0.0252609821
      4   4  16  15        -0.0252609821
      3   3  13  13        -0.0232181427
      3   3  11  12        -0.0228155388
      3   3  12  11        -0.0228155388

    SCF energy       (wfn)                    =  -76.016687999907916
    Reference energy (file100)                =  -76.016687999907973

    Opposite-spin MP2 correlation energy      =   -0.144910723816534
    Same-spin MP2 correlation energy          =   -0.050238684622615
    MP2 correlation energy                    =   -0.195149408439149
      * MP2 total energy                      =  -76.211837408347122

    Opposite-spin CCSD correlation energy     =   -0.159230237615189
    Same-spin CCSD correlation energy         =   -0.043747787785831
    CCSD correlation energy                   =   -0.202978025401020
      * CCSD total energy                     =  -76.219666025308996


			**************************
			*                        *
			*         CCHBAR         *
			*                        *
			**************************


			**************************
			*        CCLAMBDA        *
			**************************


	Nuclear Rep. energy (wfn)     =    9.133433460995141
	Reference           (wfn)     =                    0
	SCF energy          (wfn)     =  -76.016687999907916
	Reference energy    (CC_INFO) =  -76.016687999907973
	CCSD energy         (CC_INFO) =   -0.202978025401020
	Total CCSD energy   (CC_INFO) =  -76.219666025308996

	Input parameters:
	-----------------
	Maxiter           =     50
	Convergence       = 1.0e-07
	Restart           =     No
	Cache Level       =     2
	Model III         =     No
	DIIS              =     Yes
	AO Basis          =     No
	ABCD              =     NEW
	Local CC          =     No
	Parameters for left-handed eigenvectors:
	    Irr   Root  Ground-State?    EOM energy        R0
	  1   0     0        Yes       0.0000000000   1.0000000000
	Labels for eigenvector 1:
	LIA 0 -1, Lia 0 -1, LIJAB 0 -1, Lijab 0 -1, LIjAb 0 -1, 2LIjAb - LIjbA 0 -1
	Symmetry of left-hand state: A1
	Symmetry of left-hand eigenvector: A1

	          Solving Lambda Equations
	          ------------------------
	Iter     PseudoEnergy or Norm         RMS  
	----     ---------------------     --------
	   0        -0.203034941958313    3.325e-08
	   1        -0.200785164843296    1.331e-02
	   2        -0.200208376265870    2.494e-03
	   3        -0.200067514600331    1.414e-03
	   4        -0.200055142402456    2.955e-04
	   5        -0.200061403322293    7.481e-05
	   6        -0.200061158052220    2.034e-05
	   7        -0.200060798583478    4.703e-06
	   8        -0.200060827040313    1.447e-06
	   9        -0.200060832494142    4.393e-07
	  10        -0.200060837526527    1.184e-07
	  11        -0.200060837376856    3.325e-08

	Largest LIA Amplitudes:
	          4  15        -0.0166179368
	          2   1        -0.0072617296
	          3  13         0.0070120471
	          2   2         0.0042535870
	          1   1        -0.0039068634
	          3  14         0.0033998862
	          1   4        -0.0032320897
	          2   4         0.0029556946
	          2   0         0.0029484269
	          2   7         0.0027968273

	Largest LIjAb Amplitudes:
	  4   4  16  16        -0.0386458661
	  3   3  11  11        -0.0321946418
	  2   2   4   4        -0.0278378950
	  3   3  12  12        -0.0263742045
	  4   4  15  15        -0.0252167497
	  4   4  15  16        -0.0249360553
	  4   4  16  15        -0.0249360553
	  3   3  13  13        -0.0230272096
	  3   3  11  12        -0.0223978619
	  3   3  12  11        -0.0223978619

	Iterations converged.

	Overlap <L|e^T> =        0.94007690070

			**************************
			*                        *
			*        CCDENSITY       *
			*                        *
			**************************


	Input parameters:
	-----------------
	Wave function    =   CCSD
	Reference wfn    =   RHF
	Dertype          = 1
	Tolerance        = 1.0e-14
	Cache Level      = 2
	AO Basis         = No
	OPDM Only        = No
	Relax OPDM       = Yes
	Compute Xi       = No
	Use Zeta         = No
	Xi connected     = Yes
	Compute NO       = No

	Nuclear Rep. energy (wfn)     =    9.133433460995141
	SCF energy          (wfn)     =  -76.016687999907916
	Reference energy    (file100) =  -76.016687999907973
	CCSD energy         (CC_INFO) =   -0.202978025401020
	Total CCSD energy   (CC_INFO) =  -76.219666025308996
	Number of States = 1

	Ground?  State     EOM Energy       R0
	  Yes     0 A1    0.0000000000   1.00000000

	Virial Theorem Data:
	--------------------
	Kinetic energy (ref)   =   75.733410027880751
	Kinetic energy (corr)  =    0.128155705412782
	Kinetic energy (total) =   75.861565733293531
	-V/T (ref)             =    2.003740462392000
	-V/T (corr)            =    2.583839164610267
	-V/T (total)           =    2.004720444253345
  Cartesian Displacement SALCs
  By SALC:
  Number of SALCs: 3, nirreps: A1
  Project out translations: False
  Project out rotations: False
	irrep = 0, ncomponent = 1
		0: atom 0, direction z, coef 1.000000
	irrep = 0, ncomponent = 2
		0: atom 1, direction x, coef 0.707107
		1: atom 2, direction x, coef -0.707107
	irrep = 0, ncomponent = 2
		0: atom 1, direction z, coef 0.707107
		1: atom 2, direction z, coef 0.707107

  By Atomic Center:
  Number of atomic centers: 3
   Atomic Center 0:
	x component, size = 0
	y component, size = 0
	z component, size = 1
		0: salc 0, irrep 0, coef 1.000000
   Atomic Center 1:
	x component, size = 1
		0: salc 1, irrep 0, coef 0.707107
	y component, size = 0
	z component, size = 1
		0: salc 2, irrep 0, coef 0.707107
   Atomic Center 2:
	x component, size = 1
		0: salc 1, irrep 0, coef -0.707107
	y component, size = 0
	z component, size = 1
		0: salc 2, irrep 0, coef 0.707107

    Molecular point group: c2v
    Full point group: C2v

    Geometry (in Bohr), charge = 0, multiplicity = 1:

       Center              X                  Y                   Z       
    ------------   -----------------  -----------------  -----------------
         O            0.000000000000     0.000000000000    -0.128443286339
         H            1.415461559752     0.000000000000     1.019244081436
         H           -1.415461559752    -0.000000000000     1.019244081436

	Presorting MO-basis TPDM.
	Sorting File: MO TPDM (AA|AA) nbuckets = 1
	Starting first half-transformation.
	Sorting half-transformed TPDM.
	First half integral transformation complete.


  -Nuclear Repulsion Energy 1st Derivatives:
     Atom            X                  Y                   Z
    ------   -----------------  -----------------  -----------------
       1        0.000000000000     0.000000000000     3.034559410088
       2       -1.996065495508    -0.000000000000    -1.517279705044
       3        1.996065495508     0.000000000000    -1.517279705044


  -Core Hamiltonian Gradient:
     Atom            X                  Y                   Z
    ------   -----------------  -----------------  -----------------
       1        0.000000000000    -0.000000000000    -5.984787393538
       2        3.837176153747     0.000000000000     2.992393696769
       3       -3.837176153747    -0.000000000000     2.992393696769


  -Lagrangian contribution to gradient:
     Atom            X                  Y                   Z
    ------   -----------------  -----------------  -----------------
       1        0.000000000000     0.000000000000     0.320313640195
       2       -0.176991814902    -0.000000000000    -0.160156820098
       3        0.176991814902     0.000000000000    -0.160156820098


  -Two-electron contribution to gradient:
     Atom            X                  Y                   Z
    ------   -----------------  -----------------  -----------------
       1        0.000000000000     0.000000000000     2.630480157632
       2       -1.674513185924    -0.000000000000    -1.315240078816
       3        1.674513185924     0.000000000000    -1.315240078816


  -Total gradient:
     Atom            X                  Y                   Z
    ------   -----------------  -----------------  -----------------
       1        0.000000000000    -0.000000000000     0.000565814377
       2       -0.010394342587    -0.000000000000    -0.000282907188
       3        0.010394342587     0.000000000000    -0.000282907188


  //>>>>>>>>>>>>>>>>>>>>>>>>>>>>>>>>>>>//
  //    Loading displacement 2 of 6    //
  //<<<<<<<<<<<<<<<<<<<<<<<<<<<<<<<<<<<//
gradient() will perform analytic gradient computation.

*** tstart() called on atlantis
*** at Tue Apr 19 00:19:48 2022

   => Loading Basis Set <=

    Name: 6-31+G*
    Role: ORBITAL
    Keyword: BASIS
    atoms 1   entry O          line   157 file /home/akrom/software/anaconda3/envs/ffpenv/share/psi4/basis/6-31pgs.gbs 
    atoms 2-3 entry H          line    46 file /home/akrom/software/anaconda3/envs/ffpenv/share/psi4/basis/6-31pgs.gbs 


         ---------------------------------------------------------
                                   SCF
               by Justin Turney, Rob Parrish, Andy Simmonett
                          and Daniel G. A. Smith
                              RHF Reference
                        1 Threads,    500 MiB Core
         ---------------------------------------------------------

  ==> Geometry <==

    Molecular point group: c2v
    Full point group: C2v

    Geometry (in Angstrom), charge = 0, multiplicity = 1:

       Center              X                  Y                   Z               Mass       
    ------------   -----------------  -----------------  -----------------  -----------------
         O            0.000000000000     0.000000000000    -0.068190581735    15.994914619570
         H            0.749030000000     0.000000000000     0.541117008324     1.007825032230
         H           -0.749030000000    -0.000000000000     0.541117008324     1.007825032230

  Running in c2v symmetry.

  Rotational constants: A =     25.36609  B =     14.90675  C =      9.38911 [cm^-1]
  Rotational constants: A = 760456.34809  B = 446893.08836  C = 281478.31580 [MHz]
  Nuclear repulsion =    9.122096529799810

  Charge       = 0
  Multiplicity = 1
  Electrons    = 10
  Nalpha       = 5
  Nbeta        = 5

  ==> Algorithm <==

  SCF Algorithm Type is PK.
  DIIS enabled.
  MOM disabled.
  Fractional occupation disabled.
  Guess Type is SAD.
  Energy threshold   = 1.00e-10
  Density threshold  = 1.00e-10
  Integral threshold = 0.00e+00

  ==> Primary Basis <==

  Basis Set: 6-31+G*
    Blend: 6-31+G*
    Number of shells: 12
    Number of basis function: 23
    Number of Cartesian functions: 23
    Spherical Harmonics?: false
    Max angular momentum: 2

  ==> Pre-Iterations <==

   -------------------------------------------------------
    Irrep   Nso     Nmo     Nalpha   Nbeta   Ndocc  Nsocc
   -------------------------------------------------------
     A1        12      12       0       0       0       0
     A2         1       1       0       0       0       0
     B1         6       6       0       0       0       0
     B2         4       4       0       0       0       0
   -------------------------------------------------------
    Total      23      23       5       5       5       0
   -------------------------------------------------------

  ==> Integral Setup <==

  Using in-core PK algorithm.
   Calculation information:
      Number of atoms:                   3
      Number of AO shells:              12
      Number of primitives:             25
      Number of atomic orbitals:        23
      Number of basis functions:        23

      Integral cutoff                 1.00e-12
      Number of threads:                 1

  Performing in-core PK
  Using 76452 doubles for integral storage.
  We computed 3081 shell quartets total.
  Whereas there are 3081 unique shell quartets.

  ==> DiskJK: Disk-Based J/K Matrices <==

    J tasked:                  Yes
    K tasked:                  Yes
    wK tasked:                  No
    Memory [MiB]:              375
    Schwarz Cutoff:          1E-12

    OpenMP threads:              1

  Minimum eigenvalue in the overlap matrix is 1.7475002330E-02.
  Using Symmetric Orthogonalization.

  SCF Guess: Superposition of Atomic Densities via on-the-fly atomic UHF.

  ==> Iterations <==

                        Total Energy        Delta E     RMS |[F,P]|

   @RHF iter SAD:   -75.51636198984947   -7.55164e+01   0.00000e+00 
   @RHF iter   1:   -75.94116983536099   -4.24808e-01   3.01071e-02 DIIS
   @RHF iter   2:   -75.99162361012137   -5.04538e-02   1.91818e-02 DIIS
   @RHF iter   3:   -76.01620464029858   -2.45810e-02   1.53813e-03 DIIS
   @RHF iter   4:   -76.01654591770054   -3.41277e-04   3.47977e-04 DIIS
   @RHF iter   5:   -76.01656491193644   -1.89942e-05   6.11838e-05 DIIS
   @RHF iter   6:   -76.01656589081696   -9.78881e-07   1.32200e-05 DIIS
   @RHF iter   7:   -76.01656594469063   -5.38737e-08   1.66467e-06 DIIS
   @RHF iter   8:   -76.01656594538974   -6.99117e-10   2.95293e-07 DIIS
   @RHF iter   9:   -76.01656594541193   -2.21831e-11   7.60970e-08 DIIS
   @RHF iter  10:   -76.01656594541326   -1.33582e-12   9.31913e-09 DIIS
   @RHF iter  11:   -76.01656594541322    4.26326e-14   1.57221e-09 DIIS
   @RHF iter  12:   -76.01656594541319    2.84217e-14   1.47474e-10 DIIS
   @RHF iter  13:   -76.01656594541318    1.42109e-14   2.62231e-11 DIIS
  Energy and wave function converged.


  ==> Post-Iterations <==

    Orbital Energies [Eh]
    ---------------------

    Doubly Occupied:                                                      

       1A1   -20.583744     2A1    -1.355169     1B1    -0.712494  
       3A1    -0.588908     1B2    -0.509505  

    Virtual:                                                              

       4A1     0.144301     2B1     0.222367     5A1     0.250838  
       2B2     0.252638     3B1     0.345704     6A1     0.388878  
       4B1     1.212259     7A1     1.337083     5B1     1.394200  
       3B2     1.403977     8A1     1.423497     9A1     1.490859  
      10A1     2.001051     1A2     2.023431     4B2     2.052145  
      11A1     2.609647     6B1     2.996538    12A1     4.100884  

    Final Occupation by Irrep:
             A1    A2    B1    B2 
    DOCC [     3,    0,    1,    1 ]

  @RHF Final Energy:   -76.01656594541318

   => Energetics <=

    Nuclear Repulsion Energy =              9.1220965297998102
    One-Electron Energy =                -122.7776843398986983
    Two-Electron Energy =                  37.6390218646857022
    Total Energy =                        -76.0165659454131912

Computation Completed


Properties will be evaluated at   0.000000,   0.000000,   0.000000 [a0]

Properties computed using the SCF density matrix

  Nuclear Dipole Moment: [e a0]
     X:     0.0000      Y:     0.0000      Z:     1.0142

  Electronic Dipole Moment: [e a0]
     X:     0.0000      Y:     0.0000      Z:    -0.0741

  Dipole Moment: [e a0]
     X:     0.0000      Y:     0.0000      Z:     0.9402     Total:     0.9402

  Dipole Moment: [D]
     X:     0.0000      Y:     0.0000      Z:     2.3897     Total:     2.3897


*** tstop() called on atlantis at Tue Apr 19 00:19:48 2022
Module time:
	user time   =       0.20 seconds =       0.00 minutes
	system time =       0.01 seconds =       0.00 minutes
	total time  =          0 seconds =       0.00 minutes
Total time:
	user time   =       1.42 seconds =       0.02 minutes
	system time =       0.18 seconds =       0.00 minutes
	total time  =          1 seconds =       0.02 minutes
 MINTS: Wrapper to libmints.
   by Justin Turney

   Calculation information:
      Number of threads:                 1
      Number of atoms:                   3
      Number of AO shells:              12
      Number of SO shells:              10
      Number of primitives:             25
      Number of atomic orbitals:        23
      Number of basis functions:        23

      Number of irreps:                  4
      Integral cutoff                 0.00e+00
      Number of functions per irrep: [  12    1    6    4 ]

 OEINTS: Overlap, kinetic, potential, dipole, and quadrupole integrals
         stored in file 35.

      Computing two-electron integrals...done
      Computed 8788 non-zero two-electron integrals.
        Stored in file 33.


*** tstart() called on atlantis
*** at Tue Apr 19 00:19:48 2022


	Wfn Parameters:
	--------------------
	Wavefunction         = CCSD
	Number of irreps     = 4
	Number of MOs        = 23
	Number of active MOs = 23
	AO-Basis             = NONE
	Semicanonical        = false
	Reference            = RHF
	Print Level          = 1

	IRREP	# MOs	# FZDC	# DOCC	# SOCC	# VIRT	# FZVR
	-----	-----	------	------	------	------	------
	 A1	   12	    0	    3	    0	    9	    0
	 A2	   1	    0	    0	    0	    1	    0
	 B1	   6	    0	    1	    0	    5	    0
	 B2	   4	    0	    1	    0	    3	    0
	Transforming integrals...
	IWL integrals will be deleted.
	(OO|OO)...
	Presorting SO-basis two-electron integrals.
	Sorting File: SO Ints (nn|nn) nbuckets = 1
	Transforming the one-electron integrals and constructing Fock matrices
	Starting first half-transformation.
	Sorting half-transformed integrals.
	First half integral transformation complete.
	Starting second half-transformation.
	Two-electron integral transformation complete.
	(OO|OV)...
	Starting second half-transformation.
	Two-electron integral transformation complete.
	(OO|VV)...
	Starting second half-transformation.
	Two-electron integral transformation complete.
	(OV|OO)...
	Starting first half-transformation.
	Sorting half-transformed integrals.
	First half integral transformation complete.
	Starting second half-transformation.
	Two-electron integral transformation complete.
	(OV|OV)...
	Starting second half-transformation.
	Two-electron integral transformation complete.
	(OV|VV)...
	Starting second half-transformation.
	Two-electron integral transformation complete.
	(VV|OO)...
	Starting first half-transformation.
	Sorting half-transformed integrals.
	First half integral transformation complete.
	Starting second half-transformation.
	Two-electron integral transformation complete.
	(VV|OV)...
	Starting second half-transformation.
	Two-electron integral transformation complete.
	(VV|VV)...
	Starting second half-transformation.
	Two-electron integral transformation complete.
	Frozen core energy     =      0.00000000000000

	Size of irrep 0 of <ab|cd> integrals:      0.013 (MW) /      0.108 (MB)
	Size of irrep 1 of <ab|cd> integrals:      0.002 (MW) /      0.018 (MB)
	Size of irrep 2 of <ab|cd> integrals:      0.009 (MW) /      0.074 (MB)
	Size of irrep 3 of <ab|cd> integrals:      0.004 (MW) /      0.033 (MB)
	Total:                                     0.029 (MW) /      0.233 (MB)

	Size of irrep 0 of <ia|bc> integrals:      0.004 (MW) /      0.032 (MB)
	Size of irrep 1 of <ia|bc> integrals:      0.001 (MW) /      0.004 (MB)
	Size of irrep 2 of <ia|bc> integrals:      0.002 (MW) /      0.019 (MB)
	Size of irrep 3 of <ia|bc> integrals:      0.001 (MW) /      0.010 (MB)
	Total:                                     0.008 (MW) /      0.066 (MB)

	Size of irrep 0 of tijab amplitudes:       0.001 (MW) /      0.010 (MB)
	Size of irrep 1 of tijab amplitudes:       0.000 (MW) /      0.001 (MB)
	Size of irrep 2 of tijab amplitudes:       0.001 (MW) /      0.005 (MB)
	Size of irrep 3 of tijab amplitudes:       0.000 (MW) /      0.003 (MB)
	Total:                                     0.002 (MW) /      0.019 (MB)

	Nuclear Rep. energy          =      9.12209652979981
	SCF energy                   =    -76.01656594541318
	One-electron energy          =   -122.77768434031032
	Two-electron energy          =     37.63902186509729
	Reference energy             =    -76.01656594541322

*** tstop() called on atlantis at Tue Apr 19 00:19:48 2022
Module time:
	user time   =       0.01 seconds =       0.00 minutes
	system time =       0.00 seconds =       0.00 minutes
	total time  =          0 seconds =       0.00 minutes
Total time:
	user time   =       1.44 seconds =       0.02 minutes
	system time =       0.18 seconds =       0.00 minutes
	total time  =          1 seconds =       0.02 minutes
            **************************
            *                        *
            *        CCENERGY        *
            *                        *
            **************************

    Nuclear Rep. energy (wfn)     =    9.122096529799810
    SCF energy          (wfn)     =  -76.016565945413177
    Reference energy    (file100) =  -76.016565945413220

    Input parameters:
    -----------------
    Wave function   =     CCSD
    Reference wfn   =     RHF
    Brueckner       =     No
    Memory (Mbytes) =     524.3
    Maxiter         =     50
    R_Convergence   =     1.0e-07
    E_Convergence   =     1.0e-08
    Restart         =     Yes
    DIIS            =     Yes
    AO Basis        =     NONE
    ABCD            =     NEW
    Cache Level     =     2
    Cache Type      =     LOW
    Print Level     =     1
    Num. of threads =     1
    # Amps to Print =     10
    Print MP2 Amps? =     No
    Analyze T2 Amps =     No
    Print Pair Ener =     No
    Local CC        =     No
    SCS-MP2         =     False
    SCSN-MP2        =     False
    SCS-CCSD        =     False

MP2 correlation energy -0.1952697685018142
                Solving CC Amplitude Equations
                ------------------------------
  Iter             Energy              RMS        T1Diag      D1Diag    New D1Diag    D2Diag
  ----     ---------------------    ---------   ----------  ----------  ----------   --------
     0        -0.195269768501814    0.000e+00    0.000000    0.000000    0.000000    0.109063
     1        -0.197799227464499    3.569e-02    0.007997    0.018856    0.018856    0.115816
     2        -0.201920647681962    1.229e-02    0.008490    0.020151    0.020151    0.121125
     3        -0.203133832533767    5.002e-03    0.009893    0.023950    0.023950    0.123626
     4        -0.203083795362297    8.970e-04    0.010038    0.024437    0.024437    0.123779
     5        -0.203100290003452    2.582e-04    0.010095    0.024657    0.024657    0.123811
     6        -0.203100176362675    5.793e-05    0.010106    0.024708    0.024708    0.123800
     7        -0.203098843683356    1.462e-05    0.010108    0.024717    0.024717    0.123795
     8        -0.203098889490164    4.118e-06    0.010109    0.024722    0.024722    0.123794
     9        -0.203098822753908    9.026e-07    0.010109    0.024722    0.024722    0.123794
    10        -0.203098820292606    2.539e-07    0.010109    0.024722    0.024722    0.123794
    11        -0.203098823266519    8.686e-08    0.010109    0.024722    0.024722    0.123794

    Iterations converged.


    Largest TIA Amplitudes:
              4  15        -0.0246324269
              2   1        -0.0120666244
              3  13         0.0068910622
              2   2         0.0067937495
              2   0         0.0059294278
              1   1        -0.0054030972
              3  14         0.0038308066
              1   4        -0.0037707583
              3  12         0.0036449506
              3  10        -0.0036203665

    Largest TIjAb Amplitudes:
      4   4  16  16        -0.0388468851
      3   3  11  11        -0.0330794780
      2   2   4   4        -0.0282446932
      3   3  12  12        -0.0270069816
      4   4  15  15        -0.0262449507
      4   4  15  16        -0.0252613252
      4   4  16  15        -0.0252613252
      3   3  13  13        -0.0231621032
      3   3  11  12        -0.0229319165
      3   3  12  11        -0.0229319165

    SCF energy       (wfn)                    =  -76.016565945413177
    Reference energy (file100)                =  -76.016565945413220

    Opposite-spin MP2 correlation energy      =   -0.145006099960647
[...]
	One-electron energy          =   -122.79839849815835
	Two-electron energy          =     37.64824955216155
	Reference energy             =    -76.01668065822255

*** tstop() called on atlantis at Tue Apr 19 00:19:50 2022
Module time:
	user time   =       0.01 seconds =       0.00 minutes
	system time =       0.01 seconds =       0.00 minutes
	total time  =          0 seconds =       0.00 minutes
Total time:
	user time   =       2.72 seconds =       0.05 minutes
	system time =       0.53 seconds =       0.01 minutes
	total time  =          3 seconds =       0.05 minutes
            **************************
            *                        *
            *        CCENERGY        *
            *                        *
            **************************

    Nuclear Rep. energy (wfn)     =    9.133468287774228
    SCF energy          (wfn)     =  -76.016680658222569
    Reference energy    (file100) =  -76.016680658222555

    Input parameters:
    -----------------
    Wave function   =     CCSD
    Reference wfn   =     RHF
    Brueckner       =     No
    Memory (Mbytes) =     524.3
    Maxiter         =     50
    R_Convergence   =     1.0e-07
    E_Convergence   =     1.0e-08
    Restart         =     Yes
    DIIS            =     Yes
    AO Basis        =     NONE
    ABCD            =     NEW
    Cache Level     =     2
    Cache Type      =     LOW
    Print Level     =     1
    Num. of threads =     1
    # Amps to Print =     10
    Print MP2 Amps? =     No
    Analyze T2 Amps =     No
    Print Pair Ener =     No
    Local CC        =     No
    SCS-MP2         =     False
    SCSN-MP2        =     False
    SCS-CCSD        =     False

MP2 correlation energy -0.1951492984479821
                Solving CC Amplitude Equations
                ------------------------------
  Iter             Energy              RMS        T1Diag      D1Diag    New D1Diag    D2Diag
  ----     ---------------------    ---------   ----------  ----------  ----------   --------
     0        -0.195149298447982    0.000e+00    0.000000    0.000000    0.000000    0.108937
     1        -0.197695987481651    3.563e-02    0.007988    0.018827    0.018827    0.115671
     2        -0.201804592014682    1.225e-02    0.008479    0.020118    0.020118    0.120958
     3        -0.203013065853441    4.988e-03    0.009879    0.023907    0.023907    0.123444
     4        -0.202963183772648    8.943e-04    0.010023    0.024394    0.024394    0.123596
     5        -0.202979475879557    2.570e-04    0.010080    0.024614    0.024614    0.123628
     6        -0.202979360034496    5.771e-05    0.010092    0.024665    0.024665    0.123617
     7        -0.202978027870928    1.455e-05    0.010093    0.024674    0.024674    0.123613
     8        -0.202978072561304    4.092e-06    0.010094    0.024678    0.024678    0.123612
     9        -0.202978006660346    8.923e-07    0.010094    0.024678    0.024678    0.123612
    10        -0.202978004111436    2.499e-07    0.010094    0.024678    0.024678    0.123612
    11        -0.202978007073890    8.552e-08    0.010094    0.024678    0.024678    0.123612

    Iterations converged.


    Largest TIA Amplitudes:
              4  14        -0.0245893956
              3   2        -0.0121015561
              2   7        -0.0068636447
              3   4         0.0067640951
              3   0         0.0059134720
              1   2        -0.0053930764
              2  12        -0.0038083114
              1   8        -0.0037598124
              2   1        -0.0036339212
              2   5         0.0036245963

    Largest TIjAb Amplitudes:
      4   4  15  15        -0.0388493240
      2   2   3   3        -0.0329451964
      3   3   8   8        -0.0280909003
      2   2   5   5        -0.0269465642
      4   4  14  14        -0.0262402429
      4   4  14  15        -0.0252609603
      4   4  15  14        -0.0252609603
      2   2   7   7        -0.0232085107
      2   2   3   5        -0.0228119851
      2   2   5   3        -0.0228119851

    SCF energy       (wfn)                    =  -76.016680658222569
    Reference energy (file100)                =  -76.016680658222555

    Opposite-spin MP2 correlation energy      =   -0.144910679261010
    Same-spin MP2 correlation energy          =   -0.050238619186972
    MP2 correlation energy                    =   -0.195149298447982
      * MP2 total energy                      =  -76.211829956670542

    Opposite-spin CCSD correlation energy     =   -0.159230277657282
    Same-spin CCSD correlation energy         =   -0.043747729416608
    CCSD correlation energy                   =   -0.202978007073890
      * CCSD total energy                     =  -76.219658665296450


			**************************
			*                        *
			*         CCHBAR         *
			*                        *
			**************************


			**************************
			*        CCLAMBDA        *
			**************************


	Nuclear Rep. energy (wfn)     =    9.133468287774228
	Reference           (wfn)     =                    0
	SCF energy          (wfn)     =  -76.016680658222569
	Reference energy    (CC_INFO) =  -76.016680658222555
	CCSD energy         (CC_INFO) =   -0.202978007073890
	Total CCSD energy   (CC_INFO) =  -76.219658665296450

	Input parameters:
	-----------------
	Maxiter           =     50
	Convergence       = 1.0e-07
	Restart           =     No
	Cache Level       =     2
	Model III         =     No
	DIIS              =     Yes
	AO Basis          =     No
	ABCD              =     NEW
	Local CC          =     No
	Parameters for left-handed eigenvectors:
	    Irr   Root  Ground-State?    EOM energy        R0
	  1   0     0        Yes       0.0000000000   1.0000000000
	Labels for eigenvector 1:
	LIA 0 -1, Lia 0 -1, LIJAB 0 -1, Lijab 0 -1, LIjAb 0 -1, 2LIjAb - LIjbA 0 -1
	Symmetry of left-hand state: Ap
	Symmetry of left-hand eigenvector: Ap

	          Solving Lambda Equations
	          ------------------------
	Iter     PseudoEnergy or Norm         RMS  
	----     ---------------------     --------
	   0        -0.203034924047519    3.357e-08
	   1        -0.200785106971796    1.331e-02
	   2        -0.200208312285412    2.495e-03
	   3        -0.200067448206943    1.414e-03
	   4        -0.200055075225679    2.955e-04
	   5        -0.200061336119726    7.481e-05
	   6        -0.200061090830605    2.035e-05
	   7        -0.200060731357486    4.703e-06
	   8        -0.200060759822591    1.447e-06
	   9        -0.200060765277204    4.394e-07
	  10        -0.200060770309920    1.184e-07
	  11        -0.200060770160121    3.325e-08

	Largest LIA Amplitudes:
	          4  14        -0.0166179249
	          3   2        -0.0072613786
	          2   7        -0.0070085108
	          3   4         0.0042523709
	          1   2        -0.0039067767
	          2  12        -0.0033995443
	          1   8        -0.0032307667
	          3   8         0.0029559707
	          3   0         0.0029483065
	          3  11         0.0027971085

	Largest LIjAb Amplitudes:
	  4   4  15  15        -0.0386458665
	  2   2   3   3        -0.0321857322
	  3   3   8   8        -0.0278323513
	  2   2   5   5        -0.0263697878
	  4   4  14  14        -0.0252166943
	  4   4  14  15        -0.0249360350
	  4   4  15  14        -0.0249360350
	  2   2   7   7        -0.0230177719
	  2   2   3   5        -0.0223942974
	  2   2   5   3        -0.0223942974

	Iterations converged.

	Overlap <L|e^T> =        0.94007661390

			**************************
			*                        *
			*        CCDENSITY       *
			*                        *
			**************************


	Input parameters:
	-----------------
	Wave function    =   CCSD
	Reference wfn    =   RHF
	Dertype          = 1
	Tolerance        = 1.0e-14
	Cache Level      = 2
	AO Basis         = No
	OPDM Only        = No
	Relax OPDM       = Yes
	Compute Xi       = No
	Use Zeta         = No
	Xi connected     = Yes
	Compute NO       = No

	Nuclear Rep. energy (wfn)     =    9.133468287774228
	SCF energy          (wfn)     =  -76.016680658222569
	Reference energy    (file100) =  -76.016680658222555
	CCSD energy         (CC_INFO) =   -0.202978007073890
	Total CCSD energy   (CC_INFO) =  -76.219658665296450
	Number of States = 1

	Ground?  State     EOM Energy       R0
	  Yes     0 Ap    0.0000000000   1.00000000

	Virial Theorem Data:
	--------------------
	Kinetic energy (ref)   =   75.733435898698303
	Kinetic energy (corr)  =    0.128155289788783
	Kinetic energy (total) =   75.861591188487083
	-V/T (ref)             =    2.003740022569465
	-V/T (corr)            =    2.583844158196079
	-V/T (total)           =    2.004720010102605
  Cartesian Displacement SALCs
  By SALC:
  Number of SALCs: 6, nirreps: A'
  Project out translations: False
  Project out rotations: False
	irrep = 0, ncomponent = 1
		0: atom 0, direction x, coef 1.000000
	irrep = 0, ncomponent = 1
		0: atom 0, direction z, coef 1.000000
	irrep = 0, ncomponent = 1
		0: atom 1, direction x, coef 1.000000
	irrep = 0, ncomponent = 1
		0: atom 1, direction z, coef 1.000000
	irrep = 0, ncomponent = 1
		0: atom 2, direction x, coef 1.000000
	irrep = 0, ncomponent = 1
		0: atom 2, direction z, coef 1.000000

  By Atomic Center:
  Number of atomic centers: 3
   Atomic Center 0:
	x component, size = 1
		0: salc 0, irrep 0, coef 1.000000
	y component, size = 0
	z component, size = 1
		0: salc 1, irrep 0, coef 1.000000
   Atomic Center 1:
	x component, size = 1
		0: salc 2, irrep 0, coef 1.000000
	y component, size = 0
	z component, size = 1
		0: salc 3, irrep 0, coef 1.000000
   Atomic Center 2:
	x component, size = 1
		0: salc 4, irrep 0, coef 1.000000
	y component, size = 0
	z component, size = 1
		0: salc 5, irrep 0, coef 1.000000

    Molecular point group: cs
    Full point group: Cs

    Geometry (in Bohr), charge = 0, multiplicity = 1:

       Center              X                  Y                   Z       
    ------------   -----------------  -----------------  -----------------
         O           -0.000332326610     0.000000000000    -0.128443286339
         H            1.418098691984     0.000000000000     1.021382326257
         H           -1.412824427519     0.000000000000     1.017105836614

	Presorting MO-basis TPDM.
	Sorting File: MO TPDM (AA|AA) nbuckets = 1
	Starting first half-transformation.
	Sorting half-transformed TPDM.
	First half integral transformation complete.


  -Nuclear Repulsion Energy 1st Derivatives:
     Atom            X                  Y                   Z
    ------   -----------------  -----------------  -----------------
       1       -0.014657373499     0.000000000000     3.034598523291
       2       -1.988757858744     0.000000000000    -1.511189256655
       3        2.003415232243     0.000000000000    -1.523409266637


  -Core Hamiltonian Gradient:
     Atom            X                  Y                   Z
    ------   -----------------  -----------------  -----------------
       1        0.016620262113     0.000000000000    -5.984812524965
       2        3.828877746050     0.000000000000     2.984437954115
       3       -3.845498008163     0.000000000000     3.000374570851


  -Lagrangian contribution to gradient:
     Atom            X                  Y                   Z
    ------   -----------------  -----------------  -----------------
       1       -0.000887789824     0.000000000000     0.320314585616
       2       -0.176548472385     0.000000000000    -0.159669442473
       3        0.177436262209     0.000000000000    -0.160645143143


  -Two-electron contribution to gradient:
     Atom            X                  Y                   Z
    ------   -----------------  -----------------  -----------------
       1       -0.004218668924     0.000000000000     2.630482917226
       2       -1.672404188881     0.000000000000    -1.312611673058
       3        1.676622857805     0.000000000000    -1.317871244169


  -Total gradient:
     Atom            X                  Y                   Z
    ------   -----------------  -----------------  -----------------
       1       -0.003143570134     0.000000000000     0.000583501168
       2       -0.008832773960     0.000000000000     0.000967581929
       3        0.011976344094     0.000000000000    -0.001551083097


         ----------------------------------------------------------
                                   FINDIF
                     R. A. King and Jonathon Misiewicz
         ---------------------------------------------------------

  Computing second-derivative from gradients using projected, 
  symmetry-adapted, cartesian coordinates.

  6 gradients passed in, including the reference geometry.
  Generating complete list of displacements from unique ones.

    Operation 2 takes plus displacements of irrep B1 to minus ones.

-------------------------------------------------------------


  ==> Harmonic Vibrational Analysis <==

  non-mass-weighted Hessian:       Symmetric? True   Hermitian? True   Lin Dep Dim?  6 (0)
  projection of translations (True) and rotations (True) removed 6 degrees of freedom (6)
  total projector:                 Symmetric? True   Hermitian? True   Lin Dep Dim?  6 (6)
  mass-weighted Hessian:           Symmetric? True   Hermitian? True   Lin Dep Dim?  6 (0)
  pre-proj  low-frequency mode:    0.0000i [cm^-1]
  pre-proj  low-frequency mode:    0.0000i [cm^-1]
  pre-proj  low-frequency mode:    0.0000i [cm^-1]
  pre-proj  low-frequency mode:    0.0000  [cm^-1]
  pre-proj  low-frequency mode:    0.0000  [cm^-1]
  pre-proj  low-frequency mode:    0.0000  [cm^-1]
  pre-proj  all modes:['0.0000i' '0.0000i' '0.0000i' '0.0000' '0.0000' '0.0000' '1721.1898'
 '3842.7230' '3944.4957']
  projected mass-weighted Hessian: Symmetric? True   Hermitian? True   Lin Dep Dim?  6 (6)
  post-proj low-frequency mode:    0.0001i [cm^-1] (TR)
  post-proj low-frequency mode:    0.0000i [cm^-1] (TR)
  post-proj low-frequency mode:    0.0000i [cm^-1] (TR)
  post-proj low-frequency mode:    0.0000  [cm^-1] (TR)
  post-proj low-frequency mode:    0.0000  [cm^-1] (TR)
  post-proj low-frequency mode:    0.0000  [cm^-1] (TR)
  post-proj  all modes:['0.0001i' '0.0000i' '0.0000i' '0.0000' '0.0000' '0.0000' '1721.1898'
 '3842.7230' '3944.4957']

  Vibration                       7                   8                   9           
  Freq [cm^-1]                1721.1898           3842.7230           3944.4957       
  Irrep                           A1                  A1                  B1          
  Reduced mass [u]              1.0811              1.0466              1.0793        
  Force const [mDyne/A]         1.8870              9.1059              9.8939        
  Turning point v=0 [a0]        0.2544              0.1730              0.1682        
  RMS dev v=0 [a0 u^1/2]        0.1870              0.1252              0.1235        
  Char temp [K]               2476.4089           5528.8229           5675.2511       
  ----------------------------------------------------------------------------------
      1   O               -0.00  0.00 -0.07   -0.00 -0.00 -0.05   -0.07  0.00  0.00   
      2   H               -0.44 -0.00  0.55    0.58  0.00  0.40    0.55  0.00  0.44   
      3   H                0.44 -0.00  0.55   -0.58 -0.00  0.40    0.55 -0.00 -0.44   

  ==> Thermochemistry Components <==

  Entropy, S
    Electronic S            0.000 [cal/(mol K)]        0.000 [J/(mol K)]       0.00000000 [mEh/K] (multiplicity = 1)
    Translational S        34.608 [cal/(mol K)]      144.801 [J/(mol K)]       0.05515177 [mEh/K] (mol. weight = 18.0106 [u], P = 101325.00 [Pa])
    Rotational S           10.508 [cal/(mol K)]       43.968 [J/(mol K)]       0.01674635 [mEh/K] (symmetry no. = 2)
    Vibrational S           0.005 [cal/(mol K)]        0.019 [J/(mol K)]       0.00000728 [mEh/K]
  Total S                  45.121 [cal/(mol K)]      188.788 [J/(mol K)]       0.07190541 [mEh/K]
  Correction S              0.000 [cal/(mol K)]        0.000 [J/(mol K)]       0.00000000 [mEh/K]

  Constant volume heat capacity, Cv
    Electronic Cv           0.000 [cal/(mol K)]        0.000 [J/(mol K)]       0.00000000 [mEh/K]
    Translational Cv        2.981 [cal/(mol K)]       12.472 [J/(mol K)]       0.00475022 [mEh/K]
    Rotational Cv           2.981 [cal/(mol K)]       12.472 [J/(mol K)]       0.00475022 [mEh/K]
    Vibrational Cv          0.034 [cal/(mol K)]        0.142 [J/(mol K)]       0.00005402 [mEh/K]
  Total Cv                  5.996 [cal/(mol K)]       25.085 [J/(mol K)]       0.00955445 [mEh/K]
  Correction Cv             0.000 [cal/(mol K)]        0.000 [J/(mol K)]       0.00000000 [mEh/K]

  Constant pressure heat capacity, Cp
    Electronic Cp           0.000 [cal/(mol K)]        0.000 [J/(mol K)]       0.00000000 [mEh/K]
    Translational Cp        4.968 [cal/(mol K)]       20.786 [J/(mol K)]       0.00791703 [mEh/K]
    Rotational Cp           2.981 [cal/(mol K)]       12.472 [J/(mol K)]       0.00475022 [mEh/K]
    Vibrational Cp          0.034 [cal/(mol K)]        0.142 [J/(mol K)]       0.00005402 [mEh/K]
  Total Cp                  7.983 [cal/(mol K)]       33.400 [J/(mol K)]       0.01272126 [mEh/K]
  Correction Cp             0.000 [cal/(mol K)]        0.000 [J/(mol K)]       0.00000000 [mEh/K]

  ==> Thermochemistry Energy Analysis <==

  Raw electronic energy, E0
  Total E0, Electronic energy at well bottom at 0 [K]                  -76.21966603 [Eh]

  Zero-point energy, ZPE_vib = Sum_i nu_i / 2
    Electronic ZPE          0.000 [kcal/mol]        0.000 [kJ/mol]       0.00000000 [Eh]
    Translational ZPE       0.000 [kcal/mol]        0.000 [kJ/mol]       0.00000000 [Eh]
    Rotational ZPE          0.000 [kcal/mol]        0.000 [kJ/mol]       0.00000000 [Eh]
    Vibrational ZPE        13.593 [kcal/mol]       56.873 [kJ/mol]       0.02166175 [Eh]        4754.204 [cm^-1]
  Correction ZPE           13.593 [kcal/mol]       56.873 [kJ/mol]       0.02166175 [Eh]        4754.204 [cm^-1]
  Total ZPE, Electronic energy at 0 [K]                                -76.19800428 [Eh]

  Thermal Energy, E (includes ZPE)
    Electronic E            0.000 [kcal/mol]        0.000 [kJ/mol]       0.00000000 [Eh]
    Translational E         0.889 [kcal/mol]        3.718 [kJ/mol]       0.00141628 [Eh]
    Rotational E            0.889 [kcal/mol]        3.718 [kJ/mol]       0.00141628 [Eh]
    Vibrational E          13.594 [kcal/mol]       56.878 [kJ/mol]       0.02166369 [Eh]
  Correction E             15.372 [kcal/mol]       64.315 [kJ/mol]       0.02449624 [Eh]
  Total E, Electronic energy at  298.15 [K]                            -76.19516979 [Eh]

  Enthalpy, H_trans = E_trans + k_B * T
    Electronic H            0.000 [kcal/mol]        0.000 [kJ/mol]       0.00000000 [Eh]
    Translational H         1.481 [kcal/mol]        6.197 [kJ/mol]       0.00236046 [Eh]
    Rotational H            0.889 [kcal/mol]        3.718 [kJ/mol]       0.00141628 [Eh]
    Vibrational H          13.594 [kcal/mol]       56.878 [kJ/mol]       0.02166369 [Eh]
  Correction H             15.964 [kcal/mol]       66.794 [kJ/mol]       0.02544042 [Eh]
  Total H, Enthalpy at  298.15 [K]                                     -76.19422560 [Eh]

  Gibbs free energy, G = H - T * S
    Electronic G            0.000 [kcal/mol]        0.000 [kJ/mol]       0.00000000 [Eh]
    Translational G        -8.837 [kcal/mol]      -36.975 [kJ/mol]      -0.01408304 [Eh]
    Rotational G           -2.244 [kcal/mol]       -9.390 [kJ/mol]      -0.00357665 [Eh]
    Vibrational G          13.593 [kcal/mol]       56.872 [kJ/mol]       0.02166152 [Eh]
  Correction G              2.511 [kcal/mol]       10.507 [kJ/mol]       0.00400183 [Eh]
  Total G, Free enthalpy at  298.15 [K]                                -76.21566420 [Eh]

    Psi4 stopped on: Tuesday, 19 April 2022 12:19AM
    Psi4 wall time for execution: 0:00:04.26

*** Psi4 exiting successfully. Buy a developer a beer!
