
    -----------------------------------------------------------------------
          Psi4: An Open-Source Ab Initio Electronic Structure Package
                               Psi4 1.3.2 release

                         Git: Rev {HEAD} ecbda83 


    R. M. Parrish, L. A. Burns, D. G. A. Smith, A. C. Simmonett,
    A. E. DePrince III, E. G. Hohenstein, U. Bozkaya, A. Yu. Sokolov,
    R. Di Remigio, R. M. Richard, J. F. Gonthier, A. M. James,
    H. R. McAlexander, A. Kumar, M. Saitow, X. Wang, B. P. Pritchard,
    P. Verma, H. F. Schaefer III, K. Patkowski, R. A. King, E. F. Valeev,
    F. A. Evangelista, J. M. Turney, T. D. Crawford, and C. D. Sherrill,
    J. Chem. Theory Comput. 13(7) pp 3185--3197 (2017).
    (doi: 10.1021/acs.jctc.7b00174)


                         Additional Contributions by
    P. Kraus, H. Kruse, M. H. Lechner, M. C. Schieber, R. A. Shaw,
    A. Alenaizan, R. Galvelis, Z. L. Glick, S. Lehtola, and J. P. Misiewicz

    -----------------------------------------------------------------------


    Psi4 started on: Tuesday, 19 April 2022 01:46AM

    Process ID: 25821
    Host:       atlantis
    PSIDATADIR: /home/akrom/software/anaconda3/envs/ffpenv/share/psi4
    Memory:     500.0 MiB
    Threads:    1
    
  ==> Input File <==

--------------------------------------------------------------------------
set basis  6-311++g**
molecule {
0 1
   C       -0.61446        0.00000        0.00000
   C        0.61446        0.00000        0.00000
   H       -1.68923        0.00000        0.00000
   H        1.68923        0.00000        0.00000
}
energy('CCSD')
frequencies('CCSD')
--------------------------------------------------------------------------

*** tstart() called on atlantis
*** at Tue Apr 19 01:46:32 2022

   => Loading Basis Set <=

    Name: 6-311++G**
    Role: ORBITAL
    Keyword: BASIS
    atoms 1-2 entry C          line   119 file /home/akrom/software/anaconda3/envs/ffpenv/share/psi4/basis/6-311ppgss.gbs 
    atoms 3-4 entry H          line    42 file /home/akrom/software/anaconda3/envs/ffpenv/share/psi4/basis/6-311ppgss.gbs 


         ---------------------------------------------------------
                                   SCF
               by Justin Turney, Rob Parrish, Andy Simmonett
                          and Daniel G. A. Smith
                              RHF Reference
                        1 Threads,    500 MiB Core
         ---------------------------------------------------------

  ==> Geometry <==

    Molecular point group: d2h
    Full point group: D_inf_h

    Geometry (in Angstrom), charge = 0, multiplicity = 1:

       Center              X                  Y                   Z               Mass       
    ------------   -----------------  -----------------  -----------------  -----------------
         C           -0.614460000000    -0.000000000000     0.000000000000    12.000000000000
         C            0.614460000000     0.000000000000     0.000000000000    12.000000000000
         H           -1.689230000000    -0.000000000000     0.000000000000     1.007825032230
         H            1.689230000000     0.000000000000     0.000000000000     1.007825032230

  Running in d2h symmetry.

  Rotational constants: A = ************  B =      1.13802  C =      1.13802 [cm^-1]
  Rotational constants: A = ************  B =  34116.98697  C =  34116.98697 [MHz]
  Nuclear repulsion =   24.323218171379235

  Charge       = 0
  Multiplicity = 1
  Electrons    = 14
  Nalpha       = 7
  Nbeta        = 7

  ==> Algorithm <==

  SCF Algorithm Type is PK.
  DIIS enabled.
  MOM disabled.
  Fractional occupation disabled.
  Guess Type is SAD.
  Energy threshold   = 1.00e-08
  Density threshold  = 1.00e-08
  Integral threshold = 0.00e+00

  ==> Primary Basis <==

  Basis Set: 6-311++G**
    Blend: 6-311++G**
    Number of shells: 30
    Number of basis function: 58
    Number of Cartesian functions: 60
    Spherical Harmonics?: true
    Max angular momentum: 2

  ==> Pre-Iterations <==

   -------------------------------------------------------
    Irrep   Nso     Nmo     Nalpha   Nbeta   Ndocc  Nsocc
   -------------------------------------------------------
     Ag        16      16       0       0       0       0
     B1g        6       6       0       0       0       0
     B2g        6       6       0       0       0       0
     B3g        1       1       0       0       0       0
     Au         1       1       0       0       0       0
     B1u        6       6       0       0       0       0
     B2u        6       6       0       0       0       0
     B3u       16      16       0       0       0       0
   -------------------------------------------------------
    Total      58      58       7       7       7       0
   -------------------------------------------------------

  ==> Integral Setup <==

  Using in-core PK algorithm.
   Calculation information:
      Number of atoms:                   4
      Number of AO shells:              30
      Number of primitives:             52
      Number of atomic orbitals:        60
      Number of basis functions:        58

      Integral cutoff                 1.00e-12
      Number of threads:                 1

  Performing in-core PK
  Using 2929232 doubles for integral storage.
  We computed 108237 shell quartets total.
  Whereas there are 108345 unique shell quartets.

  ==> DiskJK: Disk-Based J/K Matrices <==

    J tasked:                  Yes
    K tasked:                  Yes
    wK tasked:                  No
    Memory [MiB]:              375
    Schwarz Cutoff:          1E-12

    OpenMP threads:              1

  Minimum eigenvalue in the overlap matrix is 1.6293470232E-05.
  Using Symmetric Orthogonalization.

  SCF Guess: Superposition of Atomic Densities via on-the-fly atomic UHF.

  ==> Iterations <==

                        Total Energy        Delta E     RMS |[F,P]|

   @RHF iter SAD:   -75.84273237962081   -7.58427e+01   0.00000e+00 
   @RHF iter   1:   -76.79390018173510   -9.51168e-01   1.10788e-02 DIIS
   @RHF iter   2:   -76.83301936122233   -3.91192e-02   3.79730e-03 DIIS
   @RHF iter   3:   -76.83779662464104   -4.77726e-03   4.40889e-04 DIIS
   @RHF iter   4:   -76.83793190429019   -1.35280e-04   5.05247e-05 DIIS
   @RHF iter   5:   -76.83793378688546   -1.88260e-06   9.74257e-06 DIIS
   @RHF iter   6:   -76.83793386730476   -8.04193e-08   1.40028e-06 DIIS
   @RHF iter   7:   -76.83793386908739   -1.78264e-09   2.54025e-07 DIIS
   @RHF iter   8:   -76.83793386914407   -5.66729e-11   1.24767e-08 DIIS
   @RHF iter   9:   -76.83793386914419   -1.27898e-13   1.60385e-09 DIIS
  Energy and wave function converged.


  ==> Post-Iterations <==

    Orbital Energies [Eh]
    ---------------------

    Doubly Occupied:                                                      

       1Ag   -11.254401     1B3u  -11.251158     2Ag    -1.025178  
       2B3u   -0.767822     3Ag    -0.678497     1B2u   -0.405955  
       1B1u   -0.405955  

    Virtual:                                                              

       4Ag     0.042187     3B3u    0.047051     1B1g    0.111234  
       1B2g    0.111234     2B1u    0.127573     2B2u    0.127573  
       5Ag     0.150119     4B3u    0.166754     6Ag     0.188271  
       5B3u    0.216905     2B2g    0.241730     2B1g    0.241730  
       6B3u    0.347558     7Ag     0.379767     7B3u    0.568202  
       8Ag     0.615151     3B1u    0.707833     3B2u    0.707833  
       3B2g    0.816254     3B1g    0.816254     9Ag     0.865650  
       8B3u    0.872596    10Ag     1.009280     9B3u    1.205502  
      10B3u    1.280171     4B2u    1.281030     4B1u    1.281030  
       1B3g    1.414111    11Ag     1.414111     4B2g    1.682950  
       4B1g    1.682950    11B3u    1.836649     1Au     1.836649  
      12Ag     2.014590     5B1u    2.102659     5B2u    2.102659  
      12B3u    2.448443     5B2g    2.780776     5B1g    2.780776  
      13Ag     2.858285    13B3u    2.926988     6B1u    3.121475  
       6B2u    3.121475    14Ag     3.313003     6B1g    3.345517  
       6B2g    3.345517    14B3u    3.693832    15Ag     3.716044  
      15B3u    4.140980    16Ag    24.694554    16B3u   26.203033  

    Final Occupation by Irrep:
             Ag   B1g   B2g   B3g    Au   B1u   B2u   B3u 
    DOCC [     3,    0,    0,    0,    0,    1,    1,    2 ]

  @RHF Final Energy:   -76.83793386914419

   => Energetics <=

    Nuclear Repulsion Energy =             24.3232181713792350
    One-Electron Energy =                -150.7443683892026058
    Two-Electron Energy =                  49.5832163486791799
    Total Energy =                        -76.8379338691441944

Computation Completed


Properties will be evaluated at   0.000000,   0.000000,   0.000000 [a0]

Properties computed using the SCF density matrix

  Nuclear Dipole Moment: [e a0]
     X:     0.0000      Y:     0.0000      Z:     0.0000

  Electronic Dipole Moment: [e a0]
     X:     0.0000      Y:     0.0000      Z:     0.0000

  Dipole Moment: [e a0]
     X:     0.0000      Y:     0.0000      Z:     0.0000     Total:     0.0000

  Dipole Moment: [D]
     X:     0.0000      Y:     0.0000      Z:     0.0000     Total:     0.0000


*** tstop() called on atlantis at Tue Apr 19 01:46:33 2022
Module time:
	user time   =       0.43 seconds =       0.01 minutes
	system time =       0.00 seconds =       0.00 minutes
	total time  =          1 seconds =       0.02 minutes
Total time:
	user time   =       0.43 seconds =       0.01 minutes
	system time =       0.00 seconds =       0.00 minutes
	total time  =          1 seconds =       0.02 minutes
 MINTS: Wrapper to libmints.
   by Justin Turney

   Calculation information:
      Number of threads:                 1
      Number of atoms:                   4
      Number of AO shells:              30
      Number of SO shells:              15
      Number of primitives:             52
      Number of atomic orbitals:        60
      Number of basis functions:        58

      Number of irreps:                  8
      Integral cutoff                 0.00e+00
      Number of functions per irrep: [  16    6    6    1    1    6    6   16 ]

 OEINTS: Overlap, kinetic, potential, dipole, and quadrupole integrals
         stored in file 35.

      Computing two-electron integrals...done
      Computed 213106 non-zero two-electron integrals.
        Stored in file 33.


*** tstart() called on atlantis
*** at Tue Apr 19 01:46:33 2022


	Wfn Parameters:
	--------------------
	Wavefunction         = CCSD
	Number of irreps     = 8
	Number of MOs        = 58
	Number of active MOs = 58
	AO-Basis             = NONE
	Semicanonical        = false
	Reference            = RHF
	Print Level          = 1

	IRREP	# MOs	# FZDC	# DOCC	# SOCC	# VIRT	# FZVR
	-----	-----	------	------	------	------	------
	 Ag	   16	    0	    3	    0	    13	    0
	 B1g	   6	    0	    0	    0	    6	    0
	 B2g	   6	    0	    0	    0	    6	    0
	 B3g	   1	    0	    0	    0	    1	    0
	 Au	   1	    0	    0	    0	    1	    0
	 B1u	   6	    0	    1	    0	    5	    0
	 B2u	   6	    0	    1	    0	    5	    0
	 B3u	   16	    0	    2	    0	    14	    0
	Transforming integrals...
	IWL integrals will be deleted.
	(OO|OO)...
	Presorting SO-basis two-electron integrals.
	Sorting File: SO Ints (nn|nn) nbuckets = 1
	Transforming the one-electron integrals and constructing Fock matrices
	Starting first half-transformation.
	Sorting half-transformed integrals.
	First half integral transformation complete.
	Starting second half-transformation.
	Two-electron integral transformation complete.
	(OO|OV)...
	Starting second half-transformation.
	Two-electron integral transformation complete.
	(OO|VV)...
	Starting second half-transformation.
	Two-electron integral transformation complete.
	(OV|OO)...
	Starting first half-transformation.
	Sorting half-transformed integrals.
	First half integral transformation complete.
	Starting second half-transformation.
	Two-electron integral transformation complete.
	(OV|OV)...
	Starting second half-transformation.
	Two-electron integral transformation complete.
	(OV|VV)...
	Starting second half-transformation.
	Two-electron integral transformation complete.
	(VV|OO)...
	Starting first half-transformation.
	Sorting half-transformed integrals.
	First half integral transformation complete.
	Starting second half-transformation.
	Two-electron integral transformation complete.
	(VV|OV)...
	Starting second half-transformation.
	Two-electron integral transformation complete.
	(VV|VV)...
	Starting second half-transformation.
	Two-electron integral transformation complete.
	Frozen core energy     =      0.00000000000000

	Size of irrep 0 of <ab|cd> integrals:      0.239 (MW) /      1.913 (MB)
	Size of irrep 1 of <ab|cd> integrals:      0.101 (MW) /      0.809 (MB)
	Size of irrep 2 of <ab|cd> integrals:      0.101 (MW) /      0.809 (MB)
	Size of irrep 3 of <ab|cd> integrals:      0.031 (MW) /      0.248 (MB)
	Size of irrep 4 of <ab|cd> integrals:      0.030 (MW) /      0.242 (MB)
	Size of irrep 5 of <ab|cd> integrals:      0.102 (MW) /      0.819 (MB)
	Size of irrep 6 of <ab|cd> integrals:      0.102 (MW) /      0.819 (MB)
	Size of irrep 7 of <ab|cd> integrals:      0.236 (MW) /      1.890 (MB)
	Total:                                     0.944 (MW) /      7.549 (MB)

	Size of irrep 0 of <ia|bc> integrals:      0.038 (MW) /      0.301 (MB)
	Size of irrep 1 of <ia|bc> integrals:      0.014 (MW) /      0.109 (MB)
	Size of irrep 2 of <ia|bc> integrals:      0.014 (MW) /      0.109 (MB)
	Size of irrep 3 of <ia|bc> integrals:      0.003 (MW) /      0.021 (MB)
	Size of irrep 4 of <ia|bc> integrals:      0.003 (MW) /      0.024 (MB)
	Size of irrep 5 of <ia|bc> integrals:      0.013 (MW) /      0.105 (MB)
	Size of irrep 6 of <ia|bc> integrals:      0.013 (MW) /      0.105 (MB)
	Size of irrep 7 of <ia|bc> integrals:      0.039 (MW) /      0.311 (MB)
	Total:                                     0.136 (MW) /      1.086 (MB)

	Size of irrep 0 of tijab amplitudes:       0.007 (MW) /      0.059 (MB)
	Size of irrep 1 of tijab amplitudes:       0.001 (MW) /      0.010 (MB)
	Size of irrep 2 of tijab amplitudes:       0.001 (MW) /      0.010 (MB)
	Size of irrep 3 of tijab amplitudes:       0.000 (MW) /      0.003 (MB)
	Size of irrep 4 of tijab amplitudes:       0.000 (MW) /      0.000 (MB)
	Size of irrep 5 of tijab amplitudes:       0.002 (MW) /      0.015 (MB)
	Size of irrep 6 of tijab amplitudes:       0.002 (MW) /      0.015 (MB)
	Size of irrep 7 of tijab amplitudes:       0.006 (MW) /      0.047 (MB)
	Total:                                     0.020 (MW) /      0.159 (MB)

	Nuclear Rep. energy          =     24.32321817137924
	SCF energy                   =    -76.83793386914419
	One-electron energy          =   -150.74436850051370
	Two-electron energy          =     49.58321645999023
	Reference energy             =    -76.83793386914422

*** tstop() called on atlantis at Tue Apr 19 01:46:33 2022
Module time:
	user time   =       0.06 seconds =       0.00 minutes
	system time =       0.03 seconds =       0.00 minutes
	total time  =          0 seconds =       0.00 minutes
Total time:
	user time   =       0.58 seconds =       0.01 minutes
	system time =       0.03 seconds =       0.00 minutes
	total time  =          1 seconds =       0.02 minutes
            **************************
            *                        *
            *        CCENERGY        *
            *                        *
            **************************

    Nuclear Rep. energy (wfn)     =   24.323218171379235
    SCF energy          (wfn)     =  -76.837933869144194
    Reference energy    (file100) =  -76.837933869144223

    Input parameters:
    -----------------
    Wave function   =     CCSD
    Reference wfn   =     RHF
    Brueckner       =     No
    Memory (Mbytes) =     524.3
    Maxiter         =     50
    R_Convergence   =     1.0e-07
    E_Convergence   =     1.0e-06
    Restart         =     Yes
    DIIS            =     Yes
    AO Basis        =     NONE
    ABCD            =     NEW
    Cache Level     =     2
    Cache Type      =     LOW
    Print Level     =     1
    Num. of threads =     1
    # Amps to Print =     10
    Print MP2 Amps? =     No
    Analyze T2 Amps =     No
    Print Pair Ener =     No
    Local CC        =     No
    SCS-MP2         =     False
    SCSN-MP2        =     False
    SCS-CCSD        =     False

MP2 correlation energy -0.3121946174150953
                Solving CC Amplitude Equations
                ------------------------------
  Iter             Energy              RMS        T1Diag      D1Diag    New D1Diag    D2Diag
  ----     ---------------------    ---------   ----------  ----------  ----------   --------
     0        -0.312194617415095    0.000e+00    0.000000    0.000000    0.000000    0.162031
     1        -0.314634576056991    5.679e-02    0.010156    0.025725    0.025725    0.162831
     2        -0.324668087268224    2.395e-02    0.010461    0.026339    0.026339    0.174321
     3        -0.327371625111568    1.070e-02    0.012191    0.030719    0.030719    0.181346
     4        -0.327661432714771    3.314e-03    0.012319    0.031035    0.031035    0.183822
     5        -0.327740215292521    7.568e-04    0.012325    0.031067    0.031067    0.184340
     6        -0.327740253587785    2.046e-04    0.012303    0.031017    0.031017    0.184385
     7        -0.327742882553095    4.231e-05    0.012299    0.031008    0.031008    0.184399
     8        -0.327743059091049    1.077e-05    0.012298    0.031006    0.031006    0.184401
     9        -0.327742937662891    2.686e-06    0.012298    0.031005    0.031005    0.184401
    10        -0.327743021307105    7.395e-07    0.012298    0.031005    0.031005    0.184402
    11        -0.327743023197725    1.891e-07    0.012298    0.031005    0.031005    0.184402
    12        -0.327743027209716    5.892e-08    0.012298    0.031005    0.031005    0.184402

    Iterations converged.


    Largest TIA Amplitudes:
              3  28         0.0212714734
              4  33         0.0212714734
              3  27         0.0149976647
              4  32         0.0149976647
              3  29         0.0133186687
              4  34         0.0133186687
              3  30         0.0079824935
              4  35         0.0079824935
              3  31         0.0065426517
              4  36         0.0065426517

    Largest TIjAb Amplitudes:
      3   3  20  20        -0.0740120942
      4   4  14  14        -0.0740120942
      3   3  19  20        -0.0484914405
      3   3  20  19        -0.0484914405
      4   4  13  14        -0.0484914405
      4   4  14  13        -0.0484914405
      3   4  20  14        -0.0454234428
      4   3  14  20        -0.0454234428
      3   3  20  21        -0.0330145648
      3   3  21  20        -0.0330145648

    SCF energy       (wfn)                    =  -76.837933869144194
    Reference energy (file100)                =  -76.837933869144223

    Opposite-spin MP2 correlation energy      =   -0.242194842260277
    Same-spin MP2 correlation energy          =   -0.069999775154818
    MP2 correlation energy                    =   -0.312194617415095
      * MP2 total energy                      =  -77.150128486559325

    Opposite-spin CCSD correlation energy     =   -0.268397079720527
    Same-spin CCSD correlation energy         =   -0.059345947489189
    CCSD correlation energy                   =   -0.327743027209716
      * CCSD total energy                     =  -77.165676896353943

gradient() will perform analytic gradient computation.

*** tstart() called on atlantis
*** at Tue Apr 19 01:46:33 2022

   => Loading Basis Set <=

    Name: 6-311++G**
    Role: ORBITAL
    Keyword: BASIS
    atoms 1-2 entry C          line   119 file /home/akrom/software/anaconda3/envs/ffpenv/share/psi4/basis/6-311ppgss.gbs 
    atoms 3-4 entry H          line    42 file /home/akrom/software/anaconda3/envs/ffpenv/share/psi4/basis/6-311ppgss.gbs 


         ---------------------------------------------------------
                                   SCF
               by Justin Turney, Rob Parrish, Andy Simmonett
                          and Daniel G. A. Smith
                              RHF Reference
                        1 Threads,    500 MiB Core
         ---------------------------------------------------------

  ==> Geometry <==

    Molecular point group: d2h
    Full point group: D_inf_h

    Geometry (in Angstrom), charge = 0, multiplicity = 1:

       Center              X                  Y                   Z               Mass       
    ------------   -----------------  -----------------  -----------------  -----------------
         C           -0.614460000000    -0.000000000000     0.000000000000    12.000000000000
         C            0.614460000000     0.000000000000     0.000000000000    12.000000000000
         H           -1.689230000000    -0.000000000000     0.000000000000     1.007825032230
         H            1.689230000000     0.000000000000     0.000000000000     1.007825032230

  Running in d2h symmetry.

  Rotational constants: A = ************  B =      1.13802  C =      1.13802 [cm^-1]
  Rotational constants: A = ************  B =  34116.98697  C =  34116.98697 [MHz]
  Nuclear repulsion =   24.323218171379235

  Charge       = 0
  Multiplicity = 1
  Electrons    = 14
  Nalpha       = 7
  Nbeta        = 7

  ==> Algorithm <==

  SCF Algorithm Type is PK.
  DIIS enabled.
  MOM disabled.
  Fractional occupation disabled.
  Guess Type is SAD.
  Energy threshold   = 1.00e-10
  Density threshold  = 1.00e-10
  Integral threshold = 0.00e+00

  ==> Primary Basis <==

  Basis Set: 6-311++G**
    Blend: 6-311++G**
    Number of shells: 30
    Number of basis function: 58
    Number of Cartesian functions: 60
    Spherical Harmonics?: true
    Max angular momentum: 2

  ==> Pre-Iterations <==

   -------------------------------------------------------
    Irrep   Nso     Nmo     Nalpha   Nbeta   Ndocc  Nsocc
   -------------------------------------------------------
     Ag        16      16       0       0       0       0
     B1g        6       6       0       0       0       0
     B2g        6       6       0       0       0       0
     B3g        1       1       0       0       0       0
     Au         1       1       0       0       0       0
     B1u        6       6       0       0       0       0
     B2u        6       6       0       0       0       0
     B3u       16      16       0       0       0       0
   -------------------------------------------------------
    Total      58      58       7       7       7       0
   -------------------------------------------------------

  ==> Integral Setup <==

  Using in-core PK algorithm.
   Calculation information:
      Number of atoms:                   4
      Number of AO shells:              30
      Number of primitives:             52
      Number of atomic orbitals:        60
      Number of basis functions:        58

      Integral cutoff                 1.00e-12
      Number of threads:                 1

  Performing in-core PK
  Using 2929232 doubles for integral storage.
  We computed 108237 shell quartets total.
  Whereas there are 108345 unique shell quartets.

  ==> DiskJK: Disk-Based J/K Matrices <==

    J tasked:                  Yes
    K tasked:                  Yes
    wK tasked:                  No
    Memory [MiB]:              375
    Schwarz Cutoff:          1E-12

    OpenMP threads:              1

  Minimum eigenvalue in the overlap matrix is 1.6293470232E-05.
  Using Symmetric Orthogonalization.

  SCF Guess: Superposition of Atomic Densities via on-the-fly atomic UHF.

  ==> Iterations <==

                        Total Energy        Delta E     RMS |[F,P]|

   @RHF iter SAD:   -75.84273237962081   -7.58427e+01   0.00000e+00 
   @RHF iter   1:   -76.79390018173510   -9.51168e-01   1.10788e-02 DIIS
   @RHF iter   2:   -76.83301936122233   -3.91192e-02   3.79730e-03 DIIS
   @RHF iter   3:   -76.83779662464104   -4.77726e-03   4.40889e-04 DIIS
   @RHF iter   4:   -76.83793190429019   -1.35280e-04   5.05247e-05 DIIS
   @RHF iter   5:   -76.83793378688546   -1.88260e-06   9.74257e-06 DIIS
   @RHF iter   6:   -76.83793386730476   -8.04193e-08   1.40028e-06 DIIS
   @RHF iter   7:   -76.83793386908739   -1.78264e-09   2.54025e-07 DIIS
   @RHF iter   8:   -76.83793386914407   -5.66729e-11   1.24767e-08 DIIS
   @RHF iter   9:   -76.83793386914419   -1.27898e-13   1.60385e-09 DIIS
   @RHF iter  10:   -76.83793386914411    8.52651e-14   2.69517e-10 DIIS
   @RHF iter  11:   -76.83793386914419   -8.52651e-14   1.52872e-11 DIIS
  Energy and wave function converged.


  ==> Post-Iterations <==

    Orbital Energies [Eh]
    ---------------------

    Doubly Occupied:                                                      

       1Ag   -11.254401     1B3u  -11.251158     2Ag    -1.025178  
       2B3u   -0.767822     3Ag    -0.678497     1B2u   -0.405955  
       1B1u   -0.405955  

    Virtual:                                                              

       4Ag     0.042187     3B3u    0.047051     1B1g    0.111234  
       1B2g    0.111234     2B1u    0.127573     2B2u    0.127573  
       5Ag     0.150119     4B3u    0.166754     6Ag     0.188271  
       5B3u    0.216905     2B1g    0.241730     2B2g    0.241730  
       6B3u    0.347558     7Ag     0.379767     7B3u    0.568202  
       8Ag     0.615151     3B2u    0.707833     3B1u    0.707833  
       3B1g    0.816254     3B2g    0.816254     9Ag     0.865650  
       8B3u    0.872596    10Ag     1.009280     9B3u    1.205502  
      10B3u    1.280171     4B2u    1.281030     4B1u    1.281030  
       1B3g    1.414111    11Ag     1.414111     4B1g    1.682950  
       4B2g    1.682950    11B3u    1.836649     1Au     1.836649  
      12Ag     2.014590     5B2u    2.102659     5B1u    2.102659  
      12B3u    2.448443     5B1g    2.780776     5B2g    2.780776  
      13Ag     2.858285    13B3u    2.926988     6B2u    3.121475  
       6B1u    3.121475    14Ag     3.313003     6B1g    3.345517  
       6B2g    3.345517    14B3u    3.693832    15Ag     3.716044  
      15B3u    4.140980    16Ag    24.694554    16B3u   26.203033  

    Final Occupation by Irrep:
             Ag   B1g   B2g   B3g    Au   B1u   B2u   B3u 
    DOCC [     3,    0,    0,    0,    0,    1,    1,    2 ]

  @RHF Final Energy:   -76.83793386914419

   => Energetics <=

    Nuclear Repulsion Energy =             24.3232181713792350
    One-Electron Energy =                -150.7443684919030886
    Two-Electron Energy =                  49.5832164513796556
    Total Energy =                        -76.8379338691441944

Computation Completed


Properties will be evaluated at   0.000000,   0.000000,   0.000000 [a0]

Properties computed using the SCF density matrix

  Nuclear Dipole Moment: [e a0]
     X:     0.0000      Y:     0.0000      Z:     0.0000

  Electronic Dipole Moment: [e a0]
     X:     0.0000      Y:     0.0000      Z:     0.0000

  Dipole Moment: [e a0]
     X:     0.0000      Y:     0.0000      Z:     0.0000     Total:     0.0000

  Dipole Moment: [D]
     X:     0.0000      Y:     0.0000      Z:     0.0000     Total:     0.0000


*** tstop() called on atlantis at Tue Apr 19 01:46:33 2022
Module time:
	user time   =       0.40 seconds =       0.01 minutes
	system time =       0.00 seconds =       0.00 minutes
	total time  =          0 seconds =       0.00 minutes
Total time:
	user time   =       1.08 seconds =       0.02 minutes
	system time =       0.13 seconds =       0.00 minutes
	total time  =          1 seconds =       0.02 minutes
 MINTS: Wrapper to libmints.
   by Justin Turney

   Calculation information:
      Number of threads:                 1
      Number of atoms:                   4
      Number of AO shells:              30
      Number of SO shells:              15
      Number of primitives:             52
      Number of atomic orbitals:        60
      Number of basis functions:        58

      Number of irreps:                  8
      Integral cutoff                 0.00e+00
      Number of functions per irrep: [  16    6    6    1    1    6    6   16 ]

 OEINTS: Overlap, kinetic, potential, dipole, and quadrupole integrals
         stored in file 35.

      Computing two-electron integrals...done
      Computed 213106 non-zero two-electron integrals.
        Stored in file 33.


*** tstart() called on atlantis
*** at Tue Apr 19 01:46:34 2022


	Wfn Parameters:
	--------------------
	Wavefunction         = CCSD
	Number of irreps     = 8
	Number of MOs        = 58
	Number of active MOs = 58
	AO-Basis             = NONE
	Semicanonical        = false
	Reference            = RHF
	Print Level          = 1

	IRREP	# MOs	# FZDC	# DOCC	# SOCC	# VIRT	# FZVR
	-----	-----	------	------	------	------	------
	 Ag	   16	    0	    3	    0	    13	    0
	 B1g	   6	    0	    0	    0	    6	    0
	 B2g	   6	    0	    0	    0	    6	    0
	 B3g	   1	    0	    0	    0	    1	    0
	 Au	   1	    0	    0	    0	    1	    0
	 B1u	   6	    0	    1	    0	    5	    0
	 B2u	   6	    0	    1	    0	    5	    0
	 B3u	   16	    0	    2	    0	    14	    0
	Transforming integrals...
	IWL integrals will be deleted.
	(OO|OO)...
	Presorting SO-basis two-electron integrals.
	Sorting File: SO Ints (nn|nn) nbuckets = 1
	Transforming the one-electron integrals and constructing Fock matrices
	Starting first half-transformation.
	Sorting half-transformed integrals.
	First half integral transformation complete.
	Starting second half-transformation.
	Two-electron integral transformation complete.
	(OO|OV)...
	Starting second half-transformation.
	Two-electron integral transformation complete.
	(OO|VV)...
	Starting second half-transformation.
	Two-electron integral transformation complete.
	(OV|OO)...
	Starting first half-transformation.
	Sorting half-transformed integrals.
	First half integral transformation complete.
	Starting second half-transformation.
	Two-electron integral transformation complete.
	(OV|OV)...
	Starting second half-transformation.
	Two-electron integral transformation complete.
	(OV|VV)...
	Starting second half-transformation.
	Two-electron integral transformation complete.
	(VV|OO)...
	Starting first half-transformation.
	Sorting half-transformed integrals.
	First half integral transformation complete.
	Starting second half-transformation.
	Two-electron integral transformation complete.
	(VV|OV)...
	Starting second half-transformation.
	Two-electron integral transformation complete.
	(VV|VV)...
	Starting second half-transformation.
	Two-electron integral transformation complete.
	Frozen core energy     =      0.00000000000000

	Size of irrep 0 of <ab|cd> integrals:      0.239 (MW) /      1.913 (MB)
	Size of irrep 1 of <ab|cd> integrals:      0.101 (MW) /      0.809 (MB)
	Size of irrep 2 of <ab|cd> integrals:      0.101 (MW) /      0.809 (MB)
	Size of irrep 3 of <ab|cd> integrals:      0.031 (MW) /      0.248 (MB)
	Size of irrep 4 of <ab|cd> integrals:      0.030 (MW) /      0.242 (MB)
	Size of irrep 5 of <ab|cd> integrals:      0.102 (MW) /      0.819 (MB)
	Size of irrep 6 of <ab|cd> integrals:      0.102 (MW) /      0.819 (MB)
	Size of irrep 7 of <ab|cd> integrals:      0.236 (MW) /      1.890 (MB)
	Total:                                     0.944 (MW) /      7.549 (MB)

	Size of irrep 0 of <ia|bc> integrals:      0.038 (MW) /      0.301 (MB)
	Size of irrep 1 of <ia|bc> integrals:      0.014 (MW) /      0.109 (MB)
	Size of irrep 2 of <ia|bc> integrals:      0.014 (MW) /      0.109 (MB)
	Size of irrep 3 of <ia|bc> integrals:      0.003 (MW) /      0.021 (MB)
	Size of irrep 4 of <ia|bc> integrals:      0.003 (MW) /      0.024 (MB)
	Size of irrep 5 of <ia|bc> integrals:      0.013 (MW) /      0.105 (MB)
	Size of irrep 6 of <ia|bc> integrals:      0.013 (MW) /      0.105 (MB)
	Size of irrep 7 of <ia|bc> integrals:      0.039 (MW) /      0.311 (MB)
	Total:                                     0.136 (MW) /      1.086 (MB)

	Size of irrep 0 of tijab amplitudes:       0.007 (MW) /      0.059 (MB)
	Size of irrep 1 of tijab amplitudes:       0.001 (MW) /      0.010 (MB)
	Size of irrep 2 of tijab amplitudes:       0.001 (MW) /      0.010 (MB)
	Size of irrep 3 of tijab amplitudes:       0.000 (MW) /      0.003 (MB)
	Size of irrep 4 of tijab amplitudes:       0.000 (MW) /      0.000 (MB)
	Size of irrep 5 of tijab amplitudes:       0.002 (MW) /      0.015 (MB)
	Size of irrep 6 of tijab amplitudes:       0.002 (MW) /      0.015 (MB)
	Size of irrep 7 of tijab amplitudes:       0.006 (MW) /      0.047 (MB)
	Total:                                     0.020 (MW) /      0.159 (MB)

	Nuclear Rep. energy          =     24.32321817137924
	SCF energy                   =    -76.83793386914419
	One-electron energy          =   -150.74436849146377
	Two-electron energy          =     49.58321645094027
	Reference energy             =    -76.83793386914427

*** tstop() called on atlantis at Tue Apr 19 01:46:34 2022
Module time:
	user time   =       0.06 seconds =       0.00 minutes
	system time =       0.03 seconds =       0.00 minutes
	total time  =          0 seconds =       0.00 minutes
Total time:
	user time   =       1.23 seconds =       0.02 minutes
	system time =       0.16 seconds =       0.00 minutes
	total time  =          2 seconds =       0.03 minutes
            **************************
            *                        *
            *        CCENERGY        *
            *                        *
            **************************

    Nuclear Rep. energy (wfn)     =   24.323218171379235
    SCF energy          (wfn)     =  -76.837933869144194
    Reference energy    (file100) =  -76.837933869144265

    Input parameters:
    -----------------
    Wave function   =     CCSD
    Reference wfn   =     RHF
    Brueckner       =     No
    Memory (Mbytes) =     524.3
    Maxiter         =     50
    R_Convergence   =     1.0e-07
    E_Convergence   =     1.0e-08
    Restart         =     Yes
    DIIS            =     Yes
    AO Basis        =     NONE
    ABCD            =     NEW
    Cache Level     =     2
    Cache Type      =     LOW
    Print Level     =     1
    Num. of threads =     1
    # Amps to Print =     10
    Print MP2 Amps? =     No
    Analyze T2 Amps =     No
    Print Pair Ener =     No
    Local CC        =     No
    SCS-MP2         =     False
    SCSN-MP2        =     False
    SCS-CCSD        =     False

    Using old T1 amplitudes.
    Using old T2 amplitudes.

MP2 correlation energy -0.3121946173549144
                Solving CC Amplitude Equations
                ------------------------------
  Iter             Energy              RMS        T1Diag      D1Diag    New D1Diag    D2Diag
  ----     ---------------------    ---------   ----------  ----------  ----------   --------
     0        -0.327743027042900    0.000e+00    0.012298    0.031005    0.031005    0.184402
     1        -0.327743028288967    2.558e-08    0.012298    0.031005    0.031005    0.184402
     2        -0.327743028561902    1.187e-08    0.012298    0.031005    0.031005    0.184402

    Iterations converged.


    Largest TIA Amplitudes:
              3  28         0.0212714747
              4  33         0.0212714747
              3  27         0.0149976657
              4  32         0.0149976657
              3  29         0.0133186689
              4  34         0.0133186689
              3  30         0.0079824936
              4  35         0.0079824936
              3  31         0.0065426520
              4  36         0.0065426520

    Largest TIjAb Amplitudes:
      3   3  20  20        -0.0740120984
      4   4  14  14        -0.0740120984
      3   3  19  20        -0.0484914429
      3   3  20  19        -0.0484914429
      4   4  13  14        -0.0484914429
      4   4  14  13        -0.0484914429
      3   4  20  14        -0.0454234432
      4   3  14  20        -0.0454234432
      3   3  20  21        -0.0330145663
      3   3  21  20        -0.0330145663

    SCF energy       (wfn)                    =  -76.837933869144194
    Reference energy (file100)                =  -76.837933869144265

    Opposite-spin MP2 correlation energy      =   -0.242194842252640
    Same-spin MP2 correlation energy          =   -0.069999775102275
    MP2 correlation energy                    =   -0.312194617354914
      * MP2 total energy                      =  -77.150128486499185

    Opposite-spin CCSD correlation energy     =   -0.268397081320581
    Same-spin CCSD correlation energy         =   -0.059345947241321
    CCSD correlation energy                   =   -0.327743028561902
      * CCSD total energy                     =  -77.165676897706163


			**************************
			*                        *
			*         CCHBAR         *
			*                        *
			**************************


			**************************
			*        CCLAMBDA        *
			**************************


	Nuclear Rep. energy (wfn)     =   24.323218171379235
	Reference           (wfn)     =                    0
	SCF energy          (wfn)     =  -76.837933869144194
	Reference energy    (CC_INFO) =  -76.837933869144265
	CCSD energy         (CC_INFO) =   -0.327743028561902
	Total CCSD energy   (CC_INFO) =  -77.165676897706163

	Input parameters:
	-----------------
	Maxiter           =     50
	Convergence       = 1.0e-07
	Restart           =     No
	Cache Level       =     2
	Model III         =     No
	DIIS              =     Yes
	AO Basis          =     No
	ABCD              =     NEW
	Local CC          =     No
	Parameters for left-handed eigenvectors:
	    Irr   Root  Ground-State?    EOM energy        R0
	  1   0     0        Yes       0.0000000000   1.0000000000
	Labels for eigenvector 1:
	LIA 0 -1, Lia 0 -1, LIJAB 0 -1, Lijab 0 -1, LIjAb 0 -1, 2LIjAb - LIjbA 0 -1
	Symmetry of left-hand state: Ag
	Symmetry of left-hand eigenvector: Ag

	          Solving Lambda Equations
	          ------------------------
	Iter     PseudoEnergy or Norm         RMS  
	----     ---------------------     --------
	   0        -0.327974003529672    0.000e+00
	   1        -0.318079990956104    1.944e-02
	   2        -0.316502682957610    4.125e-03
	   3        -0.316299402639896    1.228e-03
	   4        -0.316262236430354    3.324e-04
	   5        -0.316264784821703    1.117e-04
	   6        -0.316259959279984    2.890e-05
	   7        -0.316259835583533    1.076e-05
	   8        -0.316259577150103    3.508e-06
	   9        -0.316259508157665    7.657e-07
	  10        -0.316259517695150    1.883e-07
	  11        -0.316259513924414    5.333e-08

	Largest LIA Amplitudes:
	          3  28         0.0148583672
	          4  33         0.0148583672
	          3  27         0.0105714982
	          4  32         0.0105714982
	          3  29         0.0094888304
	          4  34         0.0094888304
	          2   3        -0.0073171591
	          3  30         0.0059079429
	          4  35         0.0059079429
	          2   2        -0.0052102231

	Largest LIjAb Amplitudes:
	  3   3  20  20        -0.0710730004
	  4   4  14  14        -0.0710730004
	  3   3  19  20        -0.0466434417
	  3   3  20  19        -0.0466434417
	  4   4  13  14        -0.0466434417
	  4   4  14  13        -0.0466434417
	  3   4  20  14        -0.0425058874
	  4   3  14  20        -0.0425058874
	  3   3  20  21        -0.0316065499
	  3   3  21  20        -0.0316065499

	Iterations converged.

	Overlap <L|e^T> =        0.86962689484

			**************************
			*                        *
			*        CCDENSITY       *
			*                        *
			**************************


	Input parameters:
	-----------------
	Wave function    =   CCSD
	Reference wfn    =   RHF
	Dertype          = 1
	Tolerance        = 1.0e-14
	Cache Level      = 2
	AO Basis         = No
	OPDM Only        = No
	Relax OPDM       = Yes
	Compute Xi       = No
	Use Zeta         = No
	Xi connected     = Yes
	Compute NO       = No

	Nuclear Rep. energy (wfn)     =   24.323218171379235
	SCF energy          (wfn)     =  -76.837933869144194
	Reference energy    (file100) =  -76.837933869144265
	CCSD energy         (CC_INFO) =   -0.327743028561902
	Total CCSD energy   (CC_INFO) =  -77.165676897706163
	Number of States = 1

	Ground?  State     EOM Energy       R0
	  Yes     0 Ag    0.0000000000   1.00000000

	Virial Theorem Data:
	--------------------
	Kinetic energy (ref)   =   76.547748015395143
	Kinetic energy (corr)  =    0.459935723294410
	Kinetic energy (total) =   77.007683738689551
	-V/T (ref)             =    2.003790913008842
	-V/T (corr)            =    1.712584415523014
	-V/T (total)           =    2.002051654475841
  Cartesian Displacement SALCs
  By SALC:
  Number of SALCs: 2, nirreps: Ag
  Project out translations: False
  Project out rotations: False
	irrep = 0, ncomponent = 2
		0: atom 0, direction x, coef 0.707107
		1: atom 1, direction x, coef -0.707107
	irrep = 0, ncomponent = 2
		0: atom 2, direction x, coef 0.707107
		1: atom 3, direction x, coef -0.707107

  By Atomic Center:
  Number of atomic centers: 4
   Atomic Center 0:
	x component, size = 1
		0: salc 0, irrep 0, coef 0.707107
	y component, size = 0
	z component, size = 0
   Atomic Center 1:
	x component, size = 1
		0: salc 0, irrep 0, coef -0.707107
	y component, size = 0
	z component, size = 0
   Atomic Center 2:
	x component, size = 1
		0: salc 1, irrep 0, coef 0.707107
	y component, size = 0
	z component, size = 0
   Atomic Center 3:
	x component, size = 1
		0: salc 1, irrep 0, coef -0.707107
	y component, size = 0
	z component, size = 0

    Molecular point group: d2h
    Full point group: D_inf_h

    Geometry (in Bohr), charge = 0, multiplicity = 1:

       Center              X                  Y                   Z       
    ------------   -----------------  -----------------  -----------------
         C           -1.161161115049    -0.000000000000     0.000000000000
         C            1.161161115049     0.000000000000     0.000000000000
         H           -3.192182062907    -0.000000000000     0.000000000000
         H            3.192182062907     0.000000000000     0.000000000000

	Presorting MO-basis TPDM.
	Sorting File: MO TPDM (AA|AA) nbuckets = 1
	Starting first half-transformation.
	Sorting half-transformed TPDM.
	First half integral transformation complete.


  -Nuclear Repulsion Energy 1st Derivatives:
     Atom            X                  Y                   Z
    ------   -----------------  -----------------  -----------------
       1        5.537163209075     0.000000000000     0.000000000000
       2       -5.537163209075    -0.000000000000     0.000000000000
       3        1.795659009002     0.000000000000     0.000000000000
       4       -1.795659009002    -0.000000000000     0.000000000000


  -Core Hamiltonian Gradient:
     Atom            X                  Y                   Z
    ------   -----------------  -----------------  -----------------
       1      -14.849441076502    -0.000000000000     0.000000000000
       2       14.849441076502     0.000000000000     0.000000000000
       3       -4.748073996430    -0.000000000000     0.000000000000
       4        4.748073996430     0.000000000000     0.000000000000


  -Lagrangian contribution to gradient:
     Atom            X                  Y                   Z
    ------   -----------------  -----------------  -----------------
       1        0.349989807937     0.000000000000     0.000000000000
       2       -0.349989807937    -0.000000000000     0.000000000000
       3        0.238461247417     0.000000000000     0.000000000000
       4       -0.238461247417    -0.000000000000     0.000000000000


  -Two-electron contribution to gradient:
     Atom            X                  Y                   Z
    ------   -----------------  -----------------  -----------------
       1        8.930413585395     0.000000000000     0.000000000000
       2       -8.930413585395    -0.000000000000     0.000000000000
       3        2.707262088609     0.000000000000     0.000000000000
       4       -2.707262088609    -0.000000000000     0.000000000000


  -Total gradient:
     Atom            X                  Y                   Z
    ------   -----------------  -----------------  -----------------
       1       -0.031874474095    -0.000000000000     0.000000000000
       2        0.031874474095     0.000000000000     0.000000000000
       3       -0.006691651402    -0.000000000000     0.000000000000
       4        0.006691651402     0.000000000000     0.000000000000


  Based on options and gradient (rms=1.33E-02), recommend projecting translations and not projecting rotations.
hessian() will perform frequency computation by finite difference of analytic gradients.

         ----------------------------------------------------------
                                   FINDIF
                     R. A. King and Jonathon Misiewicz
         ---------------------------------------------------------

  Using finite-differences of gradients to determine vibrational frequencies and 
  normal modes.  Resulting frequencies are only valid at stationary points.
    Generating geometries for use with 3-point formula.
    Displacement size will be 5.00e-03.
    Number of atoms is 4.
    Number of irreps is 8.
    Number of SALCs is 9.
    Translations projected? 1. Rotations projected? 0.
    Index of SALCs per irrep:
     1 :  0  1 
     2 :  2  3 
     3 :  4  5 
     4 : 
     5 : 
     6 :  6 
     7 :  7 
     8 :  8 
    Number of SALCs per irrep:
     Irrep 1: 2
     Irrep 2: 2
     Irrep 3: 2
     Irrep 4: 0
     Irrep 5: 0
     Irrep 6: 1
     Irrep 7: 1
     Irrep 8: 1
    Number of geometries (including reference) is 12.
    Number of displacements per irrep:
      Irrep 1: 4
      Irrep 2: 2
      Irrep 3: 2
      Irrep 4: 0
      Irrep 5: 0
      Irrep 6: 1
      Irrep 7: 1
      Irrep 8: 1

  //>>>>>>>>>>>>>>>>>>>>>>>>>>>>>>>>>>>//
  //    Loading displacement 1 of 12   //
  //<<<<<<<<<<<<<<<<<<<<<<<<<<<<<<<<<<<//
gradient() will perform analytic gradient computation.

*** tstart() called on atlantis
*** at Tue Apr 19 01:46:35 2022

   => Loading Basis Set <=

    Name: 6-311++G**
    Role: ORBITAL
    Keyword: BASIS
    atoms 1-2 entry C          line   119 file /home/akrom/software/anaconda3/envs/ffpenv/share/psi4/basis/6-311ppgss.gbs 
    atoms 3-4 entry H          line    42 file /home/akrom/software/anaconda3/envs/ffpenv/share/psi4/basis/6-311ppgss.gbs 


         ---------------------------------------------------------
                                   SCF
               by Justin Turney, Rob Parrish, Andy Simmonett
                          and Daniel G. A. Smith
                              RHF Reference
                        1 Threads,    500 MiB Core
         ---------------------------------------------------------

  ==> Geometry <==

    Molecular point group: d2h
    Full point group: D_inf_h

    Geometry (in Angstrom), charge = 0, multiplicity = 1:

       Center              X                  Y                   Z               Mass       
    ------------   -----------------  -----------------  -----------------  -----------------
         C           -0.614460000000    -0.000000000000     0.000000000000    12.000000000000
         C            0.614460000000     0.000000000000     0.000000000000    12.000000000000
         H           -1.689230000000    -0.000000000000     0.000000000000     1.007825032230
         H            1.689230000000     0.000000000000     0.000000000000     1.007825032230

  Running in d2h symmetry.

  Rotational constants: A = ************  B =      1.13802  C =      1.13802 [cm^-1]
  Rotational constants: A = ************  B =  34116.98697  C =  34116.98697 [MHz]
  Nuclear repulsion =   24.323218171379235

  Charge       = 0
  Multiplicity = 1
  Electrons    = 14
  Nalpha       = 7
  Nbeta        = 7

  ==> Algorithm <==

  SCF Algorithm Type is PK.
  DIIS enabled.
  MOM disabled.
  Fractional occupation disabled.
  Guess Type is SAD.
  Energy threshold   = 1.00e-10
  Density threshold  = 1.00e-10
  Integral threshold = 0.00e+00

  ==> Primary Basis <==

  Basis Set: 6-311++G**
    Blend: 6-311++G**
    Number of shells: 30
    Number of basis function: 58
    Number of Cartesian functions: 60
    Spherical Harmonics?: true
    Max angular momentum: 2

  ==> Pre-Iterations <==

   -------------------------------------------------------
    Irrep   Nso     Nmo     Nalpha   Nbeta   Ndocc  Nsocc
   -------------------------------------------------------
     Ag        16      16       0       0       0       0
     B1g        6       6       0       0       0       0
     B2g        6       6       0       0       0       0
     B3g        1       1       0       0       0       0
     Au         1       1       0       0       0       0
     B1u        6       6       0       0       0       0
     B2u        6       6       0       0       0       0
     B3u       16      16       0       0       0       0
   -------------------------------------------------------
    Total      58      58       7       7       7       0
   -------------------------------------------------------

  ==> Integral Setup <==

  Using in-core PK algorithm.
   Calculation information:
      Number of atoms:                   4
      Number of AO shells:              30
      Number of primitives:             52
      Number of atomic orbitals:        60
      Number of basis functions:        58

      Integral cutoff                 1.00e-12
      Number of threads:                 1

  Performing in-core PK
  Using 2929232 doubles for integral storage.
  We computed 108237 shell quartets total.
  Whereas there are 108345 unique shell quartets.

  ==> DiskJK: Disk-Based J/K Matrices <==

    J tasked:                  Yes
    K tasked:                  Yes
    wK tasked:                  No
    Memory [MiB]:              375
    Schwarz Cutoff:          1E-12

    OpenMP threads:              1

  Minimum eigenvalue in the overlap matrix is 1.6293470232E-05.
  Using Symmetric Orthogonalization.

  SCF Guess: Superposition of Atomic Densities via on-the-fly atomic UHF.

  ==> Iterations <==

                        Total Energy        Delta E     RMS |[F,P]|

   @RHF iter SAD:   -75.84273237962081   -7.58427e+01   0.00000e+00 
   @RHF iter   1:   -76.79390018173510   -9.51168e-01   1.10788e-02 DIIS
   @RHF iter   2:   -76.83301936122233   -3.91192e-02   3.79730e-03 DIIS
   @RHF iter   3:   -76.83779662464104   -4.77726e-03   4.40889e-04 DIIS
   @RHF iter   4:   -76.83793190429019   -1.35280e-04   5.05247e-05 DIIS
   @RHF iter   5:   -76.83793378688546   -1.88260e-06   9.74257e-06 DIIS
   @RHF iter   6:   -76.83793386730476   -8.04193e-08   1.40028e-06 DIIS
   @RHF iter   7:   -76.83793386908739   -1.78264e-09   2.54025e-07 DIIS
   @RHF iter   8:   -76.83793386914407   -5.66729e-11   1.24767e-08 DIIS
   @RHF iter   9:   -76.83793386914419   -1.27898e-13   1.60385e-09 DIIS
   @RHF iter  10:   -76.83793386914411    8.52651e-14   2.69517e-10 DIIS
   @RHF iter  11:   -76.83793386914419   -8.52651e-14   1.52872e-11 DIIS
  Energy and wave function converged.


  ==> Post-Iterations <==

    Orbital Energies [Eh]
    ---------------------

    Doubly Occupied:                                                      

       1Ag   -11.254401     1B3u  -11.251158     2Ag    -1.025178  
       2B3u   -0.767822     3Ag    -0.678497     1B2u   -0.405955  
       1B1u   -0.405955  

    Virtual:                                                              

       4Ag     0.042187     3B3u    0.047051     1B1g    0.111234  
       1B2g    0.111234     2B1u    0.127573     2B2u    0.127573  
       5Ag     0.150119     4B3u    0.166754     6Ag     0.188271  
       5B3u    0.216905     2B1g    0.241730     2B2g    0.241730  
       6B3u    0.347558     7Ag     0.379767     7B3u    0.568202  
       8Ag     0.615151     3B2u    0.707833     3B1u    0.707833  
       3B1g    0.816254     3B2g    0.816254     9Ag     0.865650  
       8B3u    0.872596    10Ag     1.009280     9B3u    1.205502  
      10B3u    1.280171     4B2u    1.281030     4B1u    1.281030  
       1B3g    1.414111    11Ag     1.414111     4B1g    1.682950  
       4B2g    1.682950    11B3u    1.836649     1Au     1.836649  
      12Ag     2.014590     5B2u    2.102659     5B1u    2.102659  
      12B3u    2.448443     5B1g    2.780776     5B2g    2.780776  
      13Ag     2.858285    13B3u    2.926988     6B2u    3.121475  
       6B1u    3.121475    14Ag     3.313003     6B1g    3.345517  
       6B2g    3.345517    14B3u    3.693832    15Ag     3.716044  
      15B3u    4.140980    16Ag    24.694554    16B3u   26.203033  

    Final Occupation by Irrep:
             Ag   B1g   B2g   B3g    Au   B1u   B2u   B3u 
    DOCC [     3,    0,    0,    0,    0,    1,    1,    2 ]

  @RHF Final Energy:   -76.83793386914419

   => Energetics <=

    Nuclear Repulsion Energy =             24.3232181713792350
    One-Electron Energy =                -150.7443684919030886
    Two-Electron Energy =                  49.5832164513796556
    Total Energy =                        -76.8379338691441944

Computation Completed


Properties will be evaluated at   0.000000,   0.000000,   0.000000 [a0]

Properties computed using the SCF density matrix

  Nuclear Dipole Moment: [e a0]
     X:     0.0000      Y:     0.0000      Z:     0.0000

  Electronic Dipole Moment: [e a0]
     X:     0.0000      Y:     0.0000      Z:     0.0000

  Dipole Moment: [e a0]
     X:     0.0000      Y:     0.0000      Z:     0.0000     Total:     0.0000

  Dipole Moment: [D]
     X:     0.0000      Y:     0.0000      Z:     0.0000     Total:     0.0000


*** tstop() called on atlantis at Tue Apr 19 01:46:35 2022
Module time:
	user time   =       0.39 seconds =       0.01 minutes
	system time =       0.01 seconds =       0.00 minutes
	total time  =          0 seconds =       0.00 minutes
Total time:
	user time   =       2.45 seconds =       0.04 minutes
	system time =       0.34 seconds =       0.01 minutes
	total time  =          3 seconds =       0.05 minutes
 MINTS: Wrapper to libmints.
   by Justin Turney

   Calculation information:
      Number of threads:                 1
      Number of atoms:                   4
      Number of AO shells:              30
      Number of SO shells:              15
      Number of primitives:             52
      Number of atomic orbitals:        60
      Number of basis functions:        58

      Number of irreps:                  8
      Integral cutoff                 0.00e+00
      Number of functions per irrep: [  16    6    6    1    1    6    6   16 ]

 OEINTS: Overlap, kinetic, potential, dipole, and quadrupole integrals
         stored in file 35.

      Computing two-electron integrals...done
      Computed 213106 non-zero two-electron integrals.
        Stored in file 33.


*** tstart() called on atlantis
*** at Tue Apr 19 01:46:35 2022


	Wfn Parameters:
	--------------------
	Wavefunction         = CCSD
	Number of irreps     = 8
	Number of MOs        = 58
	Number of active MOs = 58
	AO-Basis             = NONE
	Semicanonical        = false
	Reference            = RHF
	Print Level          = 1

	IRREP	# MOs	# FZDC	# DOCC	# SOCC	# VIRT	# FZVR
	-----	-----	------	------	------	------	------
	 Ag	   16	    0	    3	    0	    13	    0
	 B1g	   6	    0	    0	    0	    6	    0
	 B2g	   6	    0	    0	    0	    6	    0
	 B3g	   1	    0	    0	    0	    1	    0
	 Au	   1	    0	    0	    0	    1	    0
	 B1u	   6	    0	    1	    0	    5	    0
	 B2u	   6	    0	    1	    0	    5	    0
	 B3u	   16	    0	    2	    0	    14	    0
	Transforming integrals...
	IWL integrals will be deleted.
	(OO|OO)...
	Presorting SO-basis two-electron integrals.
	Sorting File: SO Ints (nn|nn) nbuckets = 1
	Transforming the one-electron integrals and constructing Fock matrices
	Starting first half-transformation.
	Sorting half-transformed integrals.
	First half integral transformation complete.
	Starting second half-transformation.
	Two-electron integral transformation complete.
	(OO|OV)...
	Starting second half-transformation.
	Two-electron integral transformation complete.
	(OO|VV)...
	Starting second half-transformation.
	Two-electron integral transformation complete.
	(OV|OO)...
	Starting first half-transformation.
	Sorting half-transformed integrals.
	First half integral transformation complete.
	Starting second half-transformation.
	Two-electron integral transformation complete.
	(OV|OV)...
	Starting second half-transformation.
	Two-electron integral transformation complete.
	(OV|VV)...
	Starting second half-transformation.
	Two-electron integral transformation complete.
	(VV|OO)...
	Starting first half-transformation.
	Sorting half-transformed integrals.
	First half integral transformation complete.
	Starting second half-transformation.
	Two-electron integral transformation complete.
	(VV|OV)...
	Starting second half-transformation.
	Two-electron integral transformation complete.
	(VV|VV)...
	Starting second half-transformation.
	Two-electron integral transformation complete.
	Frozen core energy     =      0.00000000000000

	Size of irrep 0 of <ab|cd> integrals:      0.239 (MW) /      1.913 (MB)
	Size of irrep 1 of <ab|cd> integrals:      0.101 (MW) /      0.809 (MB)
	Size of irrep 2 of <ab|cd> integrals:      0.101 (MW) /      0.809 (MB)
	Size of irrep 3 of <ab|cd> integrals:      0.031 (MW) /      0.248 (MB)
	Size of irrep 4 of <ab|cd> integrals:      0.030 (MW) /      0.242 (MB)
	Size of irrep 5 of <ab|cd> integrals:      0.102 (MW) /      0.819 (MB)
	Size of irrep 6 of <ab|cd> integrals:      0.102 (MW) /      0.819 (MB)
	Size of irrep 7 of <ab|cd> integrals:      0.236 (MW) /      1.890 (MB)
	Total:                                     0.944 (MW) /      7.549 (MB)

	Size of irrep 0 of <ia|bc> integrals:      0.038 (MW) /      0.301 (MB)
	Size of irrep 1 of <ia|bc> integrals:      0.014 (MW) /      0.109 (MB)
	Size of irrep 2 of <ia|bc> integrals:      0.014 (MW) /      0.109 (MB)
	Size of irrep 3 of <ia|bc> integrals:      0.003 (MW) /      0.021 (MB)
	Size of irrep 4 of <ia|bc> integrals:      0.003 (MW) /      0.024 (MB)
	Size of irrep 5 of <ia|bc> integrals:      0.013 (MW) /      0.105 (MB)
	Size of irrep 6 of <ia|bc> integrals:      0.013 (MW) /      0.105 (MB)
	Size of irrep 7 of <ia|bc> integrals:      0.039 (MW) /      0.311 (MB)
	Total:                                     0.136 (MW) /      1.086 (MB)

	Size of irrep 0 of tijab amplitudes:       0.007 (MW) /      0.059 (MB)
	Size of irrep 1 of tijab amplitudes:       0.001 (MW) /      0.010 (MB)
	Size of irrep 2 of tijab amplitudes:       0.001 (MW) /      0.010 (MB)
	Size of irrep 3 of tijab amplitudes:       0.000 (MW) /      0.003 (MB)
	Size of irrep 4 of tijab amplitudes:       0.000 (MW) /      0.000 (MB)
	Size of irrep 5 of tijab amplitudes:       0.002 (MW) /      0.015 (MB)
	Size of irrep 6 of tijab amplitudes:       0.002 (MW) /      0.015 (MB)
	Size of irrep 7 of tijab amplitudes:       0.006 (MW) /      0.047 (MB)
	Total:                                     0.020 (MW) /      0.159 (MB)

	Nuclear Rep. energy          =     24.32321817137924
	SCF energy                   =    -76.83793386914419
	One-electron energy          =   -150.74436849146377
	Two-electron energy          =     49.58321645094027
	Reference energy             =    -76.83793386914427

*** tstop() called on atlantis at Tue Apr 19 01:46:35 2022
Module time:
	user time   =       0.05 seconds =       0.00 minutes
	system time =       0.04 seconds =       0.00 minutes
	total time  =          0 seconds =       0.00 minutes
Total time:
	user time   =       2.59 seconds =       0.04 minutes
	system time =       0.38 seconds =       0.01 minutes
	total time  =          3 seconds =       0.05 minutes
            **************************
            *                        *
            *        CCENERGY        *
            *                        *
            **************************

    Nuclear Rep. energy (wfn)     =   24.323218171379235
    SCF energy          (wfn)     =  -76.837933869144194
    Reference energy    (file100) =  -76.837933869144265

    Input parameters:
    -----------------
    Wave function   =     CCSD
    Reference wfn   =     RHF
    Brueckner       =     No
    Memory (Mbytes) =     524.3
    Maxiter         =     50
    R_Convergence   =     1.0e-07
    E_Convergence   =     1.0e-08
    Restart         =     Yes
    DIIS            =     Yes
    AO Basis        =     NONE
    ABCD            =     NEW
    Cache Level     =     2
    Cache Type      =     LOW
    Print Level     =     1
    Num. of threads =     1
    # Amps to Print =     10
    Print MP2 Amps? =     No
    Analyze T2 Amps =     No
    Print Pair Ener =     No
    Local CC        =     No
    SCS-MP2         =     False
    SCSN-MP2        =     False
    SCS-CCSD        =     False

MP2 correlation energy -0.3121946173549144
                Solving CC Amplitude Equations
                ------------------------------
  Iter             Energy              RMS        T1Diag      D1Diag    New D1Diag    D2Diag
  ----     ---------------------    ---------   ----------  ----------  ----------   --------
     0        -0.312194617354914    0.000e+00    0.000000    0.000000    0.000000    0.162031
     1        -0.314634576038179    5.679e-02    0.010156    0.025725    0.025725    0.162831
     2        -0.324668087252586    2.395e-02    0.010461    0.026339    0.026339    0.174321
     3        -0.327371625097381    1.070e-02    0.012191    0.030719    0.030719    0.181346
     4        -0.327661432704324    3.314e-03    0.012319    0.031035    0.031035    0.183822
     5        -0.327740215281047    7.568e-04    0.012325    0.031067    0.031067    0.184340
     6        -0.327740253576169    2.046e-04    0.012303    0.031017    0.031017    0.184385
     7        -0.327742882541509    4.231e-05    0.012299    0.031008    0.031008    0.184399
     8        -0.327743059079450    1.077e-05    0.012298    0.031006    0.031006    0.184401
     9        -0.327742937651291    2.686e-06    0.012298    0.031005    0.031005    0.184401
    10        -0.327743021295507    7.395e-07    0.012298    0.031005    0.031005    0.184402
    11        -0.327743023186127    1.891e-07    0.012298    0.031005    0.031005    0.184402
    12        -0.327743027198118    5.892e-08    0.012298    0.031005    0.031005    0.184402

    Iterations converged.


    Largest TIA Amplitudes:
              3  28         0.0212714735
              4  33         0.0212714735
              3  27         0.0149976645
              4  32         0.0149976645
              3  29         0.0133186687
              4  34         0.0133186687
              3  30         0.0079824935
              4  35         0.0079824935
              3  31         0.0065426517
              4  36         0.0065426517

    Largest TIjAb Amplitudes:
      3   3  20  20        -0.0740120949
      4   4  14  14        -0.0740120949
      3   3  19  20        -0.0484914401
      3   3  20  19        -0.0484914401
      4   4  13  14        -0.0484914401
      4   4  14  13        -0.0484914401
      3   4  20  14        -0.0454234433
      4   3  14  20        -0.0454234433
      3   3  20  21        -0.0330145650
      3   3  21  20        -0.0330145650

    SCF energy       (wfn)                    =  -76.837933869144194
    Reference energy (file100)                =  -76.837933869144265

    Opposite-spin MP2 correlation energy      =   -0.242194842252640
    Same-spin MP2 correlation energy          =   -0.069999775102275
    MP2 correlation energy                    =   -0.312194617354914
      * MP2 total energy                      =  -77.150128486499185

    Opposite-spin CCSD correlation energy     =   -0.268397079760170
    Same-spin CCSD correlation energy         =   -0.059345947437948
    CCSD correlation energy                   =   -0.327743027198118
      * CCSD total energy                     =  -77.165676896342390


			**************************
			*                        *
			*         CCHBAR         *
			*                        *
			**************************


			**************************
			*        CCLAMBDA        *
			**************************


	Nuclear Rep. energy (wfn)     =   24.323218171379235
	Reference           (wfn)     =                    0
	SCF energy          (wfn)     =  -76.837933869144194
	Reference energy    (CC_INFO) =  -76.837933869144265
	CCSD energy         (CC_INFO) =   -0.327743027198118
	Total CCSD energy   (CC_INFO) =  -77.165676896342390

	Input parameters:
	-----------------
	Maxiter           =     50
	Convergence       = 1.0e-07
	Restart           =     No
	Cache Level       =     2
	Model III         =     No
	DIIS              =     Yes
	AO Basis          =     No
	ABCD              =     NEW
	Local CC          =     No
	Parameters for left-handed eigenvectors:
	    Irr   Root  Ground-State?    EOM energy        R0
	  1   0     0        Yes       0.0000000000   1.0000000000
	Labels for eigenvector 1:
	LIA 0 -1, Lia 0 -1, LIJAB 0 -1, Lijab 0 -1, LIjAb 0 -1, 2LIjAb - LIjbA 0 -1
	Symmetry of left-hand state: Ag
	Symmetry of left-hand eigenvector: Ag

	          Solving Lambda Equations
	          ------------------------
	Iter     PseudoEnergy or Norm         RMS  
	----     ---------------------     --------
	   0        -0.327974002154656    5.333e-08
	   1        -0.318079990712930    1.944e-02
	   2        -0.316502683190256    4.125e-03
	   3        -0.316299402863851    1.228e-03
	   4        -0.316262236621110    3.324e-04
	   5        -0.316264784989159    1.117e-04
	   6        -0.316259959448639    2.890e-05
	   7        -0.316259835748274    1.076e-05
	   8        -0.316259577319048    3.508e-06
	   9        -0.316259508324062    7.657e-07
	  10        -0.316259517862297    1.883e-07
	  11        -0.316259514091419    5.333e-08

	Largest LIA Amplitudes:
	          3  28         0.0148583671
	          4  33         0.0148583671
	          3  27         0.0105714981
	          4  32         0.0105714981
	          3  29         0.0094888307
	          4  34         0.0094888307
	          2   3        -0.0073171590
	          3  30         0.0059079431
	          4  35         0.0059079431
	          2   2        -0.0052102230

	Largest LIjAb Amplitudes:
	  3   3  20  20        -0.0710730004
	  4   4  14  14        -0.0710730004
	  3   3  19  20        -0.0466434417
	  3   3  20  19        -0.0466434417
	  4   4  13  14        -0.0466434417
	  4   4  14  13        -0.0466434417
	  3   4  20  14        -0.0425058876
	  4   3  14  20        -0.0425058876
	  3   3  20  21        -0.0316065499
	  3   3  21  20        -0.0316065499

	Iterations converged.

	Overlap <L|e^T> =        0.86962689575

			**************************
			*                        *
			*        CCDENSITY       *
			*                        *
			**************************


	Input parameters:
	-----------------
	Wave function    =   CCSD
	Reference wfn    =   RHF
	Dertype          = 1
	Tolerance        = 1.0e-14
	Cache Level      = 2
	AO Basis         = No
	OPDM Only        = No
	Relax OPDM       = Yes
	Compute Xi       = No
	Use Zeta         = No
	Xi connected     = Yes
	Compute NO       = No

	Nuclear Rep. energy (wfn)     =   24.323218171379235
	SCF energy          (wfn)     =  -76.837933869144194
	Reference energy    (file100) =  -76.837933869144265
	CCSD energy         (CC_INFO) =   -0.327743027198118
	Total CCSD energy   (CC_INFO) =  -77.165676896342390
	Number of States = 1

	Ground?  State     EOM Energy       R0
	  Yes     0 Ag    0.0000000000   1.00000000

	Virial Theorem Data:
	--------------------
	Kinetic energy (ref)   =   76.547748015395143
	Kinetic energy (corr)  =    0.459935710627359
	Kinetic energy (total) =   77.007683726022506
	-V/T (ref)             =    2.003790913008842
	-V/T (corr)            =    1.712584432183081
	-V/T (total)           =    2.002051654622959
  Cartesian Displacement SALCs
  By SALC:
  Number of SALCs: 2, nirreps: Ag
  Project out translations: False
  Project out rotations: False
	irrep = 0, ncomponent = 2
		0: atom 0, direction x, coef 0.707107
		1: atom 1, direction x, coef -0.707107
	irrep = 0, ncomponent = 2
		0: atom 2, direction x, coef 0.707107
		1: atom 3, direction x, coef -0.707107

  By Atomic Center:
  Number of atomic centers: 4
   Atomic Center 0:
	x component, size = 1
		0: salc 0, irrep 0, coef 0.707107
	y component, size = 0
	z component, size = 0
   Atomic Center 1:
	x component, size = 1
		0: salc 0, irrep 0, coef -0.707107
	y component, size = 0
	z component, size = 0
   Atomic Center 2:
	x component, size = 1
		0: salc 1, irrep 0, coef 0.707107
	y component, size = 0
	z component, size = 0
   Atomic Center 3:
	x component, size = 1
		0: salc 1, irrep 0, coef -0.707107
	y component, size = 0
	z component, size = 0

    Molecular point group: d2h
    Full point group: D_inf_h

    Geometry (in Bohr), charge = 0, multiplicity = 1:

       Center              X                  Y                   Z       
    ------------   -----------------  -----------------  -----------------
         C           -1.161161115049    -0.000000000000     0.000000000000
         C            1.161161115049     0.000000000000     0.000000000000
         H           -3.192182062907    -0.000000000000     0.000000000000
         H            3.192182062907     0.000000000000     0.000000000000

	Presorting MO-basis TPDM.
	Sorting File: MO TPDM (AA|AA) nbuckets = 1
	Starting first half-transformation.
	Sorting half-transformed TPDM.
	First half integral transformation complete.


  -Nuclear Repulsion Energy 1st Derivatives:
     Atom            X                  Y                   Z
    ------   -----------------  -----------------  -----------------
       1        5.537163209075     0.000000000000     0.000000000000
       2       -5.537163209075    -0.000000000000     0.000000000000
       3        1.795659009002     0.000000000000     0.000000000000
       4       -1.795659009002    -0.000000000000     0.000000000000


  -Core Hamiltonian Gradient:
     Atom            X                  Y                   Z
    ------   -----------------  -----------------  -----------------
       1      -14.849441054650    -0.000000000000     0.000000000000
       2       14.849441054650     0.000000000000     0.000000000000
       3       -4.748074005050    -0.000000000000     0.000000000000
       4        4.748074005050     0.000000000000     0.000000000000


  -Lagrangian contribution to gradient:
     Atom            X                  Y                   Z
    ------   -----------------  -----------------  -----------------
       1        0.349989804668     0.000000000000     0.000000000000
       2       -0.349989804668    -0.000000000000     0.000000000000
       3        0.238461247649     0.000000000000     0.000000000000
       4       -0.238461247649    -0.000000000000     0.000000000000


  -Two-electron contribution to gradient:
     Atom            X                  Y                   Z
    ------   -----------------  -----------------  -----------------
       1        8.930413566174     0.000000000000     0.000000000000
       2       -8.930413566174    -0.000000000000     0.000000000000
       3        2.707262097121     0.000000000000     0.000000000000
       4       -2.707262097121    -0.000000000000     0.000000000000


  -Total gradient:
     Atom            X                  Y                   Z
    ------   -----------------  -----------------  -----------------
       1       -0.031874474732    -0.000000000000     0.000000000000
       2        0.031874474732     0.000000000000     0.000000000000
       3       -0.006691651279    -0.000000000000     0.000000000000
       4        0.006691651279     0.000000000000     0.000000000000


  //>>>>>>>>>>>>>>>>>>>>>>>>>>>>>>>>>>>//
  //    Loading displacement 2 of 12   //
  //<<<<<<<<<<<<<<<<<<<<<<<<<<<<<<<<<<<//
gradient() will perform analytic gradient computation.

*** tstart() called on atlantis
*** at Tue Apr 19 01:46:36 2022

   => Loading Basis Set <=

    Name: 6-311++G**
    Role: ORBITAL
    Keyword: BASIS
    atoms 1-2 entry C          line   119 file /home/akrom/software/anaconda3/envs/ffpenv/share/psi4/basis/6-311ppgss.gbs 
    atoms 3-4 entry H          line    42 file /home/akrom/software/anaconda3/envs/ffpenv/share/psi4/basis/6-311ppgss.gbs 


         ---------------------------------------------------------
                                   SCF
               by Justin Turney, Rob Parrish, Andy Simmonett
                          and Daniel G. A. Smith
                              RHF Reference
                        1 Threads,    500 MiB Core
         ---------------------------------------------------------

  ==> Geometry <==

    Molecular point group: d2h
    Full point group: D_inf_h

    Geometry (in Angstrom), charge = 0, multiplicity = 1:

       Center              X                  Y                   Z               Mass       
    ------------   -----------------  -----------------  -----------------  -----------------
         C           -0.615000089229    -0.000000000000     0.000000000000    12.000000000000
         C            0.615000089229     0.000000000000     0.000000000000    12.000000000000
         H           -1.689230000000    -0.000000000000     0.000000000000     1.007825032230
         H            1.689230000000     0.000000000000     0.000000000000     1.007825032230

  Running in d2h symmetry.

  Rotational constants: A = ************  B =      1.13680  C =      1.13680 [cm^-1]
  Rotational constants: A = ************  B =  34080.32226  C =  34080.32226 [MHz]
  Nuclear repulsion =   24.311929094340595

  Charge       = 0
  Multiplicity = 1
  Electrons    = 14
  Nalpha       = 7
  Nbeta        = 7

  ==> Algorithm <==

  SCF Algorithm Type is PK.
  DIIS enabled.
  MOM disabled.
  Fractional occupation disabled.
  Guess Type is SAD.
  Energy threshold   = 1.00e-10
  Density threshold  = 1.00e-10
  Integral threshold = 0.00e+00

  ==> Primary Basis <==

  Basis Set: 6-311++G**
    Blend: 6-311++G**
    Number of shells: 30
    Number of basis function: 58
    Number of Cartesian functions: 60
    Spherical Harmonics?: true
    Max angular momentum: 2

  ==> Pre-Iterations <==

   -------------------------------------------------------
    Irrep   Nso     Nmo     Nalpha   Nbeta   Ndocc  Nsocc
   -------------------------------------------------------
     Ag        16      16       0       0       0       0
     B1g        6       6       0       0       0       0
     B2g        6       6       0       0       0       0
     B3g        1       1       0       0       0       0
     Au         1       1       0       0       0       0
     B1u        6       6       0       0       0       0
     B2u        6       6       0       0       0       0
     B3u       16      16       0       0       0       0
   -------------------------------------------------------
    Total      58      58       7       7       7       0
   -------------------------------------------------------

  ==> Integral Setup <==

  Using in-core PK algorithm.
   Calculation information:
      Number of atoms:                   4
      Number of AO shells:              30
      Number of primitives:             52
      Number of atomic orbitals:        60
      Number of basis functions:        58

      Integral cutoff                 1.00e-12
      Number of threads:                 1

  Performing in-core PK
  Using 2929232 doubles for integral storage.
  We computed 108237 shell quartets total.
  Whereas there are 108345 unique shell quartets.

  ==> DiskJK: Disk-Based J/K Matrices <==

    J tasked:                  Yes
    K tasked:                  Yes
    wK tasked:                  No
    Memory [MiB]:              375
    Schwarz Cutoff:          1E-12

    OpenMP threads:              1

  Minimum eigenvalue in the overlap matrix is 1.6397172283E-05.
  Using Symmetric Orthogonalization.

  SCF Guess: Superposition of Atomic Densities via on-the-fly atomic UHF.

  ==> Iterations <==

                        Total Energy        Delta E     RMS |[F,P]|

   @RHF iter SAD:   -75.84171016378248   -7.58417e+01   0.00000e+00 
   @RHF iter   1:   -76.79388882992527   -9.52179e-01   1.10528e-02 DIIS
   @RHF iter   2:   -76.83287597158585   -3.89871e-02   3.78640e-03 DIIS
   @RHF iter   3:   -76.83762665492192   -4.75068e-03   4.41069e-04 DIIS
   @RHF iter   4:   -76.83776225131788   -1.35596e-04   5.06781e-05 DIIS
   @RHF iter   5:   -76.83776414596332   -1.89465e-06   9.76422e-06 DIIS
   @RHF iter   6:   -76.83776422683714   -8.08738e-08   1.39849e-06 DIIS
   @RHF iter   7:   -76.83776422861345   -1.77631e-09   2.54448e-07 DIIS
   @RHF iter   8:   -76.83776422867027   -5.68150e-11   1.24659e-08 DIIS
   @RHF iter   9:   -76.83776422867032   -5.68434e-14   1.60161e-09 DIIS
   @RHF iter  10:   -76.83776422867051   -1.84741e-13   2.68959e-10 DIIS
   @RHF iter  11:   -76.83776422867038    1.27898e-13   1.53082e-11 DIIS
  Energy and wave function converged.


  ==> Post-Iterations <==

    Orbital Energies [Eh]
    ---------------------

    Doubly Occupied:                                                      

       1Ag   -11.254709     1B3u  -11.251486     2Ag    -1.024907  
       2B3u   -0.768220     3Ag    -0.678669     1B1u   -0.405740  
       1B2u   -0.405740  

    Virtual:                                                              

       4Ag     0.042178     3B3u    0.047047     1B1g    0.111134  
       1B2g    0.111134     2B1u    0.127595     2B2u    0.127595  
       5Ag     0.150135     4B3u    0.166749     6Ag     0.188249  
       5B3u    0.216881     2B2g    0.241442     2B1g    0.241442  
       6B3u    0.347523     7Ag     0.379858     7B3u    0.567893  
       8Ag     0.615278     3B1u    0.707972     3B2u    0.707972  
       3B1g    0.816006     3B2g    0.816006     9Ag     0.865582  
       8B3u    0.872629    10Ag     1.009457     9B3u    1.205518  
      10B3u    1.278835     4B2u    1.280673     4B1u    1.280673  
       1B3g    1.414251    11Ag     1.414251     4B1g    1.682783  
       4B2g    1.682783    11B3u    1.836083     1Au     1.836083  
      12Ag     2.014531     5B2u    2.102497     5B1u    2.102497  
      12B3u    2.447495     5B2g    2.780334     5B1g    2.780334  
      13Ag     2.857979    13B3u    2.927533     6B2u    3.121292  
       6B1u    3.121292    14Ag     3.314095     6B1g    3.345028  
       6B2g    3.345028    14B3u    3.694613    15Ag     3.714749  
      15B3u    4.140464    16Ag    24.694646    16B3u   26.199473  

    Final Occupation by Irrep:
             Ag   B1g   B2g   B3g    Au   B1u   B2u   B3u 
    DOCC [     3,    0,    0,    0,    0,    1,    1,    2 ]

  @RHF Final Energy:   -76.83776422867038

   => Energetics <=

    Nuclear Repulsion Energy =             24.3119290943405950
    One-Electron Energy =                -150.7204467130647458
    Two-Electron Energy =                  49.5707533900537669
    Total Energy =                        -76.8377642286703804

Computation Completed


Properties will be evaluated at   0.000000,   0.000000,   0.000000 [a0]

Properties computed using the SCF density matrix

  Nuclear Dipole Moment: [e a0]
     X:     0.0000      Y:     0.0000      Z:     0.0000

  Electronic Dipole Moment: [e a0]
     X:     0.0000      Y:     0.0000      Z:     0.0000

  Dipole Moment: [e a0]
     X:     0.0000      Y:     0.0000      Z:     0.0000     Total:     0.0000

  Dipole Moment: [D]
     X:     0.0000      Y:     0.0000      Z:     0.0000     Total:     0.0000


[...]
    12        -0.327743112747178    5.892e-08    0.012298    0.031005    0.031005    0.184402

    Iterations converged.


    Largest TIA Amplitudes:
              5  32         0.0212714818
              6  43         0.0212714818
              5  30         0.0149976607
              6  41         0.0149976607
              5  34         0.0133186710
              6  45         0.0133186710
              5  36         0.0079824049
              6  47         0.0079824049
              5  38         0.0065426347
              6  49         0.0065426347

    Largest TIjAb Amplitudes:
      5   5  31  31        -0.0740121583
      6   6  42  42        -0.0740121583
      5   5  29  31        -0.0484914233
      5   5  31  29        -0.0484914233
      6   6  40  42        -0.0484914233
      6   6  42  40        -0.0484914233
      5   6  31  42        -0.0454234780
      6   5  42  31        -0.0454234780
      5   5  31  33        -0.0330145713
      5   5  33  31        -0.0330145713

    SCF energy       (wfn)                    =  -76.837928446845993
    Reference energy (file100)                =  -76.837928446846107

    Opposite-spin MP2 correlation energy      =   -0.242194889190562
    Same-spin MP2 correlation energy          =   -0.069999790938538
    MP2 correlation energy                    =   -0.312194680129099
      * MP2 total energy                      =  -77.150123126975203

    Opposite-spin CCSD correlation energy     =   -0.268397171442640
    Same-spin CCSD correlation energy         =   -0.059345941304537
    CCSD correlation energy                   =   -0.327743112747178
      * CCSD total energy                     =  -77.165671559593278


			**************************
			*                        *
			*         CCHBAR         *
			*                        *
			**************************


			**************************
			*        CCLAMBDA        *
			**************************


	Nuclear Rep. energy (wfn)     =   24.323239383855910
	Reference           (wfn)     =                    0
	SCF energy          (wfn)     =  -76.837928446845993
	Reference energy    (CC_INFO) =  -76.837928446846107
	CCSD energy         (CC_INFO) =   -0.327743112747178
	Total CCSD energy   (CC_INFO) =  -77.165671559593278

	Input parameters:
	-----------------
	Maxiter           =     50
	Convergence       = 1.0e-07
	Restart           =     No
	Cache Level       =     2
	Model III         =     No
	DIIS              =     Yes
	AO Basis          =     No
	ABCD              =     NEW
	Local CC          =     No
	Parameters for left-handed eigenvectors:
	    Irr   Root  Ground-State?    EOM energy        R0
	  1   0     0        Yes       0.0000000000   1.0000000000
	Labels for eigenvector 1:
	LIA 0 -1, Lia 0 -1, LIJAB 0 -1, Lijab 0 -1, LIjAb 0 -1, 2LIjAb - LIjbA 0 -1
	Symmetry of left-hand state: A1
	Symmetry of left-hand eigenvector: A1

	          Solving Lambda Equations
	          ------------------------
	Iter     PseudoEnergy or Norm         RMS  
	----     ---------------------     --------
	   0        -0.327974087917006    5.334e-08
	   1        -0.318080055530580    1.944e-02
	   2        -0.316502746540280    4.125e-03
	   3        -0.316299465219316    1.228e-03
	   4        -0.316262298404898    3.324e-04
	   5        -0.316264846380645    1.117e-04
	   6        -0.316260021255482    2.891e-05
	   7        -0.316259897005434    1.077e-05
	   8        -0.316259638969938    3.509e-06
	   9        -0.316259569769158    7.663e-07
	  10        -0.316259579354492    1.885e-07
	  11        -0.316259575577540    5.335e-08

	Largest LIA Amplitudes:
	          5  32         0.0148583755
	          6  43         0.0148583755
	          5  30         0.0105715001
	          6  41         0.0105715001
	          5  34         0.0094888292
	          6  45         0.0094888292
	          4   7        -0.0073155693
	          5  36         0.0059078857
	          6  47         0.0059078857
	          4   4        -0.0052099451

	Largest LIjAb Amplitudes:
	  5   5  31  31        -0.0710730637
	  6   6  42  42        -0.0710730637
	  5   5  29  31        -0.0466434265
	  5   5  31  29        -0.0466434265
	  6   6  40  42        -0.0466434265
	  6   6  42  40        -0.0466434265
	  5   6  31  42        -0.0425059201
	  6   5  42  31        -0.0425059201
	  5   5  31  33        -0.0316065569
	  5   5  33  31        -0.0316065569

	Iterations converged.

	Overlap <L|e^T> =        0.86962665656

			**************************
			*                        *
			*        CCDENSITY       *
			*                        *
			**************************


	Input parameters:
	-----------------
	Wave function    =   CCSD
	Reference wfn    =   RHF
	Dertype          = 1
	Tolerance        = 1.0e-14
	Cache Level      = 2
	AO Basis         = No
	OPDM Only        = No
	Relax OPDM       = Yes
	Compute Xi       = No
	Use Zeta         = No
	Xi connected     = Yes
	Compute NO       = No

	Nuclear Rep. energy (wfn)     =   24.323239383855910
	SCF energy          (wfn)     =  -76.837928446845993
	Reference energy    (file100) =  -76.837928446846107
	CCSD energy         (CC_INFO) =   -0.327743112747178
	Total CCSD energy   (CC_INFO) =  -77.165671559593278
	Number of States = 1

	Ground?  State     EOM Energy       R0
	  Yes     0 A1    0.0000000000   1.00000000

	Virial Theorem Data:
	--------------------
	Kinetic energy (ref)   =   76.547762728497162
	Kinetic energy (corr)  =    0.459935841783731
	Kinetic energy (total) =   77.007698570280894
	-V/T (ref)             =    2.003790649236583
	-V/T (corr)            =    1.712584414983009
	-V/T (total)           =    2.002051392162671
  Cartesian Displacement SALCs
  By SALC:
  Number of SALCs: 4, nirreps: A1
  Project out translations: False
  Project out rotations: False
	irrep = 0, ncomponent = 1
		0: atom 0, direction x, coef 1.000000
	irrep = 0, ncomponent = 1
		0: atom 1, direction x, coef 1.000000
	irrep = 0, ncomponent = 1
		0: atom 2, direction x, coef 1.000000
	irrep = 0, ncomponent = 1
		0: atom 3, direction x, coef 1.000000

  By Atomic Center:
  Number of atomic centers: 4
   Atomic Center 0:
	x component, size = 1
		0: salc 0, irrep 0, coef 1.000000
	y component, size = 0
	z component, size = 0
   Atomic Center 1:
	x component, size = 1
		0: salc 1, irrep 0, coef 1.000000
	y component, size = 0
	z component, size = 0
   Atomic Center 2:
	x component, size = 1
		0: salc 2, irrep 0, coef 1.000000
	y component, size = 0
	z component, size = 0
   Atomic Center 3:
	x component, size = 1
		0: salc 3, irrep 0, coef 1.000000
	y component, size = 0
	z component, size = 0

    Molecular point group: c2v
    Full point group: C_inf_v

    Geometry (in Bohr), charge = 0, multiplicity = 1:

       Center              X                  Y                   Z       
    ------------   -----------------  -----------------  -----------------
         C           -1.161445204175     0.000000000000     0.000000000000
         C            1.160877025923     0.000000000000     0.000000000000
         H           -3.188799462353     0.000000000000     0.000000000000
         H            3.195564663461     0.000000000000     0.000000000000

	Presorting MO-basis TPDM.
	Sorting File: MO TPDM (AA|AA) nbuckets = 1
	Starting first half-transformation.
	Sorting half-transformed TPDM.
	First half integral transformation complete.


  -Nuclear Repulsion Energy 1st Derivatives:
     Atom            X                  Y                   Z
    ------   -----------------  -----------------  -----------------
       1        5.531364458616     0.000000000000     0.000000000000
       2       -5.542934862809     0.000000000000     0.000000000000
       3        1.801459107056     0.000000000000     0.000000000000
       4       -1.789888702864     0.000000000000     0.000000000000


  -Core Hamiltonian Gradient:
     Atom            X                  Y                   Z
    ------   -----------------  -----------------  -----------------
       1      -14.842558154421     0.000000000000     0.000000000000
       2       14.856394697088     0.000000000000     0.000000000000
       3       -4.754984147675     0.000000000000     0.000000000000
       4        4.741147605008     0.000000000000     0.000000000000


  -Lagrangian contribution to gradient:
     Atom            X                  Y                   Z
    ------   -----------------  -----------------  -----------------
       1        0.350002700550     0.000000000000     0.000000000000
       2       -0.349987137270     0.000000000000     0.000000000000
       3        0.238450515779     0.000000000000     0.000000000000
       4       -0.238466079059     0.000000000000     0.000000000000


  -Two-electron contribution to gradient:
     Atom            X                  Y                   Z
    ------   -----------------  -----------------  -----------------
       1        8.927852924686     0.000000000000     0.000000000000
       2       -8.933045587815     0.000000000000     0.000000000000
       3        2.709846317893     0.000000000000     0.000000000000
       4       -2.704653654764     0.000000000000     0.000000000000


  -Total gradient:
     Atom            X                  Y                   Z
    ------   -----------------  -----------------  -----------------
       1       -0.033338070569     0.000000000000     0.000000000000
       2        0.030427109194     0.000000000000     0.000000000000
       3       -0.005228206947     0.000000000000     0.000000000000
       4        0.008139168322     0.000000000000     0.000000000000


         ----------------------------------------------------------
                                   FINDIF
                     R. A. King and Jonathon Misiewicz
         ---------------------------------------------------------

  Computing second-derivative from gradients using projected, 
  symmetry-adapted, cartesian coordinates.

  12 gradients passed in, including the reference geometry.
  Generating complete list of displacements from unique ones.

    Operation 3 takes plus displacements of irrep B1g to minus ones.
    Operation 2 takes plus displacements of irrep B2g to minus ones.
    Operation 3 takes plus displacements of irrep B1u to minus ones.
    Operation 2 takes plus displacements of irrep B2u to minus ones.
    Operation 2 takes plus displacements of irrep B3u to minus ones.

-------------------------------------------------------------


  ==> Harmonic Vibrational Analysis <==

  non-mass-weighted Hessian:       Symmetric? True   Hermitian? True   Lin Dep Dim?  3 (0)
  projection of translations (True) and rotations (False) removed 3 degrees of freedom (5)
  total projector:                 Symmetric? True   Hermitian? True   Lin Dep Dim?  3 (3)
  mass-weighted Hessian:           Symmetric? True   Hermitian? True   Lin Dep Dim?  3 (0)
  pre-proj  low-frequency mode:    0.0000i [cm^-1]
  pre-proj  low-frequency mode:    0.0000  [cm^-1]
  pre-proj  low-frequency mode:    0.0000  [cm^-1]
  pre-proj  low-frequency mode:  241.4511  [cm^-1]
  pre-proj  low-frequency mode:  241.4511  [cm^-1]
  pre-proj  all modes:['0.0000i' '0.0000' '0.0000' '241.4511' '241.4511' '602.1349' '602.1349'
 '814.5902' '814.5902' '1919.0287' '3358.8420' '3448.2039']
  projected mass-weighted Hessian: Symmetric? True   Hermitian? True   Lin Dep Dim?  3 (3)
  post-proj low-frequency mode:    0.0000i [cm^-1] (TR)
  post-proj low-frequency mode:    0.0000i [cm^-1] (TR)
  post-proj low-frequency mode:    0.0000  [cm^-1] (TR)
  post-proj low-frequency mode:  241.4511  [cm^-1] (V)
  post-proj low-frequency mode:  241.4511  [cm^-1] (V)
  post-proj  all modes:['0.0000i' '0.0000i' '0.0000' '241.4511' '241.4511' '602.1349' '602.1349'
 '814.5902' '814.5902' '1919.0287' '3358.8420' '3448.2039']

  Note that "Vibration"s include 2 un-projected rotation-like modes.
  Vibration                       4                   5                   6           
  Freq [cm^-1]                 241.4511            241.4511            602.1349       
  Irrep                          B2g                 B1g                 B2g          
  Reduced mass [u]              2.2522              2.2522              1.5834        
  Force const [mDyne/A]         0.0774              0.0774              0.3382        
  Turning point v=0 [a0]        0.4705              0.4705              0.3554        
  RMS dev v=0 [a0 u^1/2]        0.4993              0.4993              0.3162        
  Char temp [K]                347.3944            347.3944            866.3381       
  ----------------------------------------------------------------------------------
      1   C                0.00  0.00  0.24   -0.00  0.24 -0.00   -0.00 -0.00 -0.16   
      2   C                0.00 -0.00 -0.24   -0.00 -0.24  0.00   -0.00  0.00  0.16   
      3   H                0.00  0.00  0.67   -0.00  0.67 -0.00   -0.00  0.00  0.69   
      4   H               -0.00 -0.00 -0.67   -0.00 -0.67  0.00    0.00 -0.00 -0.69   

  Vibration                       7                   8                   9           
  Freq [cm^-1]                 602.1349            814.5902            814.5902       
  Irrep                          B1g                 B2u                 B1u          
  Reduced mass [u]              1.5834              1.0848              1.0848        
  Force const [mDyne/A]         0.3382              0.4241              0.4241        
  Turning point v=0 [a0]        0.3554              0.3691              0.3691        
  RMS dev v=0 [a0 u^1/2]        0.3162              0.2718              0.2718        
  Char temp [K]                866.3381           1172.0139           1172.0139       
  ----------------------------------------------------------------------------------
      1   C                0.00 -0.16  0.00    0.00 -0.06 -0.00   -0.00  0.00 -0.06   
      2   C                0.00  0.16 -0.00    0.00 -0.06 -0.00   -0.00  0.00 -0.06   
      3   H                0.00  0.69 -0.00    0.00  0.70  0.00    0.00 -0.00  0.70   
      4   H                0.00 -0.69  0.00    0.00  0.70  0.00    0.00 -0.00  0.70   

  Vibration                       10                  11                  12          
  Freq [cm^-1]                1919.0287           3358.8420           3448.2039       
  Irrep                           Ag                 B3u                  Ag          
  Reduced mass [u]              4.0589              1.0848              1.2060        
  Force const [mDyne/A]         8.8069              7.2108              8.4485        
  Turning point v=0 [a0]        0.1243              0.1818              0.1702        
  RMS dev v=0 [a0 u^1/2]        0.1771              0.1339              0.1321        
  Char temp [K]               2761.0550           4832.6258           4961.1977       
  ----------------------------------------------------------------------------------
      1   C                0.37 -0.00  0.00   -0.06  0.00  0.00   -0.09 -0.00 -0.00   
      2   C               -0.37  0.00 -0.00   -0.06  0.00 -0.00    0.09 -0.00  0.00   
      3   H                0.60  0.00 -0.00    0.70  0.00 -0.00    0.70 -0.00  0.00   
      4   H               -0.60  0.00 -0.00    0.70 -0.00 -0.00   -0.70  0.00  0.00   

  ==> Thermochemistry Components <==

  Entropy, S
    Electronic S            0.000 [cal/(mol K)]        0.000 [J/(mol K)]       0.00000000 [mEh/K] (multiplicity = 1)
    Translational S        35.704 [cal/(mol K)]      149.387 [J/(mol K)]       0.05689862 [mEh/K] (mol. weight = 26.0157 [u], P = 101325.00 [Pa])
    Rotational S           10.952 [cal/(mol K)]       45.824 [J/(mol K)]       0.01745345 [mEh/K] (symmetry no. = 2)
    Vibrational S           4.870 [cal/(mol K)]       20.375 [J/(mol K)]       0.00776048 [mEh/K]
  Total S                  51.526 [cal/(mol K)]      215.586 [J/(mol K)]       0.08211254 [mEh/K]
  Correction S              0.000 [cal/(mol K)]        0.000 [J/(mol K)]       0.00000000 [mEh/K]

  Constant volume heat capacity, Cv
    Electronic Cv           0.000 [cal/(mol K)]        0.000 [J/(mol K)]       0.00000000 [mEh/K]
    Translational Cv        2.981 [cal/(mol K)]       12.472 [J/(mol K)]       0.00475022 [mEh/K]
    Rotational Cv           1.987 [cal/(mol K)]        8.314 [J/(mol K)]       0.00316681 [mEh/K]
    Vibrational Cv          6.879 [cal/(mol K)]       28.780 [J/(mol K)]       0.01096162 [mEh/K]
  Total Cv                 11.847 [cal/(mol K)]       49.566 [J/(mol K)]       0.01887865 [mEh/K]
  Correction Cv             0.000 [cal/(mol K)]        0.000 [J/(mol K)]       0.00000000 [mEh/K]

  Constant pressure heat capacity, Cp
    Electronic Cp           0.000 [cal/(mol K)]        0.000 [J/(mol K)]       0.00000000 [mEh/K]
    Translational Cp        4.968 [cal/(mol K)]       20.786 [J/(mol K)]       0.00791703 [mEh/K]
    Rotational Cp           1.987 [cal/(mol K)]        8.314 [J/(mol K)]       0.00316681 [mEh/K]
    Vibrational Cp          6.879 [cal/(mol K)]       28.780 [J/(mol K)]       0.01096162 [mEh/K]
  Total Cp                 13.834 [cal/(mol K)]       57.880 [J/(mol K)]       0.02204546 [mEh/K]
  Correction Cp             0.000 [cal/(mol K)]        0.000 [J/(mol K)]       0.00000000 [mEh/K]

  ==> Thermochemistry Energy Analysis <==

  Raw electronic energy, E0
  Total E0, Electronic energy at well bottom at 0 [K]                  -77.16567690 [Eh]

  Zero-point energy, ZPE_vib = Sum_i nu_i / 2
    Electronic ZPE          0.000 [kcal/mol]        0.000 [kJ/mol]       0.00000000 [Eh]
    Translational ZPE       0.000 [kcal/mol]        0.000 [kJ/mol]       0.00000000 [Eh]
    Rotational ZPE          0.000 [kcal/mol]        0.000 [kJ/mol]       0.00000000 [Eh]
    Vibrational ZPE        17.216 [kcal/mol]       72.030 [kJ/mol]       0.02743467 [Eh]        6021.213 [cm^-1]
  Correction ZPE           17.216 [kcal/mol]       72.030 [kJ/mol]       0.02743467 [Eh]        6021.213 [cm^-1]
  Total ZPE, Electronic energy at 0 [K]                                -77.13824223 [Eh]

  Thermal Energy, E (includes ZPE)
    Electronic E            0.000 [kcal/mol]        0.000 [kJ/mol]       0.00000000 [Eh]
    Translational E         0.889 [kcal/mol]        3.718 [kJ/mol]       0.00141628 [Eh]
    Rotational E            0.592 [kcal/mol]        2.479 [kJ/mol]       0.00094418 [Eh]
    Vibrational E          18.134 [kcal/mol]       75.874 [kJ/mol]       0.02889886 [Eh]
  Correction E             19.616 [kcal/mol]       82.071 [kJ/mol]       0.03125932 [Eh]
  Total E, Electronic energy at  298.15 [K]                            -77.13441758 [Eh]

  Enthalpy, H_trans = E_trans + k_B * T
    Electronic H            0.000 [kcal/mol]        0.000 [kJ/mol]       0.00000000 [Eh]
    Translational H         1.481 [kcal/mol]        6.197 [kJ/mol]       0.00236046 [Eh]
    Rotational H            0.592 [kcal/mol]        2.479 [kJ/mol]       0.00094418 [Eh]
    Vibrational H          18.134 [kcal/mol]       75.874 [kJ/mol]       0.02889886 [Eh]
  Correction H             20.208 [kcal/mol]       84.550 [kJ/mol]       0.03220350 [Eh]
  Total H, Enthalpy at  298.15 [K]                                     -77.13347339 [Eh]

  Gibbs free energy, G = H - T * S
    Electronic G            0.000 [kcal/mol]        0.000 [kJ/mol]       0.00000000 [Eh]
    Translational G        -9.164 [kcal/mol]      -38.342 [kJ/mol]      -0.01460386 [Eh]
    Rotational G           -2.673 [kcal/mol]      -11.183 [kJ/mol]      -0.00425956 [Eh]
    Vibrational G          16.682 [kcal/mol]       69.799 [kJ/mol]       0.02658507 [Eh]
  Correction G              4.845 [kcal/mol]       20.273 [kJ/mol]       0.00772165 [Eh]
  Total G, Free enthalpy at  298.15 [K]                                -77.15795525 [Eh]

    Psi4 stopped on: Tuesday, 19 April 2022 01:46AM
    Psi4 wall time for execution: 0:00:24.72

*** Psi4 exiting successfully. Buy a developer a beer!
