
    -----------------------------------------------------------------------
          Psi4: An Open-Source Ab Initio Electronic Structure Package
                               Psi4 1.3.2 release

                         Git: Rev {HEAD} ecbda83 


    R. M. Parrish, L. A. Burns, D. G. A. Smith, A. C. Simmonett,
    A. E. DePrince III, E. G. Hohenstein, U. Bozkaya, A. Yu. Sokolov,
    R. Di Remigio, R. M. Richard, J. F. Gonthier, A. M. James,
    H. R. McAlexander, A. Kumar, M. Saitow, X. Wang, B. P. Pritchard,
    P. Verma, H. F. Schaefer III, K. Patkowski, R. A. King, E. F. Valeev,
    F. A. Evangelista, J. M. Turney, T. D. Crawford, and C. D. Sherrill,
    J. Chem. Theory Comput. 13(7) pp 3185--3197 (2017).
    (doi: 10.1021/acs.jctc.7b00174)


                         Additional Contributions by
    P. Kraus, H. Kruse, M. H. Lechner, M. C. Schieber, R. A. Shaw,
    A. Alenaizan, R. Galvelis, Z. L. Glick, S. Lehtola, and J. P. Misiewicz

    -----------------------------------------------------------------------


    Psi4 started on: Tuesday, 19 April 2022 01:47AM

    Process ID: 25828
    Host:       atlantis
    PSIDATADIR: /home/akrom/software/anaconda3/envs/ffpenv/share/psi4
    Memory:     500.0 MiB
    Threads:    1
    
  ==> Input File <==

--------------------------------------------------------------------------
set basis  6-31+g*
molecule {
0 1
   C       -0.61446        0.00000        0.00000
   C        0.61446        0.00000        0.00000
   H       -1.68923        0.00000        0.00000
   H        1.68923        0.00000        0.00000
}
energy('CCSD')
frequencies('CCSD')
--------------------------------------------------------------------------

*** tstart() called on atlantis
*** at Tue Apr 19 01:47:12 2022

   => Loading Basis Set <=

    Name: 6-31+G*
    Role: ORBITAL
    Keyword: BASIS
    atoms 1-2 entry C          line   119 file /home/akrom/software/anaconda3/envs/ffpenv/share/psi4/basis/6-31pgs.gbs 
    atoms 3-4 entry H          line    46 file /home/akrom/software/anaconda3/envs/ffpenv/share/psi4/basis/6-31pgs.gbs 


         ---------------------------------------------------------
                                   SCF
               by Justin Turney, Rob Parrish, Andy Simmonett
                          and Daniel G. A. Smith
                              RHF Reference
                        1 Threads,    500 MiB Core
         ---------------------------------------------------------

  ==> Geometry <==

    Molecular point group: d2h
    Full point group: D_inf_h

    Geometry (in Angstrom), charge = 0, multiplicity = 1:

       Center              X                  Y                   Z               Mass       
    ------------   -----------------  -----------------  -----------------  -----------------
         C           -0.614460000000    -0.000000000000     0.000000000000    12.000000000000
         C            0.614460000000     0.000000000000     0.000000000000    12.000000000000
         H           -1.689230000000    -0.000000000000     0.000000000000     1.007825032230
         H            1.689230000000     0.000000000000     0.000000000000     1.007825032230

  Running in d2h symmetry.

  Rotational constants: A = ************  B =      1.13802  C =      1.13802 [cm^-1]
  Rotational constants: A = ************  B =  34116.98697  C =  34116.98697 [MHz]
  Nuclear repulsion =   24.323218171379235

  Charge       = 0
  Multiplicity = 1
  Electrons    = 14
  Nalpha       = 7
  Nbeta        = 7

  ==> Algorithm <==

  SCF Algorithm Type is PK.
  DIIS enabled.
  MOM disabled.
  Fractional occupation disabled.
  Guess Type is SAD.
  Energy threshold   = 1.00e-08
  Density threshold  = 1.00e-08
  Integral threshold = 0.00e+00

  ==> Primary Basis <==

  Basis Set: 6-31+G*
    Blend: 6-31+G*
    Number of shells: 20
    Number of basis function: 42
    Number of Cartesian functions: 42
    Spherical Harmonics?: false
    Max angular momentum: 2

  ==> Pre-Iterations <==

   -------------------------------------------------------
    Irrep   Nso     Nmo     Nalpha   Nbeta   Ndocc  Nsocc
   -------------------------------------------------------
     Ag        12      12       0       0       0       0
     B1g        4       4       0       0       0       0
     B2g        4       4       0       0       0       0
     B3g        1       1       0       0       0       0
     Au         1       1       0       0       0       0
     B1u        4       4       0       0       0       0
     B2u        4       4       0       0       0       0
     B3u       12      12       0       0       0       0
   -------------------------------------------------------
    Total      42      42       7       7       7       0
   -------------------------------------------------------

  ==> Integral Setup <==

  Using in-core PK algorithm.
   Calculation information:
      Number of atoms:                   4
      Number of AO shells:              20
      Number of primitives:             42
      Number of atomic orbitals:        42
      Number of basis functions:        42

      Integral cutoff                 1.00e-12
      Number of threads:                 1

  Performing in-core PK
  Using 816312 doubles for integral storage.
  We computed 22155 shell quartets total.
  Whereas there are 22155 unique shell quartets.

  ==> DiskJK: Disk-Based J/K Matrices <==

    J tasked:                  Yes
    K tasked:                  Yes
    wK tasked:                  No
    Memory [MiB]:              375
    Schwarz Cutoff:          1E-12

    OpenMP threads:              1

  Minimum eigenvalue in the overlap matrix is 1.4784343761E-04.
  Using Symmetric Orthogonalization.

  SCF Guess: Superposition of Atomic Densities via on-the-fly atomic UHF.

  ==> Iterations <==

                        Total Energy        Delta E     RMS |[F,P]|

   @RHF iter SAD:   -75.86666797886923   -7.58667e+01   0.00000e+00 
   @RHF iter   1:   -76.77771050157503   -9.11043e-01   1.42129e-02 DIIS
   @RHF iter   2:   -76.81484589760962   -3.71354e-02   4.73070e-03 DIIS
   @RHF iter   3:   -76.81895687677233   -4.11098e-03   5.31422e-04 DIIS
   @RHF iter   4:   -76.81905469134102   -9.78146e-05   6.77462e-05 DIIS
   @RHF iter   5:   -76.81905666564712   -1.97431e-06   1.44485e-05 DIIS
   @RHF iter   6:   -76.81905677657963   -1.10933e-07   2.11735e-06 DIIS
   @RHF iter   7:   -76.81905677874961   -2.16998e-09   2.12838e-07 DIIS
   @RHF iter   8:   -76.81905677876853   -1.89146e-11   1.72195e-08 DIIS
   @RHF iter   9:   -76.81905677876864   -1.13687e-13   1.31872e-09 DIIS
  Energy and wave function converged.


  ==> Post-Iterations <==

    Orbital Energies [Eh]
    ---------------------

    Doubly Occupied:                                                      

       1Ag   -11.261418     1B3u  -11.258260     2Ag    -1.024296  
       2B3u   -0.768767     3Ag    -0.677179     1B2u   -0.404095  
       1B1u   -0.404095  

    Virtual:                                                              

       3B3u    0.079188     4Ag     0.085944     1B1g    0.112610  
       1B2g    0.112610     2B2u    0.134604     2B1u    0.134604  
       5Ag     0.156723     4B3u    0.233160     2B2g    0.258880  
       2B1g    0.258880     5B3u    0.308863     6Ag     0.391966  
       6B3u    0.697828     7Ag     0.850624     3B2u    0.878696  
       3B1u    0.878696     3B2g    0.975239     3B1g    0.975239  
       7B3u    1.083301     8Ag     1.118179     9Ag     1.334405  
       8B3u    1.554767     9B3u    1.726755     4B1u    1.765015  
       4B2u    1.765015     1B3g    1.811472    10Ag     1.811472  
       1Au     2.223147    10B3u    2.223147     4B1g    2.795291  
       4B2g    2.795291    11Ag     2.831776    11B3u    3.562416  
      12Ag     4.622822    12B3u    4.776866  

    Final Occupation by Irrep:
             Ag   B1g   B2g   B3g    Au   B1u   B2u   B3u 
    DOCC [     3,    0,    0,    0,    0,    1,    1,    2 ]

  @RHF Final Energy:   -76.81905677876864

   => Energetics <=

    Nuclear Repulsion Energy =             24.3232181713792350
    One-Electron Energy =                -150.6883325685148520
    Two-Electron Energy =                  49.5460576183669659
    Total Energy =                        -76.8190567787686405

Computation Completed


Properties will be evaluated at   0.000000,   0.000000,   0.000000 [a0]

Properties computed using the SCF density matrix

  Nuclear Dipole Moment: [e a0]
     X:     0.0000      Y:     0.0000      Z:     0.0000

  Electronic Dipole Moment: [e a0]
     X:     0.0000      Y:     0.0000      Z:     0.0000

  Dipole Moment: [e a0]
     X:     0.0000      Y:     0.0000      Z:     0.0000     Total:     0.0000

  Dipole Moment: [D]
     X:     0.0000      Y:     0.0000      Z:     0.0000     Total:     0.0000


*** tstop() called on atlantis at Tue Apr 19 01:47:12 2022
Module time:
	user time   =       0.31 seconds =       0.01 minutes
	system time =       0.00 seconds =       0.00 minutes
	total time  =          0 seconds =       0.00 minutes
Total time:
	user time   =       0.31 seconds =       0.01 minutes
	system time =       0.00 seconds =       0.00 minutes
	total time  =          0 seconds =       0.00 minutes
 MINTS: Wrapper to libmints.
   by Justin Turney

   Calculation information:
      Number of threads:                 1
      Number of atoms:                   4
      Number of AO shells:              20
      Number of SO shells:              10
      Number of primitives:             42
      Number of atomic orbitals:        42
      Number of basis functions:        42

      Number of irreps:                  8
      Integral cutoff                 0.00e+00
      Number of functions per irrep: [  12    4    4    1    1    4    4   12 ]

 OEINTS: Overlap, kinetic, potential, dipole, and quadrupole integrals
         stored in file 35.

      Computing two-electron integrals...done
      Computed 60486 non-zero two-electron integrals.
        Stored in file 33.


*** tstart() called on atlantis
*** at Tue Apr 19 01:47:12 2022


	Wfn Parameters:
	--------------------
	Wavefunction         = CCSD
	Number of irreps     = 8
	Number of MOs        = 42
	Number of active MOs = 42
	AO-Basis             = NONE
	Semicanonical        = false
	Reference            = RHF
	Print Level          = 1

	IRREP	# MOs	# FZDC	# DOCC	# SOCC	# VIRT	# FZVR
	-----	-----	------	------	------	------	------
	 Ag	   12	    0	    3	    0	    9	    0
	 B1g	   4	    0	    0	    0	    4	    0
	 B2g	   4	    0	    0	    0	    4	    0
	 B3g	   1	    0	    0	    0	    1	    0
	 Au	   1	    0	    0	    0	    1	    0
	 B1u	   4	    0	    1	    0	    3	    0
	 B2u	   4	    0	    1	    0	    3	    0
	 B3u	   12	    0	    2	    0	    10	    0
	Transforming integrals...
	IWL integrals will be deleted.
	(OO|OO)...
	Presorting SO-basis two-electron integrals.
	Sorting File: SO Ints (nn|nn) nbuckets = 1
	Transforming the one-electron integrals and constructing Fock matrices
	Starting first half-transformation.
	Sorting half-transformed integrals.
	First half integral transformation complete.
	Starting second half-transformation.
	Two-electron integral transformation complete.
	(OO|OV)...
	Starting second half-transformation.
	Two-electron integral transformation complete.
	(OO|VV)...
	Starting second half-transformation.
	Two-electron integral transformation complete.
	(OV|OO)...
	Starting first half-transformation.
	Sorting half-transformed integrals.
	First half integral transformation complete.
	Starting second half-transformation.
	Two-electron integral transformation complete.
	(OV|OV)...
	Starting second half-transformation.
	Two-electron integral transformation complete.
	(OV|VV)...
	Starting second half-transformation.
	Two-electron integral transformation complete.
	(VV|OO)...
	Starting first half-transformation.
	Sorting half-transformed integrals.
	First half integral transformation complete.
	Starting second half-transformation.
	Two-electron integral transformation complete.
	(VV|OV)...
	Starting second half-transformation.
	Two-electron integral transformation complete.
	(VV|VV)...
	Starting second half-transformation.
	Two-electron integral transformation complete.
	Frozen core energy     =      0.00000000000000

	Size of irrep 0 of <ab|cd> integrals:      0.054 (MW) /      0.434 (MB)
	Size of irrep 1 of <ab|cd> integrals:      0.021 (MW) /      0.171 (MB)
	Size of irrep 2 of <ab|cd> integrals:      0.021 (MW) /      0.171 (MB)
	Size of irrep 3 of <ab|cd> integrals:      0.008 (MW) /      0.062 (MB)
	Size of irrep 4 of <ab|cd> integrals:      0.007 (MW) /      0.059 (MB)
	Size of irrep 5 of <ab|cd> integrals:      0.022 (MW) /      0.175 (MB)
	Size of irrep 6 of <ab|cd> integrals:      0.022 (MW) /      0.175 (MB)
	Size of irrep 7 of <ab|cd> integrals:      0.053 (MW) /      0.423 (MB)
	Total:                                     0.209 (MW) /      1.670 (MB)

	Size of irrep 0 of <ia|bc> integrals:      0.012 (MW) /      0.099 (MB)
	Size of irrep 1 of <ia|bc> integrals:      0.004 (MW) /      0.034 (MB)
	Size of irrep 2 of <ia|bc> integrals:      0.004 (MW) /      0.034 (MB)
	Size of irrep 3 of <ia|bc> integrals:      0.001 (MW) /      0.008 (MB)
	Size of irrep 4 of <ia|bc> integrals:      0.001 (MW) /      0.009 (MB)
	Size of irrep 5 of <ia|bc> integrals:      0.004 (MW) /      0.032 (MB)
	Size of irrep 6 of <ia|bc> integrals:      0.004 (MW) /      0.032 (MB)
	Size of irrep 7 of <ia|bc> integrals:      0.013 (MW) /      0.103 (MB)
	Total:                                     0.044 (MW) /      0.350 (MB)

	Size of irrep 0 of tijab amplitudes:       0.003 (MW) /      0.028 (MB)
	Size of irrep 1 of tijab amplitudes:       0.001 (MW) /      0.005 (MB)
	Size of irrep 2 of tijab amplitudes:       0.001 (MW) /      0.005 (MB)
	Size of irrep 3 of tijab amplitudes:       0.000 (MW) /      0.001 (MB)
	Size of irrep 4 of tijab amplitudes:       0.000 (MW) /      0.000 (MB)
	Size of irrep 5 of tijab amplitudes:       0.001 (MW) /      0.007 (MB)
	Size of irrep 6 of tijab amplitudes:       0.001 (MW) /      0.007 (MB)
	Size of irrep 7 of tijab amplitudes:       0.003 (MW) /      0.022 (MB)
	Total:                                     0.009 (MW) /      0.075 (MB)

	Nuclear Rep. energy          =     24.32321817137924
	SCF energy                   =    -76.81905677876864
	One-electron energy          =   -150.68833263092750
	Two-electron energy          =     49.54605768077949
	Reference energy             =    -76.81905677876878

*** tstop() called on atlantis at Tue Apr 19 01:47:12 2022
Module time:
	user time   =       0.03 seconds =       0.00 minutes
	system time =       0.01 seconds =       0.00 minutes
	total time  =          0 seconds =       0.00 minutes
Total time:
	user time   =       0.38 seconds =       0.01 minutes
	system time =       0.01 seconds =       0.00 minutes
	total time  =          0 seconds =       0.00 minutes
            **************************
            *                        *
            *        CCENERGY        *
            *                        *
            **************************

    Nuclear Rep. energy (wfn)     =   24.323218171379235
    SCF energy          (wfn)     =  -76.819056778768640
    Reference energy    (file100) =  -76.819056778768783

    Input parameters:
    -----------------
    Wave function   =     CCSD
    Reference wfn   =     RHF
    Brueckner       =     No
    Memory (Mbytes) =     524.3
    Maxiter         =     50
    R_Convergence   =     1.0e-07
    E_Convergence   =     1.0e-06
    Restart         =     Yes
    DIIS            =     Yes
    AO Basis        =     NONE
    ABCD            =     NEW
    Cache Level     =     2
    Cache Type      =     LOW
    Print Level     =     1
    Num. of threads =     1
    # Amps to Print =     10
    Print MP2 Amps? =     No
    Analyze T2 Amps =     No
    Print Pair Ener =     No
    Local CC        =     No
    SCS-MP2         =     False
    SCSN-MP2        =     False
    SCS-CCSD        =     False

MP2 correlation energy -0.2635651223705637
                Solving CC Amplitude Equations
                ------------------------------
  Iter             Energy              RMS        T1Diag      D1Diag    New D1Diag    D2Diag
  ----     ---------------------    ---------   ----------  ----------  ----------   --------
     0        -0.263565122370564    0.000e+00    0.000000    0.000000    0.000000    0.158871
     1        -0.265501188479290    5.652e-02    0.010240    0.025486    0.025486    0.161342
     2        -0.275056901977857    2.381e-02    0.010625    0.026376    0.026376    0.173312
     3        -0.277715169647521    1.071e-02    0.012170    0.030331    0.030331    0.180709
     4        -0.278055157220427    3.384e-03    0.012244    0.030575    0.030575    0.183413
     5        -0.278113818884428    7.254e-04    0.012246    0.030603    0.030603    0.183911
     6        -0.278108358238923    1.998e-04    0.012229    0.030566    0.030566    0.183946
     7        -0.278112189746147    4.234e-05    0.012226    0.030557    0.030557    0.183962
     8        -0.278112489561040    1.035e-05    0.012225    0.030555    0.030555    0.183965
     9        -0.278112350705296    2.610e-06    0.012225    0.030554    0.030554    0.183965
    10        -0.278112424266286    7.225e-07    0.012225    0.030554    0.030554    0.183965
    11        -0.278112416635087    1.850e-07    0.012225    0.030554    0.030554    0.183965
    12        -0.278112420752152    5.423e-08    0.012225    0.030554    0.030554    0.183965

    Iterations converged.


    Largest TIA Amplitudes:
              3  20         0.0229798980
              4  23         0.0229798980
              3  19         0.0151065788
              4  22         0.0151065788
              3  21         0.0133140651
              4  24         0.0133140651
              6  28         0.0064962612
              2   0        -0.0054970061
              2   4        -0.0053720460
              1   5         0.0039286436

    Largest TIjAb Amplitudes:
      3   3  14  14        -0.0804053124
      4   4  10  10        -0.0804053124
      3   3  13  14        -0.0510552143
      3   3  14  13        -0.0510552143
      4   4   9  10        -0.0510552143
      4   4  10   9        -0.0510552143
      3   4  14  10        -0.0486776347
      4   3  10  14        -0.0486776347
      3   3  13  13        -0.0336969753
      4   4   9   9        -0.0336969753

    SCF energy       (wfn)                    =  -76.819056778768640
    Reference energy (file100)                =  -76.819056778768783

    Opposite-spin MP2 correlation energy      =   -0.199716853061753
    Same-spin MP2 correlation energy          =   -0.063848269308810
    MP2 correlation energy                    =   -0.263565122370564
      * MP2 total energy                      =  -77.082621901139348

    Opposite-spin CCSD correlation energy     =   -0.224477329661556
    Same-spin CCSD correlation energy         =   -0.053635091090597
    CCSD correlation energy                   =   -0.278112420752152
      * CCSD total energy                     =  -77.097169199520934

gradient() will perform analytic gradient computation.

*** tstart() called on atlantis
*** at Tue Apr 19 01:47:13 2022

   => Loading Basis Set <=

    Name: 6-31+G*
    Role: ORBITAL
    Keyword: BASIS
    atoms 1-2 entry C          line   119 file /home/akrom/software/anaconda3/envs/ffpenv/share/psi4/basis/6-31pgs.gbs 
    atoms 3-4 entry H          line    46 file /home/akrom/software/anaconda3/envs/ffpenv/share/psi4/basis/6-31pgs.gbs 


         ---------------------------------------------------------
                                   SCF
               by Justin Turney, Rob Parrish, Andy Simmonett
                          and Daniel G. A. Smith
                              RHF Reference
                        1 Threads,    500 MiB Core
         ---------------------------------------------------------

  ==> Geometry <==

    Molecular point group: d2h
    Full point group: D_inf_h

    Geometry (in Angstrom), charge = 0, multiplicity = 1:

       Center              X                  Y                   Z               Mass       
    ------------   -----------------  -----------------  -----------------  -----------------
         C           -0.614460000000    -0.000000000000     0.000000000000    12.000000000000
         C            0.614460000000     0.000000000000     0.000000000000    12.000000000000
         H           -1.689230000000    -0.000000000000     0.000000000000     1.007825032230
         H            1.689230000000     0.000000000000     0.000000000000     1.007825032230

  Running in d2h symmetry.

  Rotational constants: A = ************  B =      1.13802  C =      1.13802 [cm^-1]
  Rotational constants: A = ************  B =  34116.98697  C =  34116.98697 [MHz]
  Nuclear repulsion =   24.323218171379235

  Charge       = 0
  Multiplicity = 1
  Electrons    = 14
  Nalpha       = 7
  Nbeta        = 7

  ==> Algorithm <==

  SCF Algorithm Type is PK.
  DIIS enabled.
  MOM disabled.
  Fractional occupation disabled.
  Guess Type is SAD.
  Energy threshold   = 1.00e-10
  Density threshold  = 1.00e-10
  Integral threshold = 0.00e+00

  ==> Primary Basis <==

  Basis Set: 6-31+G*
    Blend: 6-31+G*
    Number of shells: 20
    Number of basis function: 42
    Number of Cartesian functions: 42
    Spherical Harmonics?: false
    Max angular momentum: 2

  ==> Pre-Iterations <==

   -------------------------------------------------------
    Irrep   Nso     Nmo     Nalpha   Nbeta   Ndocc  Nsocc
   -------------------------------------------------------
     Ag        12      12       0       0       0       0
     B1g        4       4       0       0       0       0
     B2g        4       4       0       0       0       0
     B3g        1       1       0       0       0       0
     Au         1       1       0       0       0       0
     B1u        4       4       0       0       0       0
     B2u        4       4       0       0       0       0
     B3u       12      12       0       0       0       0
   -------------------------------------------------------
    Total      42      42       7       7       7       0
   -------------------------------------------------------

  ==> Integral Setup <==

  Using in-core PK algorithm.
   Calculation information:
      Number of atoms:                   4
      Number of AO shells:              20
      Number of primitives:             42
      Number of atomic orbitals:        42
      Number of basis functions:        42

      Integral cutoff                 1.00e-12
      Number of threads:                 1

  Performing in-core PK
  Using 816312 doubles for integral storage.
  We computed 22155 shell quartets total.
  Whereas there are 22155 unique shell quartets.

  ==> DiskJK: Disk-Based J/K Matrices <==

    J tasked:                  Yes
    K tasked:                  Yes
    wK tasked:                  No
    Memory [MiB]:              375
    Schwarz Cutoff:          1E-12

    OpenMP threads:              1

  Minimum eigenvalue in the overlap matrix is 1.4784343761E-04.
  Using Symmetric Orthogonalization.

  SCF Guess: Superposition of Atomic Densities via on-the-fly atomic UHF.

  ==> Iterations <==

                        Total Energy        Delta E     RMS |[F,P]|

   @RHF iter SAD:   -75.86666797886923   -7.58667e+01   0.00000e+00 
   @RHF iter   1:   -76.77771050157503   -9.11043e-01   1.42129e-02 DIIS
   @RHF iter   2:   -76.81484589760962   -3.71354e-02   4.73070e-03 DIIS
   @RHF iter   3:   -76.81895687677233   -4.11098e-03   5.31422e-04 DIIS
   @RHF iter   4:   -76.81905469134102   -9.78146e-05   6.77462e-05 DIIS
   @RHF iter   5:   -76.81905666564712   -1.97431e-06   1.44485e-05 DIIS
   @RHF iter   6:   -76.81905677657963   -1.10933e-07   2.11735e-06 DIIS
   @RHF iter   7:   -76.81905677874961   -2.16998e-09   2.12838e-07 DIIS
   @RHF iter   8:   -76.81905677876853   -1.89146e-11   1.72195e-08 DIIS
   @RHF iter   9:   -76.81905677876864   -1.13687e-13   1.31872e-09 DIIS
   @RHF iter  10:   -76.81905677876880   -1.56319e-13   2.40235e-10 DIIS
   @RHF iter  11:   -76.81905677876875    4.26326e-14   1.49384e-11 DIIS
  Energy and wave function converged.


  ==> Post-Iterations <==

    Orbital Energies [Eh]
    ---------------------

    Doubly Occupied:                                                      

       1Ag   -11.261418     1B3u  -11.258260     2Ag    -1.024296  
       2B3u   -0.768767     3Ag    -0.677179     1B2u   -0.404095  
       1B1u   -0.404095  

    Virtual:                                                              

       3B3u    0.079188     4Ag     0.085944     1B2g    0.112610  
       1B1g    0.112610     2B2u    0.134604     2B1u    0.134604  
       5Ag     0.156723     4B3u    0.233160     2B2g    0.258880  
       2B1g    0.258880     5B3u    0.308863     6Ag     0.391966  
       6B3u    0.697828     7Ag     0.850624     3B2u    0.878696  
       3B1u    0.878696     3B1g    0.975239     3B2g    0.975239  
       7B3u    1.083301     8Ag     1.118179     9Ag     1.334405  
       8B3u    1.554767     9B3u    1.726755     4B2u    1.765015  
       4B1u    1.765015     1B3g    1.811472    10Ag     1.811472  
       1Au     2.223147    10B3u    2.223147     4B1g    2.795291  
       4B2g    2.795291    11Ag     2.831776    11B3u    3.562416  
      12Ag     4.622822    12B3u    4.776866  

    Final Occupation by Irrep:
             Ag   B1g   B2g   B3g    Au   B1u   B2u   B3u 
    DOCC [     3,    0,    0,    0,    0,    1,    1,    2 ]

  @RHF Final Energy:   -76.81905677876875

   => Energetics <=

    Nuclear Repulsion Energy =             24.3232181713792350
    One-Electron Energy =                -150.6883326239137944
    Two-Electron Energy =                  49.5460576737658016
    Total Energy =                        -76.8190567787687542

Computation Completed


Properties will be evaluated at   0.000000,   0.000000,   0.000000 [a0]

Properties computed using the SCF density matrix

  Nuclear Dipole Moment: [e a0]
     X:     0.0000      Y:     0.0000      Z:     0.0000

  Electronic Dipole Moment: [e a0]
     X:     0.0000      Y:     0.0000      Z:     0.0000

  Dipole Moment: [e a0]
     X:     0.0000      Y:     0.0000      Z:     0.0000     Total:     0.0000

  Dipole Moment: [D]
     X:     0.0000      Y:     0.0000      Z:     0.0000     Total:     0.0000


*** tstop() called on atlantis at Tue Apr 19 01:47:13 2022
Module time:
	user time   =       0.29 seconds =       0.00 minutes
	system time =       0.00 seconds =       0.00 minutes
	total time  =          0 seconds =       0.00 minutes
Total time:
	user time   =       0.74 seconds =       0.01 minutes
	system time =       0.09 seconds =       0.00 minutes
	total time  =          1 seconds =       0.02 minutes
 MINTS: Wrapper to libmints.
   by Justin Turney

   Calculation information:
      Number of threads:                 1
      Number of atoms:                   4
      Number of AO shells:              20
      Number of SO shells:              10
      Number of primitives:             42
      Number of atomic orbitals:        42
      Number of basis functions:        42

      Number of irreps:                  8
      Integral cutoff                 0.00e+00
      Number of functions per irrep: [  12    4    4    1    1    4    4   12 ]

 OEINTS: Overlap, kinetic, potential, dipole, and quadrupole integrals
         stored in file 35.

      Computing two-electron integrals...done
      Computed 60486 non-zero two-electron integrals.
        Stored in file 33.


*** tstart() called on atlantis
*** at Tue Apr 19 01:47:13 2022


	Wfn Parameters:
	--------------------
	Wavefunction         = CCSD
	Number of irreps     = 8
	Number of MOs        = 42
	Number of active MOs = 42
	AO-Basis             = NONE
	Semicanonical        = false
	Reference            = RHF
	Print Level          = 1

	IRREP	# MOs	# FZDC	# DOCC	# SOCC	# VIRT	# FZVR
	-----	-----	------	------	------	------	------
	 Ag	   12	    0	    3	    0	    9	    0
	 B1g	   4	    0	    0	    0	    4	    0
	 B2g	   4	    0	    0	    0	    4	    0
	 B3g	   1	    0	    0	    0	    1	    0
	 Au	   1	    0	    0	    0	    1	    0
	 B1u	   4	    0	    1	    0	    3	    0
	 B2u	   4	    0	    1	    0	    3	    0
	 B3u	   12	    0	    2	    0	    10	    0
	Transforming integrals...
	IWL integrals will be deleted.
	(OO|OO)...
	Presorting SO-basis two-electron integrals.
	Sorting File: SO Ints (nn|nn) nbuckets = 1
	Transforming the one-electron integrals and constructing Fock matrices
	Starting first half-transformation.
	Sorting half-transformed integrals.
	First half integral transformation complete.
	Starting second half-transformation.
	Two-electron integral transformation complete.
	(OO|OV)...
	Starting second half-transformation.
	Two-electron integral transformation complete.
	(OO|VV)...
	Starting second half-transformation.
	Two-electron integral transformation complete.
	(OV|OO)...
	Starting first half-transformation.
	Sorting half-transformed integrals.
	First half integral transformation complete.
	Starting second half-transformation.
	Two-electron integral transformation complete.
	(OV|OV)...
	Starting second half-transformation.
	Two-electron integral transformation complete.
	(OV|VV)...
	Starting second half-transformation.
	Two-electron integral transformation complete.
	(VV|OO)...
	Starting first half-transformation.
	Sorting half-transformed integrals.
	First half integral transformation complete.
	Starting second half-transformation.
	Two-electron integral transformation complete.
	(VV|OV)...
	Starting second half-transformation.
	Two-electron integral transformation complete.
	(VV|VV)...
	Starting second half-transformation.
	Two-electron integral transformation complete.
	Frozen core energy     =      0.00000000000000

	Size of irrep 0 of <ab|cd> integrals:      0.054 (MW) /      0.434 (MB)
	Size of irrep 1 of <ab|cd> integrals:      0.021 (MW) /      0.171 (MB)
	Size of irrep 2 of <ab|cd> integrals:      0.021 (MW) /      0.171 (MB)
	Size of irrep 3 of <ab|cd> integrals:      0.008 (MW) /      0.062 (MB)
	Size of irrep 4 of <ab|cd> integrals:      0.007 (MW) /      0.059 (MB)
	Size of irrep 5 of <ab|cd> integrals:      0.022 (MW) /      0.175 (MB)
	Size of irrep 6 of <ab|cd> integrals:      0.022 (MW) /      0.175 (MB)
	Size of irrep 7 of <ab|cd> integrals:      0.053 (MW) /      0.423 (MB)
	Total:                                     0.209 (MW) /      1.670 (MB)

	Size of irrep 0 of <ia|bc> integrals:      0.012 (MW) /      0.099 (MB)
	Size of irrep 1 of <ia|bc> integrals:      0.004 (MW) /      0.034 (MB)
	Size of irrep 2 of <ia|bc> integrals:      0.004 (MW) /      0.034 (MB)
	Size of irrep 3 of <ia|bc> integrals:      0.001 (MW) /      0.008 (MB)
	Size of irrep 4 of <ia|bc> integrals:      0.001 (MW) /      0.009 (MB)
	Size of irrep 5 of <ia|bc> integrals:      0.004 (MW) /      0.032 (MB)
	Size of irrep 6 of <ia|bc> integrals:      0.004 (MW) /      0.032 (MB)
	Size of irrep 7 of <ia|bc> integrals:      0.013 (MW) /      0.103 (MB)
	Total:                                     0.044 (MW) /      0.350 (MB)

	Size of irrep 0 of tijab amplitudes:       0.003 (MW) /      0.028 (MB)
	Size of irrep 1 of tijab amplitudes:       0.001 (MW) /      0.005 (MB)
	Size of irrep 2 of tijab amplitudes:       0.001 (MW) /      0.005 (MB)
	Size of irrep 3 of tijab amplitudes:       0.000 (MW) /      0.001 (MB)
	Size of irrep 4 of tijab amplitudes:       0.000 (MW) /      0.000 (MB)
	Size of irrep 5 of tijab amplitudes:       0.001 (MW) /      0.007 (MB)
	Size of irrep 6 of tijab amplitudes:       0.001 (MW) /      0.007 (MB)
	Size of irrep 7 of tijab amplitudes:       0.003 (MW) /      0.022 (MB)
	Total:                                     0.009 (MW) /      0.075 (MB)

	Nuclear Rep. energy          =     24.32321817137924
	SCF energy                   =    -76.81905677876875
	One-electron energy          =   -150.68833262402535
	Two-electron energy          =     49.54605767387731
	Reference energy             =    -76.81905677876880

*** tstop() called on atlantis at Tue Apr 19 01:47:13 2022
Module time:
	user time   =       0.03 seconds =       0.00 minutes
	system time =       0.00 seconds =       0.00 minutes
	total time  =          0 seconds =       0.00 minutes
Total time:
	user time   =       0.80 seconds =       0.01 minutes
	system time =       0.10 seconds =       0.00 minutes
	total time  =          1 seconds =       0.02 minutes
            **************************
            *                        *
            *        CCENERGY        *
            *                        *
            **************************

    Nuclear Rep. energy (wfn)     =   24.323218171379235
    SCF energy          (wfn)     =  -76.819056778768754
    Reference energy    (file100) =  -76.819056778768797

    Input parameters:
    -----------------
    Wave function   =     CCSD
    Reference wfn   =     RHF
    Brueckner       =     No
    Memory (Mbytes) =     524.3
    Maxiter         =     50
    R_Convergence   =     1.0e-07
    E_Convergence   =     1.0e-08
    Restart         =     Yes
    DIIS            =     Yes
    AO Basis        =     NONE
    ABCD            =     NEW
    Cache Level     =     2
    Cache Type      =     LOW
    Print Level     =     1
    Num. of threads =     1
    # Amps to Print =     10
    Print MP2 Amps? =     No
    Analyze T2 Amps =     No
    Print Pair Ener =     No
    Local CC        =     No
    SCS-MP2         =     False
    SCSN-MP2        =     False
    SCS-CCSD        =     False

    Using old T1 amplitudes.
    Using old T2 amplitudes.

MP2 correlation energy -0.2635651221825397
                Solving CC Amplitude Equations
                ------------------------------
  Iter             Energy              RMS        T1Diag      D1Diag    New D1Diag    D2Diag
  ----     ---------------------    ---------   ----------  ----------  ----------   --------
     0        -0.278112420628886    0.000e+00    0.012225    0.030554    0.030554    0.183965
     1        -0.278112421126346    2.352e-08    0.012225    0.030554    0.030554    0.183965
     2        -0.278112421461190    1.108e-08    0.012225    0.030554    0.030554    0.183965

    Iterations converged.


    Largest TIA Amplitudes:
              3  20         0.0229799000
              4  23         0.0229799000
              3  19         0.0151065821
              4  22         0.0151065821
              3  21         0.0133140657
              4  24         0.0133140657
              6  28         0.0064962620
              2   0        -0.0054970089
              2   4        -0.0053720454
              1   5         0.0039286460

    Largest TIjAb Amplitudes:
      3   3  14  14        -0.0804053171
      4   4  10  10        -0.0804053171
      3   3  13  14        -0.0510552171
      3   3  14  13        -0.0510552171
      4   4   9  10        -0.0510552171
      4   4  10   9        -0.0510552171
      3   4  14  10        -0.0486776352
      4   3  10  14        -0.0486776352
      3   3  13  13        -0.0336969761
      4   4   9   9        -0.0336969761

    SCF energy       (wfn)                    =  -76.819056778768754
    Reference energy (file100)                =  -76.819056778768797

    Opposite-spin MP2 correlation energy      =   -0.199716852939064
    Same-spin MP2 correlation energy          =   -0.063848269243476
    MP2 correlation energy                    =   -0.263565122182540
      * MP2 total energy                      =  -77.082621900951338

    Opposite-spin CCSD correlation energy     =   -0.224477330789454
    Same-spin CCSD correlation energy         =   -0.053635090671737
    CCSD correlation energy                   =   -0.278112421461190
      * CCSD total energy                     =  -77.097169200229985


			**************************
			*                        *
			*         CCHBAR         *
			*                        *
			**************************


			**************************
			*        CCLAMBDA        *
			**************************


	Nuclear Rep. energy (wfn)     =   24.323218171379235
	Reference           (wfn)     =                    0
	SCF energy          (wfn)     =  -76.819056778768754
	Reference energy    (CC_INFO) =  -76.819056778768797
	CCSD energy         (CC_INFO) =   -0.278112421461190
	Total CCSD energy   (CC_INFO) =  -77.097169200229985

	Input parameters:
	-----------------
	Maxiter           =     50
	Convergence       = 1.0e-07
	Restart           =     No
	Cache Level       =     2
	Model III         =     No
	DIIS              =     Yes
	AO Basis          =     No
	ABCD              =     NEW
	Local CC          =     No
	Parameters for left-handed eigenvectors:
	    Irr   Root  Ground-State?    EOM energy        R0
	  1   0     0        Yes       0.0000000000   1.0000000000
	Labels for eigenvector 1:
	LIA 0 -1, Lia 0 -1, LIJAB 0 -1, Lijab 0 -1, LIjAb 0 -1, 2LIjAb - LIjbA 0 -1
	Symmetry of left-hand state: Ag
	Symmetry of left-hand eigenvector: Ag

	          Solving Lambda Equations
	          ------------------------
	Iter     PseudoEnergy or Norm         RMS  
	----     ---------------------     --------
	   0        -0.278391022252711    0.000e+00
	   1        -0.269905099022362    2.070e-02
	   2        -0.268258202939540    4.256e-03
	   3        -0.268056823410325    1.260e-03
	   4        -0.268019802462369    3.678e-04
	   5        -0.268022071517136    1.079e-04
	   6        -0.268018654148975    2.631e-05
	   7        -0.268018106834453    1.048e-05
	   8        -0.268017858825447    3.444e-06
	   9        -0.268017773930159    8.023e-07
	  10        -0.268017787093074    1.987e-07
	  11        -0.268017786088741    5.521e-08

	Largest LIA Amplitudes:
	          3  20         0.0153167563
	          4  23         0.0153167563
	          3  21         0.0098639566
	          4  24         0.0098639566
	          3  19         0.0094044382
	          4  22         0.0094044382
	          2   2        -0.0069212041
	          2   0        -0.0066541968
	          6  28         0.0064640237
	          6  25        -0.0039316351

	Largest LIjAb Amplitudes:
	  3   3  14  14        -0.0773747497
	  4   4  10  10        -0.0773747497
	  3   3  13  14        -0.0492641668
	  3   3  14  13        -0.0492641668
	  4   4   9  10        -0.0492641668
	  4   4  10   9        -0.0492641668
	  3   4  14  10        -0.0456502120
	  4   3  10  14        -0.0456502120
	  3   3  13  13        -0.0326008014
	  4   4   9   9        -0.0326008014

	Iterations converged.

	Overlap <L|e^T> =        0.87556868948

			**************************
			*                        *
			*        CCDENSITY       *
			*                        *
			**************************


	Input parameters:
	-----------------
	Wave function    =   CCSD
	Reference wfn    =   RHF
	Dertype          = 1
	Tolerance        = 1.0e-14
	Cache Level      = 2
	AO Basis         = No
	OPDM Only        = No
	Relax OPDM       = Yes
	Compute Xi       = No
	Use Zeta         = No
	Xi connected     = Yes
	Compute NO       = No

	Nuclear Rep. energy (wfn)     =   24.323218171379235
	SCF energy          (wfn)     =  -76.819056778768754
	Reference energy    (file100) =  -76.819056778768797
	CCSD energy         (CC_INFO) =   -0.278112421461190
	Total CCSD energy   (CC_INFO) =  -77.097169200229985
	Number of States = 1

	Ground?  State     EOM Energy       R0
	  Yes     0 Ag    0.0000000000   1.00000000

	Virial Theorem Data:
	--------------------
	Kinetic energy (ref)   =   76.443037448994957
	Kinetic energy (corr)  =    0.430993818715958
	Kinetic energy (total) =   76.874031267710919
	-V/T (ref)             =    2.004918948047096
	-V/T (corr)            =    1.645281694038580
	-V/T (total)           =    2.002902643829644
  Cartesian Displacement SALCs
  By SALC:
  Number of SALCs: 2, nirreps: Ag
  Project out translations: False
  Project out rotations: False
	irrep = 0, ncomponent = 2
		0: atom 0, direction x, coef 0.707107
		1: atom 1, direction x, coef -0.707107
	irrep = 0, ncomponent = 2
		0: atom 2, direction x, coef 0.707107
		1: atom 3, direction x, coef -0.707107

  By Atomic Center:
  Number of atomic centers: 4
   Atomic Center 0:
	x component, size = 1
		0: salc 0, irrep 0, coef 0.707107
	y component, size = 0
	z component, size = 0
   Atomic Center 1:
	x component, size = 1
		0: salc 0, irrep 0, coef -0.707107
	y component, size = 0
	z component, size = 0
   Atomic Center 2:
	x component, size = 1
		0: salc 1, irrep 0, coef 0.707107
	y component, size = 0
	z component, size = 0
   Atomic Center 3:
	x component, size = 1
		0: salc 1, irrep 0, coef -0.707107
	y component, size = 0
	z component, size = 0

    Molecular point group: d2h
    Full point group: D_inf_h

    Geometry (in Bohr), charge = 0, multiplicity = 1:

       Center              X                  Y                   Z       
    ------------   -----------------  -----------------  -----------------
         C           -1.161161115049    -0.000000000000     0.000000000000
         C            1.161161115049     0.000000000000     0.000000000000
         H           -3.192182062907    -0.000000000000     0.000000000000
         H            3.192182062907     0.000000000000     0.000000000000

	Presorting MO-basis TPDM.
	Sorting File: MO TPDM (AA|AA) nbuckets = 1
	Starting first half-transformation.
	Sorting half-transformed TPDM.
	First half integral transformation complete.


  -Nuclear Repulsion Energy 1st Derivatives:
     Atom            X                  Y                   Z
    ------   -----------------  -----------------  -----------------
       1        5.537163209075     0.000000000000     0.000000000000
       2       -5.537163209075    -0.000000000000     0.000000000000
       3        1.795659009002     0.000000000000     0.000000000000
       4       -1.795659009002    -0.000000000000     0.000000000000


  -Core Hamiltonian Gradient:
     Atom            X                  Y                   Z
    ------   -----------------  -----------------  -----------------
       1      -16.462785931008    -0.000000000000     0.000000000000
       2       16.462785931008     0.000000000000     0.000000000000
       3       -4.379291785899    -0.000000000000     0.000000000000
       4        4.379291785899     0.000000000000     0.000000000000


  -Lagrangian contribution to gradient:
     Atom            X                  Y                   Z
    ------   -----------------  -----------------  -----------------
       1        0.530093258619     0.000000000000     0.000000000000
       2       -0.530093258619    -0.000000000000     0.000000000000
       3        0.229728457019     0.000000000000     0.000000000000
       4       -0.229728457019    -0.000000000000     0.000000000000


  -Two-electron contribution to gradient:
     Atom            X                  Y                   Z
    ------   -----------------  -----------------  -----------------
       1       10.367174430592     0.000000000000     0.000000000000
       2      -10.367174430592    -0.000000000000     0.000000000000
       3        2.349977609295     0.000000000000     0.000000000000
       4       -2.349977609295    -0.000000000000     0.000000000000


  -Total gradient:
     Atom            X                  Y                   Z
    ------   -----------------  -----------------  -----------------
       1       -0.028355032722    -0.000000000000     0.000000000000
       2        0.028355032722     0.000000000000     0.000000000000
       3       -0.003926710584    -0.000000000000     0.000000000000
       4        0.003926710584     0.000000000000     0.000000000000


  Based on options and gradient (rms=1.17E-02), recommend projecting translations and not projecting rotations.
hessian() will perform frequency computation by finite difference of analytic gradients.

         ----------------------------------------------------------
                                   FINDIF
                     R. A. King and Jonathon Misiewicz
         ---------------------------------------------------------

  Using finite-differences of gradients to determine vibrational frequencies and 
  normal modes.  Resulting frequencies are only valid at stationary points.
    Generating geometries for use with 3-point formula.
    Displacement size will be 5.00e-03.
    Number of atoms is 4.
    Number of irreps is 8.
    Number of SALCs is 9.
    Translations projected? 1. Rotations projected? 0.
    Index of SALCs per irrep:
     1 :  0  1 
     2 :  2  3 
     3 :  4  5 
     4 : 
     5 : 
     6 :  6 
     7 :  7 
     8 :  8 
    Number of SALCs per irrep:
     Irrep 1: 2
     Irrep 2: 2
     Irrep 3: 2
     Irrep 4: 0
     Irrep 5: 0
     Irrep 6: 1
     Irrep 7: 1
     Irrep 8: 1
    Number of geometries (including reference) is 12.
    Number of displacements per irrep:
      Irrep 1: 4
      Irrep 2: 2
      Irrep 3: 2
      Irrep 4: 0
      Irrep 5: 0
      Irrep 6: 1
      Irrep 7: 1
      Irrep 8: 1

  //>>>>>>>>>>>>>>>>>>>>>>>>>>>>>>>>>>>//
  //    Loading displacement 1 of 12   //
  //<<<<<<<<<<<<<<<<<<<<<<<<<<<<<<<<<<<//
gradient() will perform analytic gradient computation.

*** tstart() called on atlantis
*** at Tue Apr 19 01:47:14 2022

   => Loading Basis Set <=

    Name: 6-31+G*
    Role: ORBITAL
    Keyword: BASIS
    atoms 1-2 entry C          line   119 file /home/akrom/software/anaconda3/envs/ffpenv/share/psi4/basis/6-31pgs.gbs 
    atoms 3-4 entry H          line    46 file /home/akrom/software/anaconda3/envs/ffpenv/share/psi4/basis/6-31pgs.gbs 


         ---------------------------------------------------------
                                   SCF
               by Justin Turney, Rob Parrish, Andy Simmonett
                          and Daniel G. A. Smith
                              RHF Reference
                        1 Threads,    500 MiB Core
         ---------------------------------------------------------

  ==> Geometry <==

    Molecular point group: d2h
    Full point group: D_inf_h

    Geometry (in Angstrom), charge = 0, multiplicity = 1:

       Center              X                  Y                   Z               Mass       
    ------------   -----------------  -----------------  -----------------  -----------------
         C           -0.614460000000    -0.000000000000     0.000000000000    12.000000000000
         C            0.614460000000     0.000000000000     0.000000000000    12.000000000000
         H           -1.689230000000    -0.000000000000     0.000000000000     1.007825032230
         H            1.689230000000     0.000000000000     0.000000000000     1.007825032230

  Running in d2h symmetry.

  Rotational constants: A = ************  B =      1.13802  C =      1.13802 [cm^-1]
  Rotational constants: A = ************  B =  34116.98697  C =  34116.98697 [MHz]
  Nuclear repulsion =   24.323218171379235

  Charge       = 0
  Multiplicity = 1
  Electrons    = 14
  Nalpha       = 7
  Nbeta        = 7

  ==> Algorithm <==

  SCF Algorithm Type is PK.
  DIIS enabled.
  MOM disabled.
  Fractional occupation disabled.
  Guess Type is SAD.
  Energy threshold   = 1.00e-10
  Density threshold  = 1.00e-10
  Integral threshold = 0.00e+00

  ==> Primary Basis <==

  Basis Set: 6-31+G*
    Blend: 6-31+G*
    Number of shells: 20
    Number of basis function: 42
    Number of Cartesian functions: 42
    Spherical Harmonics?: false
    Max angular momentum: 2

  ==> Pre-Iterations <==

   -------------------------------------------------------
    Irrep   Nso     Nmo     Nalpha   Nbeta   Ndocc  Nsocc
   -------------------------------------------------------
     Ag        12      12       0       0       0       0
     B1g        4       4       0       0       0       0
     B2g        4       4       0       0       0       0
     B3g        1       1       0       0       0       0
     Au         1       1       0       0       0       0
     B1u        4       4       0       0       0       0
     B2u        4       4       0       0       0       0
     B3u       12      12       0       0       0       0
   -------------------------------------------------------
    Total      42      42       7       7       7       0
   -------------------------------------------------------

  ==> Integral Setup <==

  Using in-core PK algorithm.
   Calculation information:
      Number of atoms:                   4
      Number of AO shells:              20
      Number of primitives:             42
      Number of atomic orbitals:        42
      Number of basis functions:        42

      Integral cutoff                 1.00e-12
      Number of threads:                 1

  Performing in-core PK
  Using 816312 doubles for integral storage.
  We computed 22155 shell quartets total.
  Whereas there are 22155 unique shell quartets.

  ==> DiskJK: Disk-Based J/K Matrices <==

    J tasked:                  Yes
    K tasked:                  Yes
    wK tasked:                  No
    Memory [MiB]:              375
    Schwarz Cutoff:          1E-12

    OpenMP threads:              1

  Minimum eigenvalue in the overlap matrix is 1.4784343761E-04.
  Using Symmetric Orthogonalization.

  SCF Guess: Superposition of Atomic Densities via on-the-fly atomic UHF.

  ==> Iterations <==

                        Total Energy        Delta E     RMS |[F,P]|

   @RHF iter SAD:   -75.86666797886923   -7.58667e+01   0.00000e+00 
   @RHF iter   1:   -76.77771050157503   -9.11043e-01   1.42129e-02 DIIS
   @RHF iter   2:   -76.81484589760962   -3.71354e-02   4.73070e-03 DIIS
   @RHF iter   3:   -76.81895687677233   -4.11098e-03   5.31422e-04 DIIS
   @RHF iter   4:   -76.81905469134102   -9.78146e-05   6.77462e-05 DIIS
   @RHF iter   5:   -76.81905666564712   -1.97431e-06   1.44485e-05 DIIS
   @RHF iter   6:   -76.81905677657963   -1.10933e-07   2.11735e-06 DIIS
   @RHF iter   7:   -76.81905677874961   -2.16998e-09   2.12838e-07 DIIS
   @RHF iter   8:   -76.81905677876853   -1.89146e-11   1.72195e-08 DIIS
   @RHF iter   9:   -76.81905677876864   -1.13687e-13   1.31872e-09 DIIS
   @RHF iter  10:   -76.81905677876880   -1.56319e-13   2.40235e-10 DIIS
   @RHF iter  11:   -76.81905677876875    4.26326e-14   1.49384e-11 DIIS
  Energy and wave function converged.


  ==> Post-Iterations <==

    Orbital Energies [Eh]
    ---------------------

    Doubly Occupied:                                                      

       1Ag   -11.261418     1B3u  -11.258260     2Ag    -1.024296  
       2B3u   -0.768767     3Ag    -0.677179     1B2u   -0.404095  
       1B1u   -0.404095  

    Virtual:                                                              

       3B3u    0.079188     4Ag     0.085944     1B2g    0.112610  
       1B1g    0.112610     2B2u    0.134604     2B1u    0.134604  
       5Ag     0.156723     4B3u    0.233160     2B2g    0.258880  
       2B1g    0.258880     5B3u    0.308863     6Ag     0.391966  
       6B3u    0.697828     7Ag     0.850624     3B2u    0.878696  
       3B1u    0.878696     3B1g    0.975239     3B2g    0.975239  
       7B3u    1.083301     8Ag     1.118179     9Ag     1.334405  
       8B3u    1.554767     9B3u    1.726755     4B2u    1.765015  
       4B1u    1.765015     1B3g    1.811472    10Ag     1.811472  
       1Au     2.223147    10B3u    2.223147     4B1g    2.795291  
       4B2g    2.795291    11Ag     2.831776    11B3u    3.562416  
      12Ag     4.622822    12B3u    4.776866  

    Final Occupation by Irrep:
             Ag   B1g   B2g   B3g    Au   B1u   B2u   B3u 
    DOCC [     3,    0,    0,    0,    0,    1,    1,    2 ]

  @RHF Final Energy:   -76.81905677876875

   => Energetics <=

    Nuclear Repulsion Energy =             24.3232181713792350
    One-Electron Energy =                -150.6883326239137944
    Two-Electron Energy =                  49.5460576737658016
    Total Energy =                        -76.8190567787687542

Computation Completed


Properties will be evaluated at   0.000000,   0.000000,   0.000000 [a0]

Properties computed using the SCF density matrix

  Nuclear Dipole Moment: [e a0]
     X:     0.0000      Y:     0.0000      Z:     0.0000

  Electronic Dipole Moment: [e a0]
     X:     0.0000      Y:     0.0000      Z:     0.0000

  Dipole Moment: [e a0]
     X:     0.0000      Y:     0.0000      Z:     0.0000     Total:     0.0000

  Dipole Moment: [D]
     X:     0.0000      Y:     0.0000      Z:     0.0000     Total:     0.0000


*** tstop() called on atlantis at Tue Apr 19 01:47:14 2022
Module time:
	user time   =       0.29 seconds =       0.00 minutes
	system time =       0.00 seconds =       0.00 minutes
	total time  =          0 seconds =       0.00 minutes
Total time:
	user time   =       1.60 seconds =       0.03 minutes
	system time =       0.18 seconds =       0.00 minutes
	total time  =          2 seconds =       0.03 minutes
 MINTS: Wrapper to libmints.
   by Justin Turney

   Calculation information:
      Number of threads:                 1
      Number of atoms:                   4
      Number of AO shells:              20
      Number of SO shells:              10
      Number of primitives:             42
      Number of atomic orbitals:        42
      Number of basis functions:        42

      Number of irreps:                  8
      Integral cutoff                 0.00e+00
      Number of functions per irrep: [  12    4    4    1    1    4    4   12 ]

 OEINTS: Overlap, kinetic, potential, dipole, and quadrupole integrals
         stored in file 35.

      Computing two-electron integrals...done
      Computed 60486 non-zero two-electron integrals.
        Stored in file 33.


*** tstart() called on atlantis
*** at Tue Apr 19 01:47:14 2022


	Wfn Parameters:
	--------------------
	Wavefunction         = CCSD
	Number of irreps     = 8
	Number of MOs        = 42
	Number of active MOs = 42
	AO-Basis             = NONE
	Semicanonical        = false
	Reference            = RHF
	Print Level          = 1

	IRREP	# MOs	# FZDC	# DOCC	# SOCC	# VIRT	# FZVR
	-----	-----	------	------	------	------	------
	 Ag	   12	    0	    3	    0	    9	    0
	 B1g	   4	    0	    0	    0	    4	    0
	 B2g	   4	    0	    0	    0	    4	    0
	 B3g	   1	    0	    0	    0	    1	    0
	 Au	   1	    0	    0	    0	    1	    0
	 B1u	   4	    0	    1	    0	    3	    0
	 B2u	   4	    0	    1	    0	    3	    0
	 B3u	   12	    0	    2	    0	    10	    0
	Transforming integrals...
	IWL integrals will be deleted.
	(OO|OO)...
	Presorting SO-basis two-electron integrals.
	Sorting File: SO Ints (nn|nn) nbuckets = 1
	Transforming the one-electron integrals and constructing Fock matrices
	Starting first half-transformation.
	Sorting half-transformed integrals.
	First half integral transformation complete.
	Starting second half-transformation.
	Two-electron integral transformation complete.
	(OO|OV)...
	Starting second half-transformation.
	Two-electron integral transformation complete.
	(OO|VV)...
	Starting second half-transformation.
	Two-electron integral transformation complete.
	(OV|OO)...
	Starting first half-transformation.
	Sorting half-transformed integrals.
	First half integral transformation complete.
	Starting second half-transformation.
	Two-electron integral transformation complete.
	(OV|OV)...
	Starting second half-transformation.
	Two-electron integral transformation complete.
	(OV|VV)...
	Starting second half-transformation.
	Two-electron integral transformation complete.
	(VV|OO)...
	Starting first half-transformation.
	Sorting half-transformed integrals.
	First half integral transformation complete.
	Starting second half-transformation.
	Two-electron integral transformation complete.
	(VV|OV)...
	Starting second half-transformation.
	Two-electron integral transformation complete.
	(VV|VV)...
	Starting second half-transformation.
	Two-electron integral transformation complete.
	Frozen core energy     =      0.00000000000000

	Size of irrep 0 of <ab|cd> integrals:      0.054 (MW) /      0.434 (MB)
	Size of irrep 1 of <ab|cd> integrals:      0.021 (MW) /      0.171 (MB)
	Size of irrep 2 of <ab|cd> integrals:      0.021 (MW) /      0.171 (MB)
	Size of irrep 3 of <ab|cd> integrals:      0.008 (MW) /      0.062 (MB)
	Size of irrep 4 of <ab|cd> integrals:      0.007 (MW) /      0.059 (MB)
	Size of irrep 5 of <ab|cd> integrals:      0.022 (MW) /      0.175 (MB)
	Size of irrep 6 of <ab|cd> integrals:      0.022 (MW) /      0.175 (MB)
	Size of irrep 7 of <ab|cd> integrals:      0.053 (MW) /      0.423 (MB)
	Total:                                     0.209 (MW) /      1.670 (MB)

	Size of irrep 0 of <ia|bc> integrals:      0.012 (MW) /      0.099 (MB)
	Size of irrep 1 of <ia|bc> integrals:      0.004 (MW) /      0.034 (MB)
	Size of irrep 2 of <ia|bc> integrals:      0.004 (MW) /      0.034 (MB)
	Size of irrep 3 of <ia|bc> integrals:      0.001 (MW) /      0.008 (MB)
	Size of irrep 4 of <ia|bc> integrals:      0.001 (MW) /      0.009 (MB)
	Size of irrep 5 of <ia|bc> integrals:      0.004 (MW) /      0.032 (MB)
	Size of irrep 6 of <ia|bc> integrals:      0.004 (MW) /      0.032 (MB)
	Size of irrep 7 of <ia|bc> integrals:      0.013 (MW) /      0.103 (MB)
	Total:                                     0.044 (MW) /      0.350 (MB)

	Size of irrep 0 of tijab amplitudes:       0.003 (MW) /      0.028 (MB)
	Size of irrep 1 of tijab amplitudes:       0.001 (MW) /      0.005 (MB)
	Size of irrep 2 of tijab amplitudes:       0.001 (MW) /      0.005 (MB)
	Size of irrep 3 of tijab amplitudes:       0.000 (MW) /      0.001 (MB)
	Size of irrep 4 of tijab amplitudes:       0.000 (MW) /      0.000 (MB)
	Size of irrep 5 of tijab amplitudes:       0.001 (MW) /      0.007 (MB)
	Size of irrep 6 of tijab amplitudes:       0.001 (MW) /      0.007 (MB)
	Size of irrep 7 of tijab amplitudes:       0.003 (MW) /      0.022 (MB)
	Total:                                     0.009 (MW) /      0.075 (MB)

	Nuclear Rep. energy          =     24.32321817137924
	SCF energy                   =    -76.81905677876875
	One-electron energy          =   -150.68833262402535
	Two-electron energy          =     49.54605767387731
	Reference energy             =    -76.81905677876880

*** tstop() called on atlantis at Tue Apr 19 01:47:14 2022
Module time:
	user time   =       0.01 seconds =       0.00 minutes
	system time =       0.02 seconds =       0.00 minutes
	total time  =          0 seconds =       0.00 minutes
Total time:
	user time   =       1.65 seconds =       0.03 minutes
	system time =       0.20 seconds =       0.00 minutes
	total time  =          2 seconds =       0.03 minutes
            **************************
            *                        *
            *        CCENERGY        *
            *                        *
            **************************

    Nuclear Rep. energy (wfn)     =   24.323218171379235
    SCF energy          (wfn)     =  -76.819056778768754
    Reference energy    (file100) =  -76.819056778768797

    Input parameters:
    -----------------
    Wave function   =     CCSD
    Reference wfn   =     RHF
    Brueckner       =     No
    Memory (Mbytes) =     524.3
    Maxiter         =     50
    R_Convergence   =     1.0e-07
    E_Convergence   =     1.0e-08
    Restart         =     Yes
    DIIS            =     Yes
    AO Basis        =     NONE
    ABCD            =     NEW
    Cache Level     =     2
    Cache Type      =     LOW
    Print Level     =     1
    Num. of threads =     1
    # Amps to Print =     10
    Print MP2 Amps? =     No
    Analyze T2 Amps =     No
    Print Pair Ener =     No
    Local CC        =     No
    SCS-MP2         =     False
    SCSN-MP2        =     False
    SCS-CCSD        =     False

MP2 correlation energy -0.2635651221825397
                Solving CC Amplitude Equations
                ------------------------------
  Iter             Energy              RMS        T1Diag      D1Diag    New D1Diag    D2Diag
  ----     ---------------------    ---------   ----------  ----------  ----------   --------
     0        -0.263565122182540    0.000e+00    0.000000    0.000000    0.000000    0.158871
     1        -0.265501188312325    5.652e-02    0.010240    0.025486    0.025486    0.161342
     2        -0.275056901805226    2.381e-02    0.010625    0.026376    0.026376    0.173312
     3        -0.277715169470436    1.071e-02    0.012170    0.030331    0.030331    0.180709
     4        -0.278055157044310    3.384e-03    0.012244    0.030575    0.030575    0.183413
     5        -0.278113818707296    7.254e-04    0.012246    0.030603    0.030603    0.183911
     6        -0.278108358061795    1.998e-04    0.012229    0.030566    0.030566    0.183946
     7        -0.278112189569009    4.234e-05    0.012226    0.030557    0.030557    0.183962
     8        -0.278112489383893    1.035e-05    0.012225    0.030555    0.030555    0.183965
     9        -0.278112350528150    2.610e-06    0.012225    0.030554    0.030554    0.183965
    10        -0.278112424089139    7.225e-07    0.012225    0.030554    0.030554    0.183965
    11        -0.278112416457941    1.850e-07    0.012225    0.030554    0.030554    0.183965
    12        -0.278112420575006    5.423e-08    0.012225    0.030554    0.030554    0.183965

    Iterations converged.


    Largest TIA Amplitudes:
              3  20         0.0229798980
              4  23         0.0229798980
              3  19         0.0151065787
              4  22         0.0151065787
              3  21         0.0133140651
              4  24         0.0133140651
              6  28         0.0064962611
              2   0        -0.0054970061
              2   4        -0.0053720460
              1   5         0.0039286436

    Largest TIjAb Amplitudes:
      3   3  14  14        -0.0804053129
      4   4  10  10        -0.0804053129
      3   3  13  14        -0.0510552140
      3   3  14  13        -0.0510552140
      4   4   9  10        -0.0510552140
      4   4  10   9        -0.0510552140
      3   4  14  10        -0.0486776350
      4   3  10  14        -0.0486776350
      3   3  13  13        -0.0336969747
      4   4   9   9        -0.0336969747

    SCF energy       (wfn)                    =  -76.819056778768754
    Reference energy (file100)                =  -76.819056778768797

    Opposite-spin MP2 correlation energy      =   -0.199716852939064
    Same-spin MP2 correlation energy          =   -0.063848269243476
    MP2 correlation energy                    =   -0.263565122182540
      * MP2 total energy                      =  -77.082621900951338

    Opposite-spin CCSD correlation energy     =   -0.224477329534558
    Same-spin CCSD correlation energy         =   -0.053635091040448
    CCSD correlation energy                   =   -0.278112420575006
      * CCSD total energy                     =  -77.097169199343796


			**************************
			*                        *
			*         CCHBAR         *
			*                        *
			**************************


			**************************
			*        CCLAMBDA        *
			**************************


	Nuclear Rep. energy (wfn)     =   24.323218171379235
	Reference           (wfn)     =                    0
	SCF energy          (wfn)     =  -76.819056778768754
	Reference energy    (CC_INFO) =  -76.819056778768797
	CCSD energy         (CC_INFO) =   -0.278112420575006
	Total CCSD energy   (CC_INFO) =  -77.097169199343796

	Input parameters:
	-----------------
	Maxiter           =     50
	Convergence       = 1.0e-07
	Restart           =     No
	Cache Level       =     2
	Model III         =     No
	DIIS              =     Yes
	AO Basis          =     No
	ABCD              =     NEW
	Local CC          =     No
	Parameters for left-handed eigenvectors:
	    Irr   Root  Ground-State?    EOM energy        R0
	  1   0     0        Yes       0.0000000000   1.0000000000
	Labels for eigenvector 1:
	LIA 0 -1, Lia 0 -1, LIJAB 0 -1, Lijab 0 -1, LIjAb 0 -1, 2LIjAb - LIjbA 0 -1
	Symmetry of left-hand state: Ag
	Symmetry of left-hand eigenvector: Ag

	          Solving Lambda Equations
	          ------------------------
	Iter     PseudoEnergy or Norm         RMS  
	----     ---------------------     --------
	   0        -0.278391021338221    5.521e-08
	   1        -0.269905098781215    2.070e-02
	   2        -0.268258203214058    4.256e-03
	   3        -0.268056823673795    1.260e-03
	   4        -0.268019802693264    3.678e-04
	   5        -0.268022071727578    1.079e-04
	   6        -0.268018654363326    2.631e-05
	   7        -0.268018107046893    1.048e-05
	   8        -0.268017859039680    3.444e-06
	   9        -0.268017774143185    8.023e-07
	  10        -0.268017787306231    1.987e-07
	  11        -0.268017786301906    5.521e-08

	Largest LIA Amplitudes:
	          3  20         0.0153167564
	          4  23         0.0153167564
	          3  21         0.0098639568
	          4  24         0.0098639568
	          3  19         0.0094044383
	          4  22         0.0094044383
	          2   2        -0.0069212038
	          2   0        -0.0066541966
	          6  28         0.0064640235
	          6  25        -0.0039316350

	Largest LIjAb Amplitudes:
	  3   3  14  14        -0.0773747497
	  4   4  10  10        -0.0773747497
	  3   3  13  14        -0.0492641668
	  3   3  14  13        -0.0492641668
	  4   4   9  10        -0.0492641668
	  4   4  10   9        -0.0492641668
	  3   4  14  10        -0.0456502122
	  4   3  10  14        -0.0456502122
	  3   3  13  13        -0.0326008014
	  4   4   9   9        -0.0326008014

	Iterations converged.

	Overlap <L|e^T> =        0.87556869049

			**************************
			*                        *
			*        CCDENSITY       *
			*                        *
			**************************


	Input parameters:
	-----------------
	Wave function    =   CCSD
	Reference wfn    =   RHF
	Dertype          = 1
	Tolerance        = 1.0e-14
	Cache Level      = 2
	AO Basis         = No
	OPDM Only        = No
	Relax OPDM       = Yes
	Compute Xi       = No
	Use Zeta         = No
	Xi connected     = Yes
	Compute NO       = No

	Nuclear Rep. energy (wfn)     =   24.323218171379235
	SCF energy          (wfn)     =  -76.819056778768754
	Reference energy    (file100) =  -76.819056778768797
	CCSD energy         (CC_INFO) =   -0.278112420575006
	Total CCSD energy   (CC_INFO) =  -77.097169199343796
	Number of States = 1

	Ground?  State     EOM Energy       R0
	  Yes     0 Ag    0.0000000000   1.00000000

	Virial Theorem Data:
	--------------------
	Kinetic energy (ref)   =   76.443037448994957
	Kinetic energy (corr)  =    0.430993805629383
	Kinetic energy (total) =   76.874031254624342
	-V/T (ref)             =    2.004918948047096
	-V/T (corr)            =    1.645281711575591
	-V/T (total)           =    2.002902643988844
  Cartesian Displacement SALCs
  By SALC:
  Number of SALCs: 2, nirreps: Ag
  Project out translations: False
  Project out rotations: False
	irrep = 0, ncomponent = 2
		0: atom 0, direction x, coef 0.707107
		1: atom 1, direction x, coef -0.707107
	irrep = 0, ncomponent = 2
		0: atom 2, direction x, coef 0.707107
		1: atom 3, direction x, coef -0.707107

  By Atomic Center:
  Number of atomic centers: 4
   Atomic Center 0:
	x component, size = 1
		0: salc 0, irrep 0, coef 0.707107
	y component, size = 0
	z component, size = 0
   Atomic Center 1:
	x component, size = 1
		0: salc 0, irrep 0, coef -0.707107
	y component, size = 0
	z component, size = 0
   Atomic Center 2:
	x component, size = 1
		0: salc 1, irrep 0, coef 0.707107
	y component, size = 0
	z component, size = 0
   Atomic Center 3:
	x component, size = 1
		0: salc 1, irrep 0, coef -0.707107
	y component, size = 0
	z component, size = 0

    Molecular point group: d2h
    Full point group: D_inf_h

    Geometry (in Bohr), charge = 0, multiplicity = 1:

       Center              X                  Y                   Z       
    ------------   -----------------  -----------------  -----------------
         C           -1.161161115049    -0.000000000000     0.000000000000
         C            1.161161115049     0.000000000000     0.000000000000
         H           -3.192182062907    -0.000000000000     0.000000000000
         H            3.192182062907     0.000000000000     0.000000000000

	Presorting MO-basis TPDM.
	Sorting File: MO TPDM (AA|AA) nbuckets = 1
	Starting first half-transformation.
	Sorting half-transformed TPDM.
	First half integral transformation complete.


  -Nuclear Repulsion Energy 1st Derivatives:
     Atom            X                  Y                   Z
    ------   -----------------  -----------------  -----------------
       1        5.537163209075     0.000000000000     0.000000000000
       2       -5.537163209075    -0.000000000000     0.000000000000
       3        1.795659009002     0.000000000000     0.000000000000
       4       -1.795659009002    -0.000000000000     0.000000000000


  -Core Hamiltonian Gradient:
     Atom            X                  Y                   Z
    ------   -----------------  -----------------  -----------------
       1      -16.462785920073    -0.000000000000     0.000000000000
       2       16.462785920073     0.000000000000     0.000000000000
       3       -4.379291794009    -0.000000000000     0.000000000000
       4        4.379291794009     0.000000000000     0.000000000000


  -Lagrangian contribution to gradient:
     Atom            X                  Y                   Z
    ------   -----------------  -----------------  -----------------
       1        0.530093257603     0.000000000000     0.000000000000
       2       -0.530093257603    -0.000000000000     0.000000000000
       3        0.229728457150     0.000000000000     0.000000000000
       4       -0.229728457150    -0.000000000000     0.000000000000


  -Two-electron contribution to gradient:
     Atom            X                  Y                   Z
    ------   -----------------  -----------------  -----------------
       1       10.367174420018     0.000000000000     0.000000000000
       2      -10.367174420018    -0.000000000000     0.000000000000
       3        2.349977617530     0.000000000000     0.000000000000
       4       -2.349977617530    -0.000000000000     0.000000000000


  -Total gradient:
     Atom            X                  Y                   Z
    ------   -----------------  -----------------  -----------------
       1       -0.028355033378    -0.000000000000     0.000000000000
       2        0.028355033378     0.000000000000     0.000000000000
       3       -0.003926710328    -0.000000000000     0.000000000000
       4        0.003926710328     0.000000000000     0.000000000000


  //>>>>>>>>>>>>>>>>>>>>>>>>>>>>>>>>>>>//
  //    Loading displacement 2 of 12   //
  //<<<<<<<<<<<<<<<<<<<<<<<<<<<<<<<<<<<//
gradient() will perform analytic gradient computation.

*** tstart() called on atlantis
*** at Tue Apr 19 01:47:14 2022

   => Loading Basis Set <=

    Name: 6-31+G*
    Role: ORBITAL
    Keyword: BASIS
    atoms 1-2 entry C          line   119 file /home/akrom/software/anaconda3/envs/ffpenv/share/psi4/basis/6-31pgs.gbs 
    atoms 3-4 entry H          line    46 file /home/akrom/software/anaconda3/envs/ffpenv/share/psi4/basis/6-31pgs.gbs 


         ---------------------------------------------------------
                                   SCF
               by Justin Turney, Rob Parrish, Andy Simmonett
                          and Daniel G. A. Smith
                              RHF Reference
                        1 Threads,    500 MiB Core
         ---------------------------------------------------------

  ==> Geometry <==

    Molecular point group: d2h
    Full point group: D_inf_h

    Geometry (in Angstrom), charge = 0, multiplicity = 1:

       Center              X                  Y                   Z               Mass       
    ------------   -----------------  -----------------  -----------------  -----------------
         C           -0.615000089229    -0.000000000000     0.000000000000    12.000000000000
         C            0.615000089229     0.000000000000     0.000000000000    12.000000000000
         H           -1.689230000000    -0.000000000000     0.000000000000     1.007825032230
         H            1.689230000000     0.000000000000     0.000000000000     1.007825032230

  Running in d2h symmetry.

  Rotational constants: A = ************  B =      1.13680  C =      1.13680 [cm^-1]
  Rotational constants: A = ************  B =  34080.32226  C =  34080.32226 [MHz]
  Nuclear repulsion =   24.311929094340595

  Charge       = 0
  Multiplicity = 1
  Electrons    = 14
  Nalpha       = 7
  Nbeta        = 7

  ==> Algorithm <==

  SCF Algorithm Type is PK.
  DIIS enabled.
  MOM disabled.
  Fractional occupation disabled.
  Guess Type is SAD.
  Energy threshold   = 1.00e-10
  Density threshold  = 1.00e-10
  Integral threshold = 0.00e+00

  ==> Primary Basis <==

  Basis Set: 6-31+G*
    Blend: 6-31+G*
    Number of shells: 20
    Number of basis function: 42
    Number of Cartesian functions: 42
    Spherical Harmonics?: false
    Max angular momentum: 2

  ==> Pre-Iterations <==

   -------------------------------------------------------
    Irrep   Nso     Nmo     Nalpha   Nbeta   Ndocc  Nsocc
   -------------------------------------------------------
     Ag        12      12       0       0       0       0
     B1g        4       4       0       0       0       0
     B2g        4       4       0       0       0       0
     B3g        1       1       0       0       0       0
     Au         1       1       0       0       0       0
     B1u        4       4       0       0       0       0
     B2u        4       4       0       0       0       0
     B3u       12      12       0       0       0       0
   -------------------------------------------------------
    Total      42      42       7       7       7       0
   -------------------------------------------------------

  ==> Integral Setup <==

  Using in-core PK algorithm.
   Calculation information:
      Number of atoms:                   4
      Number of AO shells:              20
      Number of primitives:             42
      Number of atomic orbitals:        42
      Number of basis functions:        42

      Integral cutoff                 1.00e-12
      Number of threads:                 1

  Performing in-core PK
  Using 816312 doubles for integral storage.
  We computed 22155 shell quartets total.
  Whereas there are 22155 unique shell quartets.

  ==> DiskJK: Disk-Based J/K Matrices <==

    J tasked:                  Yes
    K tasked:                  Yes
    wK tasked:                  No
    Memory [MiB]:              375
    Schwarz Cutoff:          1E-12

    OpenMP threads:              1

  Minimum eigenvalue in the overlap matrix is 1.4859942389E-04.
  Using Symmetric Orthogonalization.

  SCF Guess: Superposition of Atomic Densities via on-the-fly atomic UHF.

  ==> Iterations <==

                        Total Energy        Delta E     RMS |[F,P]|

   @RHF iter SAD:   -75.86571368507535   -7.58657e+01   0.00000e+00 
   @RHF iter   1:   -76.77770591963964   -9.11992e-01   1.41799e-02 DIIS
   @RHF iter   2:   -76.81471291817304   -3.70070e-02   4.71709e-03 DIIS
   @RHF iter   3:   -76.81880044092294   -4.08752e-03   5.31861e-04 DIIS
   @RHF iter   4:   -76.81889857286615   -9.81319e-05   6.79871e-05 DIIS
   @RHF iter   5:   -76.81890056278851   -1.98992e-06   1.44791e-05 DIIS
   @RHF iter   6:   -76.81890067425269   -1.11464e-07   2.11696e-06 DIIS
   @RHF iter   7:   -76.81890067642045   -2.16777e-09   2.12935e-07 DIIS
   @RHF iter   8:   -76.81890067643934   -1.88862e-11   1.72077e-08 DIIS
   @RHF iter   9:   -76.81890067643950   -1.56319e-13   1.31828e-09 DIIS
   @RHF iter  10:   -76.81890067643944    5.68434e-14   2.39846e-10 DIIS
   @RHF iter  11:   -76.81890067643940    4.26326e-14   1.49333e-11 DIIS
  Energy and wave function converged.


  ==> Post-Iterations <==

    Orbital Energies [Eh]
    ---------------------

    Doubly Occupied:                                                      

       1Ag   -11.261708     1B3u  -11.258569     2Ag    -1.024037  
       2B3u   -0.769163     3Ag    -0.677358     1B2u   -0.403880  
       1B1u   -0.403880  

    Virtual:                                                              

       3B3u    0.079179     4Ag     0.085922     1B1g    0.112511  
       1B2g    0.112511     2B1u    0.134629     2B2u    0.134629  
       5Ag     0.156735     4B3u    0.233125     2B1g    0.258570  
       2B2g    0.258570     5B3u    0.308841     6Ag     0.392098  
       6B3u    0.697299     7Ag     0.850844     3B2u    0.878887  
       3B1u    0.878887     3B1g    0.974973     3B2g    0.974973  
       7B3u    1.083229     8Ag     1.118100     9Ag     1.334542  
       8B3u    1.553290     9B3u    1.726810     4B2u    1.764162  
       4B1u    1.764162    10Ag     1.811737     1B3g    1.811737  
      10B3u    2.222469     1Au     2.222469     4B1g    2.793922  
       4B2g    2.793922    11Ag     2.831279    11B3u    3.560720  
      12Ag     4.622200    12B3u    4.777154  

    Final Occupation by Irrep:
             Ag   B1g   B2g   B3g    Au   B1u   B2u   B3u 
    DOCC [     3,    0,    0,    0,    0,    1,    1,    2 ]

  @RHF Final Energy:   -76.81890067643940

   => Energetics <=

    Nuclear Repulsion Energy =             24.3119290943405950
    One-Electron Energy =                -150.6644683651050229
    Two-Electron Energy =                  49.5336385943250264
    Total Energy =                        -76.8189006764393980

Computation Completed


Properties will be evaluated at   0.000000,   0.000000,   0.000000 [a0]

Properties computed using the SCF density matrix

  Nuclear Dipole Moment: [e a0]
     X:     0.0000      Y:     0.0000      Z:     0.0000

  Electronic Dipole Moment: [e a0]
     X:     0.0000      Y:     0.0000      Z:     0.0000

  Dipole Moment: [e a0]
     X:     0.0000      Y:     0.0000      Z:     0.0000     Total:     0.0000

  Dipole Moment: [D]
     X:     0.0000      Y:     0.0000      Z:     0.0000     Total:     0.0000


*** tstop() called on atlantis at Tue Apr 19 01:47:15 2022
Module time:
	user time   =       0.28 seconds =       0.00 minutes
	system time =       0.00 seconds =       0.00 minutes
	total time  =          1 seconds =       0.02 minutes
Total time:
	user time   =       2.20 seconds =       0.04 minutes
	system time =       0.34 seconds =       0.01 minutes
	total time  =          3 seconds =       0.05 minutes
 MINTS: Wrapper to libmints.
   by Justin Turney

   Calculation information:
      Number of threads:                 1
      Number of atoms:                   4
      Number of AO shells:              20
      Number of SO shells:              10
      Number of primitives:             42
      Number of atomic orbitals:        42
      Number of basis functions:        42

      Number of irreps:                  8
      Integral cutoff                 0.00e+00
      Number of functions per irrep: [  12    4    4    1    1    4    4   12 ]

 OEINTS: Overlap, kinetic, potential, dipole, and quadrupole integrals
         stored in file 35.

      Computing two-electron integrals...done
      Computed 60486 non-zero two-electron integrals.
        Stored in file 33.


*** tstart() called on atlantis
*** at Tue Apr 19 01:47:15 2022


	Wfn Parameters:
	--------------------
	Wavefunction         = CCSD
	Number of irreps     = 8
	Number of MOs        = 42
	Number of active MOs = 42
	AO-Basis             = NONE
	Semicanonical        = false
	Reference            = RHF
	Print Level          = 1

	IRREP	# MOs	# FZDC	# DOCC	# SOCC	# VIRT	# FZVR
[...]
    11        -0.278112584811919    1.851e-07    0.012225    0.030554    0.030554    0.183965
    12        -0.278112588929150    5.424e-08    0.012225    0.030554    0.030554    0.183965

    Iterations converged.


    Largest TIA Amplitudes:
              5  24         0.0229799068
              6  31         0.0229799068
              5  22         0.0151065820
              6  29         0.0151065820
              5  26         0.0133140665
              6  33         0.0133140665
              3   6         0.0064960837
              4   1        -0.0054966595
              4   9        -0.0053722851
              2  10         0.0039284514

    Largest TIjAb Amplitudes:
      5   5  23  23        -0.0804053570
      6   6  30  30        -0.0804053570
      5   5  21  23        -0.0510552219
      5   5  23  21        -0.0510552219
      6   6  28  30        -0.0510552219
      6   6  30  28        -0.0510552219
      5   6  23  30        -0.0486776588
      6   5  30  23        -0.0486776588
      5   5  21  21        -0.0336969719
      6   6  28  28        -0.0336969719

    SCF energy       (wfn)                    =  -76.819051192904112
    Reference energy (file100)                =  -76.819051192904197

    Opposite-spin MP2 correlation energy      =   -0.199716958309223
    Same-spin MP2 correlation energy          =   -0.063848300698930
    MP2 correlation energy                    =   -0.263565259008153
      * MP2 total energy                      =  -77.082616451912344

    Opposite-spin CCSD correlation energy     =   -0.224477491443935
    Same-spin CCSD correlation energy         =   -0.053635097485216
    CCSD correlation energy                   =   -0.278112588929150
      * CCSD total energy                     =  -77.097163781833345


			**************************
			*                        *
			*         CCHBAR         *
			*                        *
			**************************


			**************************
			*        CCLAMBDA        *
			**************************


	Nuclear Rep. energy (wfn)     =   24.323239383855910
	Reference           (wfn)     =                    0
	SCF energy          (wfn)     =  -76.819051192904112
	Reference energy    (CC_INFO) =  -76.819051192904197
	CCSD energy         (CC_INFO) =   -0.278112588929150
	Total CCSD energy   (CC_INFO) =  -77.097163781833345

	Input parameters:
	-----------------
	Maxiter           =     50
	Convergence       = 1.0e-07
	Restart           =     No
	Cache Level       =     2
	Model III         =     No
	DIIS              =     Yes
	AO Basis          =     No
	ABCD              =     NEW
	Local CC          =     No
	Parameters for left-handed eigenvectors:
	    Irr   Root  Ground-State?    EOM energy        R0
	  1   0     0        Yes       0.0000000000   1.0000000000
	Labels for eigenvector 1:
	LIA 0 -1, Lia 0 -1, LIJAB 0 -1, Lijab 0 -1, LIjAb 0 -1, 2LIjAb - LIjbA 0 -1
	Symmetry of left-hand state: A1
	Symmetry of left-hand eigenvector: A1

	          Solving Lambda Equations
	          ------------------------
	Iter     PseudoEnergy or Norm         RMS  
	----     ---------------------     --------
	   0        -0.278391189842191    5.521e-08
	   1        -0.269905241660723    2.070e-02
	   2        -0.268258343961078    4.256e-03
	   3        -0.268056963134095    1.260e-03
	   4        -0.268019941655097    3.678e-04
	   5        -0.268022210424368    1.079e-04
	   6        -0.268018793281513    2.631e-05
	   7        -0.268018245730725    1.048e-05
	   8        -0.268017997832201    3.444e-06
	   9        -0.268017912884966    8.025e-07
	  10        -0.268017926052805    1.987e-07
	  11        -0.268017925048383    5.521e-08

	Largest LIA Amplitudes:
	          5  24         0.0153167632
	          6  31         0.0153167632
	          5  26         0.0098639566
	          6  33         0.0098639566
	          5  22         0.0094044518
	          6  29         0.0094044518
	          4   5        -0.0069205469
	          4   1        -0.0066538595
	          3   6         0.0064638444
	          3   0        -0.0039312986

	Largest LIjAb Amplitudes:
	  5   5  23  23        -0.0773747939
	  6   6  30  30        -0.0773747939
	  5   5  21  23        -0.0492641749
	  5   5  23  21        -0.0492641749
	  6   6  28  30        -0.0492641749
	  6   6  30  28        -0.0492641749
	  5   6  23  30        -0.0456502338
	  6   5  30  23        -0.0456502338
	  5   5  21  21        -0.0326007984
	  6   6  28  28        -0.0326007984

	Iterations converged.

	Overlap <L|e^T> =        0.87556840265

			**************************
			*                        *
			*        CCDENSITY       *
			*                        *
			**************************


	Input parameters:
	-----------------
	Wave function    =   CCSD
	Reference wfn    =   RHF
	Dertype          = 1
	Tolerance        = 1.0e-14
	Cache Level      = 2
	AO Basis         = No
	OPDM Only        = No
	Relax OPDM       = Yes
	Compute Xi       = No
	Use Zeta         = No
	Xi connected     = Yes
	Compute NO       = No

	Nuclear Rep. energy (wfn)     =   24.323239383855910
	SCF energy          (wfn)     =  -76.819051192904112
	Reference energy    (file100) =  -76.819051192904197
	CCSD energy         (CC_INFO) =   -0.278112588929150
	Total CCSD energy   (CC_INFO) =  -77.097163781833345
	Number of States = 1

	Ground?  State     EOM Energy       R0
	  Yes     0 A1    0.0000000000   1.00000000

	Virial Theorem Data:
	--------------------
	Kinetic energy (ref)   =   76.443052574727048
	Kinetic energy (corr)  =    0.430994079735303
	Kinetic energy (total) =   76.874046654462347
	-V/T (ref)             =    2.004918676132270
	-V/T (corr)            =    1.645281691804107
	-V/T (total)           =    2.002902372609236
  Cartesian Displacement SALCs
  By SALC:
  Number of SALCs: 4, nirreps: A1
  Project out translations: False
  Project out rotations: False
	irrep = 0, ncomponent = 1
		0: atom 0, direction x, coef 1.000000
	irrep = 0, ncomponent = 1
		0: atom 1, direction x, coef 1.000000
	irrep = 0, ncomponent = 1
		0: atom 2, direction x, coef 1.000000
	irrep = 0, ncomponent = 1
		0: atom 3, direction x, coef 1.000000

  By Atomic Center:
  Number of atomic centers: 4
   Atomic Center 0:
	x component, size = 1
		0: salc 0, irrep 0, coef 1.000000
	y component, size = 0
	z component, size = 0
   Atomic Center 1:
	x component, size = 1
		0: salc 1, irrep 0, coef 1.000000
	y component, size = 0
	z component, size = 0
   Atomic Center 2:
	x component, size = 1
		0: salc 2, irrep 0, coef 1.000000
	y component, size = 0
	z component, size = 0
   Atomic Center 3:
	x component, size = 1
		0: salc 3, irrep 0, coef 1.000000
	y component, size = 0
	z component, size = 0

    Molecular point group: c2v
    Full point group: C_inf_v

    Geometry (in Bohr), charge = 0, multiplicity = 1:

       Center              X                  Y                   Z       
    ------------   -----------------  -----------------  -----------------
         C           -1.161445204175     0.000000000000     0.000000000000
         C            1.160877025923     0.000000000000     0.000000000000
         H           -3.188799462353     0.000000000000     0.000000000000
         H            3.195564663461     0.000000000000     0.000000000000

	Presorting MO-basis TPDM.
	Sorting File: MO TPDM (AA|AA) nbuckets = 1
	Starting first half-transformation.
	Sorting half-transformed TPDM.
	First half integral transformation complete.


  -Nuclear Repulsion Energy 1st Derivatives:
     Atom            X                  Y                   Z
    ------   -----------------  -----------------  -----------------
       1        5.531364458616     0.000000000000     0.000000000000
       2       -5.542934862809     0.000000000000     0.000000000000
       3        1.801459107056     0.000000000000     0.000000000000
       4       -1.789888702864     0.000000000000     0.000000000000


  -Core Hamiltonian Gradient:
     Atom            X                  Y                   Z
    ------   -----------------  -----------------  -----------------
       1      -16.456158634120     0.000000000000     0.000000000000
       2       16.469363039381     0.000000000000     0.000000000000
       3       -4.385889345965     0.000000000000     0.000000000000
       4        4.372684940703     0.000000000000     0.000000000000


  -Lagrangian contribution to gradient:
     Atom            X                  Y                   Z
    ------   -----------------  -----------------  -----------------
       1        0.529874353195     0.000000000000     0.000000000000
       2       -0.530300824716     0.000000000000     0.000000000000
       3        0.229940203697     0.000000000000     0.000000000000
       4       -0.229513732176     0.000000000000     0.000000000000


  -Two-electron contribution to gradient:
     Atom            X                  Y                   Z
    ------   -----------------  -----------------  -----------------
       1       10.365078907122     0.000000000000     0.000000000000
       2      -10.369241449673     0.000000000000     0.000000000000
       3        2.352049095809     0.000000000000     0.000000000000
       4       -2.347886553258     0.000000000000     0.000000000000


  -Total gradient:
     Atom            X                  Y                   Z
    ------   -----------------  -----------------  -----------------
       1       -0.029840915187     0.000000000000     0.000000000000
       2        0.026885902183     0.000000000000     0.000000000000
       3       -0.002440939403     0.000000000000     0.000000000000
       4        0.005395952406     0.000000000000     0.000000000000


         ----------------------------------------------------------
                                   FINDIF
                     R. A. King and Jonathon Misiewicz
         ---------------------------------------------------------

  Computing second-derivative from gradients using projected, 
  symmetry-adapted, cartesian coordinates.

  12 gradients passed in, including the reference geometry.
  Generating complete list of displacements from unique ones.

    Operation 3 takes plus displacements of irrep B1g to minus ones.
    Operation 2 takes plus displacements of irrep B2g to minus ones.
    Operation 3 takes plus displacements of irrep B1u to minus ones.
    Operation 2 takes plus displacements of irrep B2u to minus ones.
    Operation 2 takes plus displacements of irrep B3u to minus ones.

-------------------------------------------------------------


  ==> Harmonic Vibrational Analysis <==

  non-mass-weighted Hessian:       Symmetric? True   Hermitian? True   Lin Dep Dim?  3 (0)
  projection of translations (True) and rotations (False) removed 3 degrees of freedom (5)
  total projector:                 Symmetric? True   Hermitian? True   Lin Dep Dim?  3 (3)
  mass-weighted Hessian:           Symmetric? True   Hermitian? True   Lin Dep Dim?  3 (0)
  pre-proj  low-frequency mode:    0.0000i [cm^-1]
  pre-proj  low-frequency mode:    0.0000i [cm^-1]
  pre-proj  low-frequency mode:    0.0000  [cm^-1]
  pre-proj  low-frequency mode:  211.6977  [cm^-1]
  pre-proj  low-frequency mode:  211.6977  [cm^-1]
  pre-proj  all modes:['0.0000i' '0.0000i' '0.0000' '211.6977' '211.6977' '476.2162' '476.2162'
 '767.5623' '767.5623' '1958.8349' '3384.1613' '3472.9309']
  projected mass-weighted Hessian: Symmetric? True   Hermitian? True   Lin Dep Dim?  3 (3)
  post-proj low-frequency mode:    0.0000  [cm^-1] (TR)
  post-proj low-frequency mode:    0.0000  [cm^-1] (TR)
  post-proj low-frequency mode:    0.0001  [cm^-1] (TR)
  post-proj low-frequency mode:  211.6977  [cm^-1] (V)
  post-proj low-frequency mode:  211.6977  [cm^-1] (V)
  post-proj  all modes:['0.0000' '0.0000' '0.0001' '211.6977' '211.6977' '476.2162' '476.2162'
 '767.5623' '767.5623' '1958.8349' '3384.1613' '3472.9309']

  Note that "Vibration"s include 2 un-projected rotation-like modes.
  Vibration                       4                   5                   6           
  Freq [cm^-1]                 211.6977            211.6977            476.2162       
  Irrep                          B1g                 B2g                 B2g          
  Reduced mass [u]              2.0494              2.0494              1.7018        
  Force const [mDyne/A]         0.0541              0.0541              0.2274        
  Turning point v=0 [a0]        0.5268              0.5268              0.3854        
  RMS dev v=0 [a0 u^1/2]        0.5333              0.5333              0.3555        
  Char temp [K]                304.5858            304.5858            685.1690       
  ----------------------------------------------------------------------------------
      1   C                0.00  0.22 -0.00   -0.00  0.00  0.22    0.00  0.00 -0.18   
      2   C                0.00 -0.22  0.00   -0.00 -0.00 -0.22    0.00 -0.00  0.18   
      3   H                0.00  0.67 -0.00   -0.00  0.00  0.67    0.00 -0.00  0.68   
      4   H                0.00 -0.67  0.00   -0.00 -0.00 -0.67    0.00  0.00 -0.68   

  Vibration                       7                   8                   9           
  Freq [cm^-1]                 476.2162            767.5623            767.5623       
  Irrep                          B1g                 B1u                 B2u          
  Reduced mass [u]              1.7018              1.0848              1.0848        
  Force const [mDyne/A]         0.2274              0.3766              0.3766        
  Turning point v=0 [a0]        0.3854              0.3803              0.3803        
  RMS dev v=0 [a0 u^1/2]        0.3555              0.2801              0.2801        
  Char temp [K]                685.1690           1104.3512           1104.3512       
  ----------------------------------------------------------------------------------
      1   C                0.00 -0.18 -0.00    0.00  0.00 -0.06    0.00 -0.06 -0.00   
      2   C               -0.00  0.18  0.00    0.00  0.00 -0.06   -0.00 -0.06 -0.00   
      3   H               -0.00  0.68  0.00    0.00 -0.00  0.70    0.00  0.70  0.00   
      4   H               -0.00 -0.68 -0.00    0.00 -0.00  0.70   -0.00  0.70  0.00   

  Vibration                       10                  11                  12          
  Freq [cm^-1]                1958.8349           3384.1613           3472.9309       
  Irrep                           Ag                 B3u                  Ag          
  Reduced mass [u]              4.0456              1.0848              1.2072        
  Force const [mDyne/A]         9.1459              7.3200              8.5785        
  Turning point v=0 [a0]        0.1233              0.1811              0.1695        
  RMS dev v=0 [a0 u^1/2]        0.1753              0.1334              0.1317        
  Char temp [K]               2818.3273           4869.0546           4996.7744       
  ----------------------------------------------------------------------------------
      1   C                0.37  0.00  0.00   -0.06  0.00  0.00   -0.10  0.00 -0.00   
      2   C               -0.37 -0.00  0.00   -0.06 -0.00  0.00    0.10  0.00 -0.00   
      3   H                0.60 -0.00  0.00    0.70 -0.00  0.00    0.70 -0.00 -0.00   
      4   H               -0.60 -0.00  0.00    0.70  0.00  0.00   -0.70 -0.00 -0.00   

  ==> Thermochemistry Components <==

  Entropy, S
    Electronic S            0.000 [cal/(mol K)]        0.000 [J/(mol K)]       0.00000000 [mEh/K] (multiplicity = 1)
    Translational S        35.704 [cal/(mol K)]      149.387 [J/(mol K)]       0.05689862 [mEh/K] (mol. weight = 26.0157 [u], P = 101325.00 [Pa])
    Rotational S           10.952 [cal/(mol K)]       45.824 [J/(mol K)]       0.01745345 [mEh/K] (symmetry no. = 2)
    Vibrational S           5.971 [cal/(mol K)]       24.983 [J/(mol K)]       0.00951545 [mEh/K]
  Total S                  52.628 [cal/(mol K)]      220.194 [J/(mol K)]       0.08386751 [mEh/K]
  Correction S              0.000 [cal/(mol K)]        0.000 [J/(mol K)]       0.00000000 [mEh/K]

  Constant volume heat capacity, Cv
    Electronic Cv           0.000 [cal/(mol K)]        0.000 [J/(mol K)]       0.00000000 [mEh/K]
    Translational Cv        2.981 [cal/(mol K)]       12.472 [J/(mol K)]       0.00475022 [mEh/K]
    Rotational Cv           1.987 [cal/(mol K)]        8.314 [J/(mol K)]       0.00316681 [mEh/K]
    Vibrational Cv          7.677 [cal/(mol K)]       32.121 [J/(mol K)]       0.01223420 [mEh/K]
  Total Cv                 12.645 [cal/(mol K)]       52.907 [J/(mol K)]       0.02015122 [mEh/K]
  Correction Cv             0.000 [cal/(mol K)]        0.000 [J/(mol K)]       0.00000000 [mEh/K]

  Constant pressure heat capacity, Cp
    Electronic Cp           0.000 [cal/(mol K)]        0.000 [J/(mol K)]       0.00000000 [mEh/K]
    Translational Cp        4.968 [cal/(mol K)]       20.786 [J/(mol K)]       0.00791703 [mEh/K]
    Rotational Cp           1.987 [cal/(mol K)]        8.314 [J/(mol K)]       0.00316681 [mEh/K]
    Vibrational Cp          7.677 [cal/(mol K)]       32.121 [J/(mol K)]       0.01223420 [mEh/K]
  Total Cp                 14.632 [cal/(mol K)]       61.221 [J/(mol K)]       0.02331804 [mEh/K]
  Correction Cp             0.000 [cal/(mol K)]        0.000 [J/(mol K)]       0.00000000 [mEh/K]

  ==> Thermochemistry Energy Analysis <==

  Raw electronic energy, E0
  Total E0, Electronic energy at well bottom at 0 [K]                  -77.09716920 [Eh]

  Zero-point energy, ZPE_vib = Sum_i nu_i / 2
    Electronic ZPE          0.000 [kcal/mol]        0.000 [kJ/mol]       0.00000000 [Eh]
    Translational ZPE       0.000 [kcal/mol]        0.000 [kJ/mol]       0.00000000 [Eh]
    Rotational ZPE          0.000 [kcal/mol]        0.000 [kJ/mol]       0.00000000 [Eh]
    Vibrational ZPE        16.764 [kcal/mol]       70.142 [kJ/mol]       0.02671580 [Eh]        5863.440 [cm^-1]
  Correction ZPE           16.764 [kcal/mol]       70.142 [kJ/mol]       0.02671580 [Eh]        5863.440 [cm^-1]
  Total ZPE, Electronic energy at 0 [K]                                -77.07045340 [Eh]

  Thermal Energy, E (includes ZPE)
    Electronic E            0.000 [kcal/mol]        0.000 [kJ/mol]       0.00000000 [Eh]
    Translational E         0.889 [kcal/mol]        3.718 [kJ/mol]       0.00141628 [Eh]
    Rotational E            0.592 [kcal/mol]        2.479 [kJ/mol]       0.00094418 [Eh]
    Vibrational E          17.861 [kcal/mol]       74.729 [kJ/mol]       0.02846294 [Eh]
  Correction E             19.342 [kcal/mol]       80.927 [kJ/mol]       0.03082340 [Eh]
  Total E, Electronic energy at  298.15 [K]                            -77.06634580 [Eh]

  Enthalpy, H_trans = E_trans + k_B * T
    Electronic H            0.000 [kcal/mol]        0.000 [kJ/mol]       0.00000000 [Eh]
    Translational H         1.481 [kcal/mol]        6.197 [kJ/mol]       0.00236046 [Eh]
    Rotational H            0.592 [kcal/mol]        2.479 [kJ/mol]       0.00094418 [Eh]
    Vibrational H          17.861 [kcal/mol]       74.729 [kJ/mol]       0.02846294 [Eh]
  Correction H             19.934 [kcal/mol]       83.406 [kJ/mol]       0.03176758 [Eh]
  Total H, Enthalpy at  298.15 [K]                                     -77.06540162 [Eh]

  Gibbs free energy, G = H - T * S
    Electronic G            0.000 [kcal/mol]        0.000 [kJ/mol]       0.00000000 [Eh]
    Translational G        -9.164 [kcal/mol]      -38.342 [kJ/mol]      -0.01460386 [Eh]
    Rotational G           -2.673 [kcal/mol]      -11.183 [kJ/mol]      -0.00425956 [Eh]
    Vibrational G          16.080 [kcal/mol]       67.281 [kJ/mol]       0.02562591 [Eh]
  Correction G              4.244 [kcal/mol]       17.755 [kJ/mol]       0.00676248 [Eh]
  Total G, Free enthalpy at  298.15 [K]                                -77.09040672 [Eh]

    Psi4 stopped on: Tuesday, 19 April 2022 01:47AM
    Psi4 wall time for execution: 0:00:12.94

*** Psi4 exiting successfully. Buy a developer a beer!
