
    -----------------------------------------------------------------------
          Psi4: An Open-Source Ab Initio Electronic Structure Package
                               Psi4 1.3.2 release

                         Git: Rev {HEAD} ecbda83 


    R. M. Parrish, L. A. Burns, D. G. A. Smith, A. C. Simmonett,
    A. E. DePrince III, E. G. Hohenstein, U. Bozkaya, A. Yu. Sokolov,
    R. Di Remigio, R. M. Richard, J. F. Gonthier, A. M. James,
    H. R. McAlexander, A. Kumar, M. Saitow, X. Wang, B. P. Pritchard,
    P. Verma, H. F. Schaefer III, K. Patkowski, R. A. King, E. F. Valeev,
    F. A. Evangelista, J. M. Turney, T. D. Crawford, and C. D. Sherrill,
    J. Chem. Theory Comput. 13(7) pp 3185--3197 (2017).
    (doi: 10.1021/acs.jctc.7b00174)


                         Additional Contributions by
    P. Kraus, H. Kruse, M. H. Lechner, M. C. Schieber, R. A. Shaw,
    A. Alenaizan, R. Galvelis, Z. L. Glick, S. Lehtola, and J. P. Misiewicz

    -----------------------------------------------------------------------


    Psi4 started on: Tuesday, 19 April 2022 12:21AM

    Process ID: 25395
    Host:       atlantis
    PSIDATADIR: /home/akrom/software/anaconda3/envs/ffpenv/share/psi4
    Memory:     500.0 MiB
    Threads:    1
    
  ==> Input File <==

--------------------------------------------------------------------------
set basis  cc-pVDZ
molecule {
0 1
   O        0.00000        0.00000       -0.06797
   H        0.74903        0.00000        0.53936
   H       -0.74903        0.00000        0.53936
}
energy('CCSD')
frequencies('CCSD')


--------------------------------------------------------------------------

*** tstart() called on atlantis
*** at Tue Apr 19 00:21:03 2022

   => Loading Basis Set <=

    Name: CC-PVDZ
    Role: ORBITAL
    Keyword: BASIS
    atoms 1   entry O          line   198 file /home/akrom/software/anaconda3/envs/ffpenv/share/psi4/basis/cc-pvdz.gbs 
    atoms 2-3 entry H          line    22 file /home/akrom/software/anaconda3/envs/ffpenv/share/psi4/basis/cc-pvdz.gbs 


         ---------------------------------------------------------
                                   SCF
               by Justin Turney, Rob Parrish, Andy Simmonett
                          and Daniel G. A. Smith
                              RHF Reference
                        1 Threads,    500 MiB Core
         ---------------------------------------------------------

  ==> Geometry <==

    Molecular point group: c2v
    Full point group: C2v

    Geometry (in Angstrom), charge = 0, multiplicity = 1:

       Center              X                  Y                   Z               Mass       
    ------------   -----------------  -----------------  -----------------  -----------------
         O            0.000000000000     0.000000000000    -0.067969259994    15.994914619570
         H            0.749030000000     0.000000000000     0.539360740006     1.007825032230
         H           -0.749030000000    -0.000000000000     0.539360740006     1.007825032230

  Running in c2v symmetry.

  Rotational constants: A =     25.53156  B =     14.90675  C =      9.41168 [cm^-1]
  Rotational constants: A = 765416.81232  B = 446893.08836  C = 282155.15104 [MHz]
  Nuclear repulsion =    9.133433460995141

  Charge       = 0
  Multiplicity = 1
  Electrons    = 10
  Nalpha       = 5
  Nbeta        = 5

  ==> Algorithm <==

  SCF Algorithm Type is PK.
  DIIS enabled.
  MOM disabled.
  Fractional occupation disabled.
  Guess Type is SAD.
  Energy threshold   = 1.00e-08
  Density threshold  = 1.00e-08
  Integral threshold = 0.00e+00

  ==> Primary Basis <==

  Basis Set: CC-PVDZ
    Blend: CC-PVDZ
    Number of shells: 12
    Number of basis function: 24
    Number of Cartesian functions: 25
    Spherical Harmonics?: true
    Max angular momentum: 2

  ==> Pre-Iterations <==

   -------------------------------------------------------
    Irrep   Nso     Nmo     Nalpha   Nbeta   Ndocc  Nsocc
   -------------------------------------------------------
     A1        11      11       0       0       0       0
     A2         2       2       0       0       0       0
     B1         7       7       0       0       0       0
     B2         4       4       0       0       0       0
   -------------------------------------------------------
    Total      24      24       5       5       5       0
   -------------------------------------------------------

  ==> Integral Setup <==

  Using in-core PK algorithm.
   Calculation information:
      Number of atoms:                   3
      Number of AO shells:              12
      Number of primitives:             32
      Number of atomic orbitals:        25
      Number of basis functions:        24

      Integral cutoff                 1.00e-12
      Number of threads:                 1

  Performing in-core PK
  Using 90300 doubles for integral storage.
  We computed 3081 shell quartets total.
  Whereas there are 3081 unique shell quartets.

  ==> DiskJK: Disk-Based J/K Matrices <==

    J tasked:                  Yes
    K tasked:                  Yes
    wK tasked:                  No
    Memory [MiB]:              375
    Schwarz Cutoff:          1E-12

    OpenMP threads:              1

  Minimum eigenvalue in the overlap matrix is 3.4329504283E-02.
  Using Symmetric Orthogonalization.

  SCF Guess: Superposition of Atomic Densities via on-the-fly atomic UHF.

  ==> Iterations <==

                        Total Energy        Delta E     RMS |[F,P]|

   @RHF iter SAD:   -75.50479414558515   -7.55048e+01   0.00000e+00 
   @RHF iter   1:   -75.95268940070164   -4.47895e-01   3.03402e-02 DIIS
   @RHF iter   2:   -76.00629743716686   -5.36080e-02   1.75277e-02 DIIS
   @RHF iter   3:   -76.02584667663524   -1.95492e-02   1.59514e-03 DIIS
   @RHF iter   4:   -76.02623854230170   -3.91866e-04   3.73622e-04 DIIS
   @RHF iter   5:   -76.02625888880789   -2.03465e-05   6.76911e-05 DIIS
   @RHF iter   6:   -76.02625981191724   -9.23109e-07   1.02560e-05 DIIS
   @RHF iter   7:   -76.02625983436499   -2.24478e-08   1.26209e-06 DIIS
   @RHF iter   8:   -76.02625983470088   -3.35888e-10   2.92180e-07 DIIS
   @RHF iter   9:   -76.02625983472389   -2.30074e-11   6.04101e-08 DIIS
   @RHF iter  10:   -76.02625983472494   -1.05160e-12   5.04267e-09 DIIS
  Energy and wave function converged.


  ==> Post-Iterations <==

    Orbital Energies [Eh]
    ---------------------

    Doubly Occupied:                                                      

       1A1   -20.553080     2A1    -1.335193     1B1    -0.690594  
       3A1    -0.570570     1B2    -0.493589  

    Virtual:                                                              

       4A1     0.183833     2B1     0.255487     3B1     0.775753  
       5A1     0.859143     6A1     1.166340     2B2     1.199594  
       4B1     1.256473     7A1     1.421386     1A2     1.483121  
       3B2     1.658802     8A1     1.863343     5B1     1.942378  
       6B1     2.430091     9A1     2.477731     4B2     3.292591  
       2A2     3.322262    10A1     3.509273    11A1     3.840692  
       7B1     4.153549  

    Final Occupation by Irrep:
             A1    A2    B1    B2 
    DOCC [     3,    0,    1,    1 ]

  @RHF Final Energy:   -76.02625983472494

   => Energetics <=

    Nuclear Repulsion Energy =              9.1334334609951409
    One-Electron Energy =                -123.0333348531984257
    Two-Electron Energy =                  37.8736415574783578
    Total Energy =                        -76.0262598347249252

Computation Completed


Properties will be evaluated at   0.000000,   0.000000,   0.000000 [a0]

Properties computed using the SCF density matrix

  Nuclear Dipole Moment: [e a0]
     X:     0.0000      Y:     0.0000      Z:     1.0109

  Electronic Dipole Moment: [e a0]
     X:     0.0000      Y:     0.0000      Z:    -0.1840

  Dipole Moment: [e a0]
     X:     0.0000      Y:     0.0000      Z:     0.8270     Total:     0.8270

  Dipole Moment: [D]
     X:     0.0000      Y:     0.0000      Z:     2.1019     Total:     2.1019


*** tstop() called on atlantis at Tue Apr 19 00:21:03 2022
Module time:
	user time   =       0.25 seconds =       0.00 minutes
	system time =       0.01 seconds =       0.00 minutes
	total time  =          0 seconds =       0.00 minutes
Total time:
	user time   =       0.25 seconds =       0.00 minutes
	system time =       0.01 seconds =       0.00 minutes
	total time  =          0 seconds =       0.00 minutes
 MINTS: Wrapper to libmints.
   by Justin Turney

   Calculation information:
      Number of threads:                 1
      Number of atoms:                   3
      Number of AO shells:              12
      Number of SO shells:               9
      Number of primitives:             32
      Number of atomic orbitals:        25
      Number of basis functions:        24

      Number of irreps:                  4
      Integral cutoff                 0.00e+00
      Number of functions per irrep: [  11    2    7    4 ]

 OEINTS: Overlap, kinetic, potential, dipole, and quadrupole integrals
         stored in file 35.

      Computing two-electron integrals...done
      Computed 11494 non-zero two-electron integrals.
        Stored in file 33.


*** tstart() called on atlantis
*** at Tue Apr 19 00:21:03 2022


	Wfn Parameters:
	--------------------
	Wavefunction         = CCSD
	Number of irreps     = 4
	Number of MOs        = 24
	Number of active MOs = 24
	AO-Basis             = NONE
	Semicanonical        = false
	Reference            = RHF
	Print Level          = 1

	IRREP	# MOs	# FZDC	# DOCC	# SOCC	# VIRT	# FZVR
	-----	-----	------	------	------	------	------
	 A1	   11	    0	    3	    0	    8	    0
	 A2	   2	    0	    0	    0	    2	    0
	 B1	   7	    0	    1	    0	    6	    0
	 B2	   4	    0	    1	    0	    3	    0
	Transforming integrals...
	IWL integrals will be deleted.
	(OO|OO)...
	Presorting SO-basis two-electron integrals.
	Sorting File: SO Ints (nn|nn) nbuckets = 1
	Transforming the one-electron integrals and constructing Fock matrices
	Starting first half-transformation.
	Sorting half-transformed integrals.
	First half integral transformation complete.
	Starting second half-transformation.
	Two-electron integral transformation complete.
	(OO|OV)...
	Starting second half-transformation.
	Two-electron integral transformation complete.
	(OO|VV)...
	Starting second half-transformation.
	Two-electron integral transformation complete.
	(OV|OO)...
	Starting first half-transformation.
	Sorting half-transformed integrals.
	First half integral transformation complete.
	Starting second half-transformation.
	Two-electron integral transformation complete.
	(OV|OV)...
	Starting second half-transformation.
	Two-electron integral transformation complete.
	(OV|VV)...
	Starting second half-transformation.
	Two-electron integral transformation complete.
	(VV|OO)...
	Starting first half-transformation.
	Sorting half-transformed integrals.
	First half integral transformation complete.
	Starting second half-transformation.
	Two-electron integral transformation complete.
	(VV|OV)...
	Starting second half-transformation.
	Two-electron integral transformation complete.
	(VV|VV)...
	Starting second half-transformation.
	Two-electron integral transformation complete.
	Frozen core energy     =      0.00000000000000

	Size of irrep 0 of <ab|cd> integrals:      0.013 (MW) /      0.102 (MB)
	Size of irrep 1 of <ab|cd> integrals:      0.005 (MW) /      0.037 (MB)
	Size of irrep 2 of <ab|cd> integrals:      0.012 (MW) /      0.093 (MB)
	Size of irrep 3 of <ab|cd> integrals:      0.005 (MW) /      0.041 (MB)
	Total:                                     0.034 (MW) /      0.274 (MB)

	Size of irrep 0 of <ia|bc> integrals:      0.004 (MW) /      0.030 (MB)
	Size of irrep 1 of <ia|bc> integrals:      0.001 (MW) /      0.008 (MB)
	Size of irrep 2 of <ia|bc> integrals:      0.003 (MW) /      0.024 (MB)
	Size of irrep 3 of <ia|bc> integrals:      0.001 (MW) /      0.011 (MB)
	Total:                                     0.009 (MW) /      0.073 (MB)

	Size of irrep 0 of tijab amplitudes:       0.001 (MW) /      0.010 (MB)
	Size of irrep 1 of tijab amplitudes:       0.000 (MW) /      0.001 (MB)
	Size of irrep 2 of tijab amplitudes:       0.001 (MW) /      0.005 (MB)
	Size of irrep 3 of tijab amplitudes:       0.000 (MW) /      0.003 (MB)
	Total:                                     0.002 (MW) /      0.020 (MB)

	Nuclear Rep. energy          =      9.13343346099514
	SCF energy                   =    -76.02625983472494
	One-electron energy          =   -123.03333479301358
	Two-electron energy          =     37.87364149729355
	Reference energy             =    -76.02625983472490

*** tstop() called on atlantis at Tue Apr 19 00:21:03 2022
Module time:
	user time   =       0.02 seconds =       0.00 minutes
	system time =       0.00 seconds =       0.00 minutes
	total time  =          0 seconds =       0.00 minutes
Total time:
	user time   =       0.28 seconds =       0.00 minutes
	system time =       0.02 seconds =       0.00 minutes
	total time  =          0 seconds =       0.00 minutes
            **************************
            *                        *
            *        CCENERGY        *
            *                        *
            **************************

    Nuclear Rep. energy (wfn)     =    9.133433460995141
    SCF energy          (wfn)     =  -76.026259834724939
    Reference energy    (file100) =  -76.026259834724897

    Input parameters:
    -----------------
    Wave function   =     CCSD
    Reference wfn   =     RHF
    Brueckner       =     No
    Memory (Mbytes) =     524.3
    Maxiter         =     50
    R_Convergence   =     1.0e-07
    E_Convergence   =     1.0e-06
    Restart         =     Yes
    DIIS            =     Yes
    AO Basis        =     NONE
    ABCD            =     NEW
    Cache Level     =     2
    Cache Type      =     LOW
    Print Level     =     1
    Num. of threads =     1
    # Amps to Print =     10
    Print MP2 Amps? =     No
    Analyze T2 Amps =     No
    Print Pair Ener =     No
    Local CC        =     No
    SCS-MP2         =     False
    SCSN-MP2        =     False
    SCS-CCSD        =     False

MP2 correlation energy -0.2047295363095969
                Solving CC Amplitude Equations
                ------------------------------
  Iter             Energy              RMS        T1Diag      D1Diag    New D1Diag    D2Diag
  ----     ---------------------    ---------   ----------  ----------  ----------   --------
     0        -0.204729536309597    0.000e+00    0.000000    0.000000    0.000000    0.110421
     1        -0.209560016531619    2.689e-02    0.004114    0.008789    0.008789    0.117355
     2        -0.213573075457729    9.551e-03    0.004853    0.010122    0.010122    0.122827
     3        -0.214003969250628    2.518e-03    0.005302    0.010930    0.010930    0.124111
     4        -0.214014879421340    5.728e-04    0.005342    0.011110    0.011110    0.124318
     5        -0.214026850599732    1.696e-04    0.005365    0.011221    0.011221    0.124355
     6        -0.214024975406608    5.585e-05    0.005373    0.011266    0.011266    0.124349
     7        -0.214024746452844    1.512e-05    0.005376    0.011281    0.011281    0.124347
     8        -0.214024622981385    2.654e-06    0.005377    0.011283    0.011283    0.124346
     9        -0.214024573002306    6.553e-07    0.005377    0.011283    0.011283    0.124346
    10        -0.214024588434250    1.334e-07    0.005377    0.011283    0.011283    0.124346
    11        -0.214024587137447    2.839e-08    0.005377    0.011283    0.011283    0.124346

    Iterations converged.


    Largest TIA Amplitudes:
              2   0         0.0076253118
              3  14         0.0074487542
              3  10        -0.0060458917
              2   5         0.0051580984
              3  12         0.0048526744
              1   2         0.0042899100
              1   0        -0.0036205990
              4  17        -0.0033820781
              4  16        -0.0032040893
              2   1        -0.0030961126

    Largest TIjAb Amplitudes:
      4   4  16  16        -0.0514017623
      3   3  11  11        -0.0363635121
      2   2   2   2        -0.0343677035
      3   3  10  10        -0.0305060483
      2   4   2  16         0.0280963367
      4   2  16   2         0.0280963367
      3   3   1   1        -0.0274687016
      2   2  11  11        -0.0259038418
      3   4  12  16        -0.0229763134
      4   3  16  12        -0.0229763134

    SCF energy       (wfn)                    =  -76.026259834724939
    Reference energy (file100)                =  -76.026259834724897

    Opposite-spin MP2 correlation energy      =   -0.153051624118719
    Same-spin MP2 correlation energy          =   -0.051677912190878
    MP2 correlation energy                    =   -0.204729536309597
      * MP2 total energy                      =  -76.230989371034497

    Opposite-spin CCSD correlation energy     =   -0.167939577862145
    Same-spin CCSD correlation energy         =   -0.046085009275302
    CCSD correlation energy                   =   -0.214024587137447
      * CCSD total energy                     =  -76.240284421862341

gradient() will perform analytic gradient computation.

*** tstart() called on atlantis
*** at Tue Apr 19 00:21:03 2022

   => Loading Basis Set <=

    Name: CC-PVDZ
    Role: ORBITAL
    Keyword: BASIS
    atoms 1   entry O          line   198 file /home/akrom/software/anaconda3/envs/ffpenv/share/psi4/basis/cc-pvdz.gbs 
    atoms 2-3 entry H          line    22 file /home/akrom/software/anaconda3/envs/ffpenv/share/psi4/basis/cc-pvdz.gbs 


         ---------------------------------------------------------
                                   SCF
               by Justin Turney, Rob Parrish, Andy Simmonett
                          and Daniel G. A. Smith
                              RHF Reference
                        1 Threads,    500 MiB Core
         ---------------------------------------------------------

  ==> Geometry <==

    Molecular point group: c2v
    Full point group: C2v

    Geometry (in Angstrom), charge = 0, multiplicity = 1:

       Center              X                  Y                   Z               Mass       
    ------------   -----------------  -----------------  -----------------  -----------------
         O            0.000000000000     0.000000000000    -0.067969259994    15.994914619570
         H            0.749030000000     0.000000000000     0.539360740006     1.007825032230
         H           -0.749030000000    -0.000000000000     0.539360740006     1.007825032230

  Running in c2v symmetry.

  Rotational constants: A =     25.53156  B =     14.90675  C =      9.41168 [cm^-1]
  Rotational constants: A = 765416.81232  B = 446893.08836  C = 282155.15104 [MHz]
  Nuclear repulsion =    9.133433460995141

  Charge       = 0
  Multiplicity = 1
  Electrons    = 10
  Nalpha       = 5
  Nbeta        = 5

  ==> Algorithm <==

  SCF Algorithm Type is PK.
  DIIS enabled.
  MOM disabled.
  Fractional occupation disabled.
  Guess Type is SAD.
  Energy threshold   = 1.00e-10
  Density threshold  = 1.00e-10
  Integral threshold = 0.00e+00

  ==> Primary Basis <==

  Basis Set: CC-PVDZ
    Blend: CC-PVDZ
    Number of shells: 12
    Number of basis function: 24
    Number of Cartesian functions: 25
    Spherical Harmonics?: true
    Max angular momentum: 2

  ==> Pre-Iterations <==

   -------------------------------------------------------
    Irrep   Nso     Nmo     Nalpha   Nbeta   Ndocc  Nsocc
   -------------------------------------------------------
     A1        11      11       0       0       0       0
     A2         2       2       0       0       0       0
     B1         7       7       0       0       0       0
     B2         4       4       0       0       0       0
   -------------------------------------------------------
    Total      24      24       5       5       5       0
   -------------------------------------------------------

  ==> Integral Setup <==

  Using in-core PK algorithm.
   Calculation information:
      Number of atoms:                   3
      Number of AO shells:              12
      Number of primitives:             32
      Number of atomic orbitals:        25
      Number of basis functions:        24

      Integral cutoff                 1.00e-12
      Number of threads:                 1

  Performing in-core PK
  Using 90300 doubles for integral storage.
  We computed 3081 shell quartets total.
  Whereas there are 3081 unique shell quartets.

  ==> DiskJK: Disk-Based J/K Matrices <==

    J tasked:                  Yes
    K tasked:                  Yes
    wK tasked:                  No
    Memory [MiB]:              375
    Schwarz Cutoff:          1E-12

    OpenMP threads:              1

  Minimum eigenvalue in the overlap matrix is 3.4329504283E-02.
  Using Symmetric Orthogonalization.

  SCF Guess: Superposition of Atomic Densities via on-the-fly atomic UHF.

  ==> Iterations <==

                        Total Energy        Delta E     RMS |[F,P]|

   @RHF iter SAD:   -75.50479414558515   -7.55048e+01   0.00000e+00 
   @RHF iter   1:   -75.95268940070164   -4.47895e-01   3.03402e-02 DIIS
   @RHF iter   2:   -76.00629743716686   -5.36080e-02   1.75277e-02 DIIS
   @RHF iter   3:   -76.02584667663524   -1.95492e-02   1.59514e-03 DIIS
   @RHF iter   4:   -76.02623854230170   -3.91866e-04   3.73622e-04 DIIS
   @RHF iter   5:   -76.02625888880789   -2.03465e-05   6.76911e-05 DIIS
   @RHF iter   6:   -76.02625981191724   -9.23109e-07   1.02560e-05 DIIS
   @RHF iter   7:   -76.02625983436499   -2.24478e-08   1.26209e-06 DIIS
   @RHF iter   8:   -76.02625983470088   -3.35888e-10   2.92180e-07 DIIS
   @RHF iter   9:   -76.02625983472389   -2.30074e-11   6.04101e-08 DIIS
   @RHF iter  10:   -76.02625983472494   -1.05160e-12   5.04267e-09 DIIS
   @RHF iter  11:   -76.02625983472491    2.84217e-14   8.73233e-10 DIIS
   @RHF iter  12:   -76.02625983472488    2.84217e-14   4.81245e-11 DIIS
  Energy and wave function converged.


  ==> Post-Iterations <==

    Orbital Energies [Eh]
    ---------------------

    Doubly Occupied:                                                      

       1A1   -20.553080     2A1    -1.335193     1B1    -0.690594  
       3A1    -0.570570     1B2    -0.493589  

    Virtual:                                                              

       4A1     0.183833     2B1     0.255487     3B1     0.775753  
       5A1     0.859143     6A1     1.166340     2B2     1.199594  
       4B1     1.256473     7A1     1.421386     1A2     1.483121  
       3B2     1.658802     8A1     1.863343     5B1     1.942378  
       6B1     2.430091     9A1     2.477731     4B2     3.292591  
       2A2     3.322262    10A1     3.509273    11A1     3.840692  
       7B1     4.153549  

    Final Occupation by Irrep:
             A1    A2    B1    B2 
    DOCC [     3,    0,    1,    1 ]

  @RHF Final Energy:   -76.02625983472488

   => Energetics <=

    Nuclear Repulsion Energy =              9.1334334609951409
    One-Electron Energy =                -123.0333348024138616
    Two-Electron Energy =                  37.8736415066938434
    Total Energy =                        -76.0262598347248826

Computation Completed


Properties will be evaluated at   0.000000,   0.000000,   0.000000 [a0]

Properties computed using the SCF density matrix

  Nuclear Dipole Moment: [e a0]
     X:     0.0000      Y:     0.0000      Z:     1.0109

  Electronic Dipole Moment: [e a0]
     X:     0.0000      Y:     0.0000      Z:    -0.1840

  Dipole Moment: [e a0]
     X:     0.0000      Y:     0.0000      Z:     0.8270     Total:     0.8270

  Dipole Moment: [D]
     X:     0.0000      Y:     0.0000      Z:     2.1019     Total:     2.1019


*** tstop() called on atlantis at Tue Apr 19 00:21:03 2022
Module time:
	user time   =       0.24 seconds =       0.00 minutes
	system time =       0.00 seconds =       0.00 minutes
	total time  =          0 seconds =       0.00 minutes
Total time:
	user time   =       0.55 seconds =       0.01 minutes
	system time =       0.07 seconds =       0.00 minutes
	total time  =          0 seconds =       0.00 minutes
 MINTS: Wrapper to libmints.
   by Justin Turney

   Calculation information:
      Number of threads:                 1
      Number of atoms:                   3
      Number of AO shells:              12
      Number of SO shells:               9
      Number of primitives:             32
      Number of atomic orbitals:        25
      Number of basis functions:        24

      Number of irreps:                  4
      Integral cutoff                 0.00e+00
      Number of functions per irrep: [  11    2    7    4 ]

 OEINTS: Overlap, kinetic, potential, dipole, and quadrupole integrals
         stored in file 35.

      Computing two-electron integrals...done
      Computed 11494 non-zero two-electron integrals.
        Stored in file 33.


*** tstart() called on atlantis
*** at Tue Apr 19 00:21:03 2022


	Wfn Parameters:
	--------------------
	Wavefunction         = CCSD
	Number of irreps     = 4
	Number of MOs        = 24
	Number of active MOs = 24
	AO-Basis             = NONE
	Semicanonical        = false
	Reference            = RHF
	Print Level          = 1

	IRREP	# MOs	# FZDC	# DOCC	# SOCC	# VIRT	# FZVR
	-----	-----	------	------	------	------	------
	 A1	   11	    0	    3	    0	    8	    0
	 A2	   2	    0	    0	    0	    2	    0
	 B1	   7	    0	    1	    0	    6	    0
	 B2	   4	    0	    1	    0	    3	    0
	Transforming integrals...
	IWL integrals will be deleted.
	(OO|OO)...
	Presorting SO-basis two-electron integrals.
	Sorting File: SO Ints (nn|nn) nbuckets = 1
	Transforming the one-electron integrals and constructing Fock matrices
	Starting first half-transformation.
	Sorting half-transformed integrals.
	First half integral transformation complete.
	Starting second half-transformation.
	Two-electron integral transformation complete.
	(OO|OV)...
	Starting second half-transformation.
	Two-electron integral transformation complete.
	(OO|VV)...
	Starting second half-transformation.
	Two-electron integral transformation complete.
	(OV|OO)...
	Starting first half-transformation.
	Sorting half-transformed integrals.
	First half integral transformation complete.
	Starting second half-transformation.
	Two-electron integral transformation complete.
	(OV|OV)...
	Starting second half-transformation.
	Two-electron integral transformation complete.
	(OV|VV)...
	Starting second half-transformation.
	Two-electron integral transformation complete.
	(VV|OO)...
	Starting first half-transformation.
	Sorting half-transformed integrals.
	First half integral transformation complete.
	Starting second half-transformation.
	Two-electron integral transformation complete.
	(VV|OV)...
	Starting second half-transformation.
	Two-electron integral transformation complete.
	(VV|VV)...
	Starting second half-transformation.
	Two-electron integral transformation complete.
	Frozen core energy     =      0.00000000000000

	Size of irrep 0 of <ab|cd> integrals:      0.013 (MW) /      0.102 (MB)
	Size of irrep 1 of <ab|cd> integrals:      0.005 (MW) /      0.037 (MB)
	Size of irrep 2 of <ab|cd> integrals:      0.012 (MW) /      0.093 (MB)
	Size of irrep 3 of <ab|cd> integrals:      0.005 (MW) /      0.041 (MB)
	Total:                                     0.034 (MW) /      0.274 (MB)

	Size of irrep 0 of <ia|bc> integrals:      0.004 (MW) /      0.030 (MB)
	Size of irrep 1 of <ia|bc> integrals:      0.001 (MW) /      0.008 (MB)
	Size of irrep 2 of <ia|bc> integrals:      0.003 (MW) /      0.024 (MB)
	Size of irrep 3 of <ia|bc> integrals:      0.001 (MW) /      0.011 (MB)
	Total:                                     0.009 (MW) /      0.073 (MB)

	Size of irrep 0 of tijab amplitudes:       0.001 (MW) /      0.010 (MB)
	Size of irrep 1 of tijab amplitudes:       0.000 (MW) /      0.001 (MB)
	Size of irrep 2 of tijab amplitudes:       0.001 (MW) /      0.005 (MB)
	Size of irrep 3 of tijab amplitudes:       0.000 (MW) /      0.003 (MB)
	Total:                                     0.002 (MW) /      0.020 (MB)

	Nuclear Rep. energy          =      9.13343346099514
	SCF energy                   =    -76.02625983472488
	One-electron energy          =   -123.03333480217562
	Two-electron energy          =     37.87364150645556
	Reference energy             =    -76.02625983472493

*** tstop() called on atlantis at Tue Apr 19 00:21:03 2022
Module time:
	user time   =       0.01 seconds =       0.00 minutes
	system time =       0.00 seconds =       0.00 minutes
	total time  =          0 seconds =       0.00 minutes
Total time:
	user time   =       0.57 seconds =       0.01 minutes
	system time =       0.08 seconds =       0.00 minutes
	total time  =          0 seconds =       0.00 minutes
            **************************
            *                        *
            *        CCENERGY        *
            *                        *
            **************************

    Nuclear Rep. energy (wfn)     =    9.133433460995141
    SCF energy          (wfn)     =  -76.026259834724883
    Reference energy    (file100) =  -76.026259834724925

    Input parameters:
    -----------------
    Wave function   =     CCSD
    Reference wfn   =     RHF
    Brueckner       =     No
    Memory (Mbytes) =     524.3
    Maxiter         =     50
    R_Convergence   =     1.0e-07
    E_Convergence   =     1.0e-08
    Restart         =     Yes
    DIIS            =     Yes
    AO Basis        =     NONE
    ABCD            =     NEW
    Cache Level     =     2
    Cache Type      =     LOW
    Print Level     =     1
    Num. of threads =     1
    # Amps to Print =     10
    Print MP2 Amps? =     No
    Analyze T2 Amps =     No
    Print Pair Ener =     No
    Local CC        =     No
    SCS-MP2         =     False
    SCSN-MP2        =     False
    SCS-CCSD        =     False

    Using old T1 amplitudes.
    Using old T2 amplitudes.

MP2 correlation energy -0.2047295365049522
                Solving CC Amplitude Equations
                ------------------------------
  Iter             Energy              RMS        T1Diag      D1Diag    New D1Diag    D2Diag
  ----     ---------------------    ---------   ----------  ----------  ----------   --------
     0        -0.214024587292390    0.000e+00    0.005377    0.011283    0.011283    0.124346
     1        -0.214024587609191    1.140e-08    0.005377    0.011283    0.011283    0.124346
     2        -0.214024587550037    5.292e-09    0.005377    0.011283    0.011283    0.124346

    Iterations converged.


    Largest TIA Amplitudes:
              2   0         0.0076253155
              3  14         0.0074487542
              3  10        -0.0060458934
              2   5         0.0051580986
              3  12         0.0048526742
              1   2         0.0042899096
              1   0        -0.0036205970
              4  17        -0.0033820773
              4  16        -0.0032040887
              2   1        -0.0030961154

    Largest TIjAb Amplitudes:
      4   4  16  16        -0.0514017616
      3   3  11  11        -0.0363635104
      2   2   2   2        -0.0343677031
      3   3  10  10        -0.0305060472
      2   4   2  16         0.0280963363
      4   2  16   2         0.0280963363
      3   3   1   1        -0.0274687035
      2   2  11  11        -0.0259038439
      3   4  12  16        -0.0229763133
      4   3  16  12        -0.0229763133

    SCF energy       (wfn)                    =  -76.026259834724883
    Reference energy (file100)                =  -76.026259834724925

    Opposite-spin MP2 correlation energy      =   -0.153051624220182
    Same-spin MP2 correlation energy          =   -0.051677912284770
    MP2 correlation energy                    =   -0.204729536504952
      * MP2 total energy                      =  -76.230989371229882

    Opposite-spin CCSD correlation energy     =   -0.167939577954797
    Same-spin CCSD correlation energy         =   -0.046085009595240
    CCSD correlation energy                   =   -0.214024587550037
      * CCSD total energy                     =  -76.240284422274968


			**************************
			*                        *
			*         CCHBAR         *
			*                        *
			**************************


			**************************
			*        CCLAMBDA        *
			**************************


	Nuclear Rep. energy (wfn)     =    9.133433460995141
	Reference           (wfn)     =                    0
	SCF energy          (wfn)     =  -76.026259834724883
	Reference energy    (CC_INFO) =  -76.026259834724925
	CCSD energy         (CC_INFO) =   -0.214024587550037
	Total CCSD energy   (CC_INFO) =  -76.240284422274968

	Input parameters:
	-----------------
	Maxiter           =     50
	Convergence       = 1.0e-07
	Restart           =     No
	Cache Level       =     2
	Model III         =     No
	DIIS              =     Yes
	AO Basis          =     No
	ABCD              =     NEW
	Local CC          =     No
	Parameters for left-handed eigenvectors:
	    Irr   Root  Ground-State?    EOM energy        R0
	  1   0     0        Yes       0.0000000000   1.0000000000
	Labels for eigenvector 1:
	LIA 0 -1, Lia 0 -1, LIJAB 0 -1, Lijab 0 -1, LIjAb 0 -1, 2LIjAb - LIjbA 0 -1
	Symmetry of left-hand state: A1
	Symmetry of left-hand eigenvector: A1

	          Solving Lambda Equations
	          ------------------------
	Iter     PseudoEnergy or Norm         RMS  
	----     ---------------------     --------
	   0        -0.214041406210121    0.000e+00
	   1        -0.211351259343472    5.570e-03
	   2        -0.210952658030396    1.170e-03
	   3        -0.210890061822943    4.516e-04
	   4        -0.210886720732342    1.451e-04
	   5        -0.210888925946152    5.035e-05
	   6        -0.210888668318537    1.137e-05
	   7        -0.210888781779556    2.822e-06
	   8        -0.210888807258654    4.714e-07
	   9        -0.210888807390237    8.432e-08

	Largest LIA Amplitudes:
	          3  14         0.0062532280
	          2   0         0.0054499690
	          3  12         0.0044975758
	          2   5         0.0042804743
	          3  10        -0.0039296334
	          1   2         0.0036260631
	          2   1        -0.0030122946
	          1   0        -0.0026831286
	          4  17        -0.0025055704
	          1   5        -0.0025015771

	Largest LIjAb Amplitudes:
	  4   4  16  16        -0.0511790102
	  3   3  11  11        -0.0355100763
	  2   2   2   2        -0.0340336668
	  3   3  10  10        -0.0298135199
	  2   4   2  16         0.0279759268
	  4   2  16   2         0.0279759268
	  3   3   1   1        -0.0266694215
	  2   2  11  11        -0.0251918910
	  3   4  12  16        -0.0227853004
	  4   3  16  12        -0.0227853004

	Iterations converged.

	Overlap <L|e^T> =        0.94345745250

			**************************
			*                        *
			*        CCDENSITY       *
			*                        *
			**************************


	Input parameters:
	-----------------
	Wave function    =   CCSD
	Reference wfn    =   RHF
	Dertype          = 1
	Tolerance        = 1.0e-14
	Cache Level      = 2
	AO Basis         = No
	OPDM Only        = No
	Relax OPDM       = Yes
	Compute Xi       = No
	Use Zeta         = No
	Xi connected     = Yes
	Compute NO       = No

	Nuclear Rep. energy (wfn)     =    9.133433460995141
	SCF energy          (wfn)     =  -76.026259834724883
	Reference energy    (file100) =  -76.026259834724925
	CCSD energy         (CC_INFO) =   -0.214024587550037
	Total CCSD energy   (CC_INFO) =  -76.240284422274968
	Number of States = 1

	Ground?  State     EOM Energy       R0
	  Yes     0 A1    0.0000000000   1.00000000

	Virial Theorem Data:
	--------------------
	Kinetic energy (ref)   =   75.965680467511731
	Kinetic energy (corr)  =    0.186928201338401
	Kinetic energy (total) =   76.152608668850135
	-V/T (ref)             =    2.000797457046924
	-V/T (corr)            =    2.144956116934879
	-V/T (total)           =    2.001151316480911
  Cartesian Displacement SALCs
  By SALC:
  Number of SALCs: 3, nirreps: A1
  Project out translations: False
  Project out rotations: False
	irrep = 0, ncomponent = 1
		0: atom 0, direction z, coef 1.000000
	irrep = 0, ncomponent = 2
		0: atom 1, direction x, coef 0.707107
		1: atom 2, direction x, coef -0.707107
	irrep = 0, ncomponent = 2
		0: atom 1, direction z, coef 0.707107
		1: atom 2, direction z, coef 0.707107

  By Atomic Center:
  Number of atomic centers: 3
   Atomic Center 0:
	x component, size = 0
	y component, size = 0
	z component, size = 1
		0: salc 0, irrep 0, coef 1.000000
   Atomic Center 1:
	x component, size = 1
		0: salc 1, irrep 0, coef 0.707107
	y component, size = 0
	z component, size = 1
		0: salc 2, irrep 0, coef 0.707107
   Atomic Center 2:
	x component, size = 1
		0: salc 1, irrep 0, coef -0.707107
	y component, size = 0
	z component, size = 1
		0: salc 2, irrep 0, coef 0.707107

    Molecular point group: c2v
    Full point group: C2v

    Geometry (in Bohr), charge = 0, multiplicity = 1:

       Center              X                  Y                   Z       
    ------------   -----------------  -----------------  -----------------
         O            0.000000000000     0.000000000000    -0.128443286339
         H            1.415461559752     0.000000000000     1.019244081436
         H           -1.415461559752    -0.000000000000     1.019244081436

	Presorting MO-basis TPDM.
	Sorting File: MO TPDM (AA|AA) nbuckets = 1
	Starting first half-transformation.
	Sorting half-transformed TPDM.
	First half integral transformation complete.


  -Nuclear Repulsion Energy 1st Derivatives:
     Atom            X                  Y                   Z
    ------   -----------------  -----------------  -----------------
       1        0.000000000000     0.000000000000     3.034559410088
       2       -1.996065495508    -0.000000000000    -1.517279705044
       3        1.996065495508     0.000000000000    -1.517279705044


  -Core Hamiltonian Gradient:
     Atom            X                  Y                   Z
    ------   -----------------  -----------------  -----------------
       1        0.000000000000     0.000000000000    -7.673652295546
       2        4.830031279166     0.000000000000     3.836826147773
       3       -4.830031279166    -0.000000000000     3.836826147773


  -Lagrangian contribution to gradient:
     Atom            X                  Y                   Z
    ------   -----------------  -----------------  -----------------
       1        0.000000000000     0.000000000000     0.483324987631
       2       -0.278866228538    -0.000000000000    -0.241662493815
       3        0.278866228538     0.000000000000    -0.241662493815


  -Two-electron contribution to gradient:
     Atom            X                  Y                   Z
    ------   -----------------  -----------------  -----------------
       1        0.000000000000     0.000000000000     4.155293045769
       2       -2.555556841360    -0.000000000000    -2.077646522885
       3        2.555556841360     0.000000000000    -2.077646522885


  -Total gradient:
     Atom            X                  Y                   Z
    ------   -----------------  -----------------  -----------------
       1        0.000000000000     0.000000000000    -0.000474852058
       2       -0.000457286240    -0.000000000000     0.000237426029
       3        0.000457286240     0.000000000000     0.000237426029


  Based on options and gradient (rms=2.90E-04), recommend projecting translations and projecting rotations.
hessian() will perform frequency computation by finite difference of analytic gradients.

         ----------------------------------------------------------
                                   FINDIF
                     R. A. King and Jonathon Misiewicz
         ---------------------------------------------------------

  Using finite-differences of gradients to determine vibrational frequencies and 
  normal modes.  Resulting frequencies are only valid at stationary points.
    Generating geometries for use with 3-point formula.
    Displacement size will be 5.00e-03.
    Number of atoms is 3.
    Number of irreps is 4.
    Number of SALCs is 3.
    Translations projected? 1. Rotations projected? 1.
    Index of SALCs per irrep:
     1 :  0  1 
     2 : 
     3 :  2 
     4 : 
    Number of SALCs per irrep:
     Irrep 1: 2
     Irrep 2: 0
     Irrep 3: 1
     Irrep 4: 0
    Number of geometries (including reference) is 6.
    Number of displacements per irrep:
      Irrep 1: 4
      Irrep 2: 0
      Irrep 3: 1
      Irrep 4: 0

  //>>>>>>>>>>>>>>>>>>>>>>>>>>>>>>>>>>>//
  //    Loading displacement 1 of 6    //
  //<<<<<<<<<<<<<<<<<<<<<<<<<<<<<<<<<<<//
gradient() will perform analytic gradient computation.

*** tstart() called on atlantis
*** at Tue Apr 19 00:21:04 2022

   => Loading Basis Set <=

    Name: CC-PVDZ
    Role: ORBITAL
    Keyword: BASIS
    atoms 1   entry O          line   198 file /home/akrom/software/anaconda3/envs/ffpenv/share/psi4/basis/cc-pvdz.gbs 
    atoms 2-3 entry H          line    22 file /home/akrom/software/anaconda3/envs/ffpenv/share/psi4/basis/cc-pvdz.gbs 


         ---------------------------------------------------------
                                   SCF
               by Justin Turney, Rob Parrish, Andy Simmonett
                          and Daniel G. A. Smith
                              RHF Reference
                        1 Threads,    500 MiB Core
         ---------------------------------------------------------

  ==> Geometry <==

    Molecular point group: c2v
    Full point group: C2v

    Geometry (in Angstrom), charge = 0, multiplicity = 1:

       Center              X                  Y                   Z               Mass       
    ------------   -----------------  -----------------  -----------------  -----------------
         O            0.000000000000     0.000000000000    -0.067969259994    15.994914619570
         H            0.749030000000     0.000000000000     0.539360740006     1.007825032230
         H           -0.749030000000    -0.000000000000     0.539360740006     1.007825032230

  Running in c2v symmetry.

  Rotational constants: A =     25.53156  B =     14.90675  C =      9.41168 [cm^-1]
  Rotational constants: A = 765416.81232  B = 446893.08836  C = 282155.15104 [MHz]
  Nuclear repulsion =    9.133433460995141

  Charge       = 0
  Multiplicity = 1
  Electrons    = 10
  Nalpha       = 5
  Nbeta        = 5

  ==> Algorithm <==

  SCF Algorithm Type is PK.
  DIIS enabled.
  MOM disabled.
  Fractional occupation disabled.
  Guess Type is SAD.
  Energy threshold   = 1.00e-10
  Density threshold  = 1.00e-10
  Integral threshold = 0.00e+00

  ==> Primary Basis <==

  Basis Set: CC-PVDZ
    Blend: CC-PVDZ
    Number of shells: 12
    Number of basis function: 24
    Number of Cartesian functions: 25
    Spherical Harmonics?: true
    Max angular momentum: 2

  ==> Pre-Iterations <==

   -------------------------------------------------------
    Irrep   Nso     Nmo     Nalpha   Nbeta   Ndocc  Nsocc
   -------------------------------------------------------
     A1        11      11       0       0       0       0
     A2         2       2       0       0       0       0
     B1         7       7       0       0       0       0
     B2         4       4       0       0       0       0
   -------------------------------------------------------
    Total      24      24       5       5       5       0
   -------------------------------------------------------

  ==> Integral Setup <==

  Using in-core PK algorithm.
   Calculation information:
      Number of atoms:                   3
      Number of AO shells:              12
      Number of primitives:             32
      Number of atomic orbitals:        25
      Number of basis functions:        24

      Integral cutoff                 1.00e-12
      Number of threads:                 1

  Performing in-core PK
  Using 90300 doubles for integral storage.
  We computed 3081 shell quartets total.
  Whereas there are 3081 unique shell quartets.

  ==> DiskJK: Disk-Based J/K Matrices <==

    J tasked:                  Yes
    K tasked:                  Yes
    wK tasked:                  No
    Memory [MiB]:              375
    Schwarz Cutoff:          1E-12

    OpenMP threads:              1

  Minimum eigenvalue in the overlap matrix is 3.4329504283E-02.
  Using Symmetric Orthogonalization.

  SCF Guess: Superposition of Atomic Densities via on-the-fly atomic UHF.

  ==> Iterations <==

                        Total Energy        Delta E     RMS |[F,P]|

   @RHF iter SAD:   -75.50479414558514   -7.55048e+01   0.00000e+00 
   @RHF iter   1:   -75.95268940070157   -4.47895e-01   3.03402e-02 DIIS
   @RHF iter   2:   -76.00629743716678   -5.36080e-02   1.75277e-02 DIIS
   @RHF iter   3:   -76.02584667663535   -1.95492e-02   1.59514e-03 DIIS
   @RHF iter   4:   -76.02623854230166   -3.91866e-04   3.73622e-04 DIIS
   @RHF iter   5:   -76.02625888880789   -2.03465e-05   6.76911e-05 DIIS
   @RHF iter   6:   -76.02625981191717   -9.23109e-07   1.02560e-05 DIIS
   @RHF iter   7:   -76.02625983436499   -2.24478e-08   1.26209e-06 DIIS
   @RHF iter   8:   -76.02625983470094   -3.35945e-10   2.92180e-07 DIIS
   @RHF iter   9:   -76.02625983472390   -2.29647e-11   6.04101e-08 DIIS
   @RHF iter  10:   -76.02625983472497   -1.06581e-12   5.04267e-09 DIIS
   @RHF iter  11:   -76.02625983472487    9.94760e-14   8.73235e-10 DIIS
   @RHF iter  12:   -76.02625983472488   -1.42109e-14   4.81245e-11 DIIS
  Energy and wave function converged.


  ==> Post-Iterations <==

    Orbital Energies [Eh]
    ---------------------

    Doubly Occupied:                                                      

       1A1   -20.553080     2A1    -1.335193     1B1    -0.690594  
       3A1    -0.570570     1B2    -0.493589  

    Virtual:                                                              

       4A1     0.183833     2B1     0.255487     3B1     0.775753  
       5A1     0.859143     6A1     1.166340     2B2     1.199594  
       4B1     1.256473     7A1     1.421386     1A2     1.483121  
       3B2     1.658802     8A1     1.863343     5B1     1.942378  
       6B1     2.430091     9A1     2.477731     4B2     3.292591  
       2A2     3.322262    10A1     3.509273    11A1     3.840692  
       7B1     4.153549  

    Final Occupation by Irrep:
             A1    A2    B1    B2 
    DOCC [     3,    0,    1,    1 ]

  @RHF Final Energy:   -76.02625983472488

   => Energetics <=

    Nuclear Repulsion Energy =              9.1334334609951409
    One-Electron Energy =                -123.0333348024139752
    Two-Electron Energy =                  37.8736415066939571
    Total Energy =                        -76.0262598347248826

Computation Completed


Properties will be evaluated at   0.000000,   0.000000,   0.000000 [a0]

Properties computed using the SCF density matrix

  Nuclear Dipole Moment: [e a0]
     X:     0.0000      Y:     0.0000      Z:     1.0109

  Electronic Dipole Moment: [e a0]
     X:     0.0000      Y:     0.0000      Z:    -0.1840

  Dipole Moment: [e a0]
     X:     0.0000      Y:     0.0000      Z:     0.8270     Total:     0.8270

  Dipole Moment: [D]
     X:     0.0000      Y:     0.0000      Z:     2.1019     Total:     2.1019


*** tstop() called on atlantis at Tue Apr 19 00:21:04 2022
Module time:
	user time   =       0.24 seconds =       0.00 minutes
	system time =       0.00 seconds =       0.00 minutes
	total time  =          0 seconds =       0.00 minutes
Total time:
	user time   =       1.15 seconds =       0.02 minutes
	system time =       0.15 seconds =       0.00 minutes
	total time  =          1 seconds =       0.02 minutes
 MINTS: Wrapper to libmints.
   by Justin Turney

   Calculation information:
      Number of threads:                 1
      Number of atoms:                   3
      Number of AO shells:              12
      Number of SO shells:               9
      Number of primitives:             32
      Number of atomic orbitals:        25
      Number of basis functions:        24

      Number of irreps:                  4
      Integral cutoff                 0.00e+00
      Number of functions per irrep: [  11    2    7    4 ]

 OEINTS: Overlap, kinetic, potential, dipole, and quadrupole integrals
         stored in file 35.

      Computing two-electron integrals...done
      Computed 11494 non-zero two-electron integrals.
        Stored in file 33.


*** tstart() called on atlantis
*** at Tue Apr 19 00:21:04 2022


	Wfn Parameters:
	--------------------
	Wavefunction         = CCSD
	Number of irreps     = 4
	Number of MOs        = 24
	Number of active MOs = 24
	AO-Basis             = NONE
	Semicanonical        = false
	Reference            = RHF
	Print Level          = 1

	IRREP	# MOs	# FZDC	# DOCC	# SOCC	# VIRT	# FZVR
	-----	-----	------	------	------	------	------
	 A1	   11	    0	    3	    0	    8	    0
	 A2	   2	    0	    0	    0	    2	    0
	 B1	   7	    0	    1	    0	    6	    0
	 B2	   4	    0	    1	    0	    3	    0
	Transforming integrals...
	IWL integrals will be deleted.
	(OO|OO)...
	Presorting SO-basis two-electron integrals.
	Sorting File: SO Ints (nn|nn) nbuckets = 1
	Transforming the one-electron integrals and constructing Fock matrices
	Starting first half-transformation.
	Sorting half-transformed integrals.
	First half integral transformation complete.
	Starting second half-transformation.
	Two-electron integral transformation complete.
	(OO|OV)...
	Starting second half-transformation.
	Two-electron integral transformation complete.
	(OO|VV)...
	Starting second half-transformation.
	Two-electron integral transformation complete.
	(OV|OO)...
	Starting first half-transformation.
	Sorting half-transformed integrals.
	First half integral transformation complete.
	Starting second half-transformation.
	Two-electron integral transformation complete.
	(OV|OV)...
	Starting second half-transformation.
	Two-electron integral transformation complete.
	(OV|VV)...
	Starting second half-transformation.
	Two-electron integral transformation complete.
	(VV|OO)...
	Starting first half-transformation.
	Sorting half-transformed integrals.
	First half integral transformation complete.
	Starting second half-transformation.
	Two-electron integral transformation complete.
	(VV|OV)...
	Starting second half-transformation.
	Two-electron integral transformation complete.
	(VV|VV)...
	Starting second half-transformation.
	Two-electron integral transformation complete.
	Frozen core energy     =      0.00000000000000

	Size of irrep 0 of <ab|cd> integrals:      0.013 (MW) /      0.102 (MB)
	Size of irrep 1 of <ab|cd> integrals:      0.005 (MW) /      0.037 (MB)
	Size of irrep 2 of <ab|cd> integrals:      0.012 (MW) /      0.093 (MB)
	Size of irrep 3 of <ab|cd> integrals:      0.005 (MW) /      0.041 (MB)
	Total:                                     0.034 (MW) /      0.274 (MB)

	Size of irrep 0 of <ia|bc> integrals:      0.004 (MW) /      0.030 (MB)
	Size of irrep 1 of <ia|bc> integrals:      0.001 (MW) /      0.008 (MB)
	Size of irrep 2 of <ia|bc> integrals:      0.003 (MW) /      0.024 (MB)
	Size of irrep 3 of <ia|bc> integrals:      0.001 (MW) /      0.011 (MB)
	Total:                                     0.009 (MW) /      0.073 (MB)

	Size of irrep 0 of tijab amplitudes:       0.001 (MW) /      0.010 (MB)
	Size of irrep 1 of tijab amplitudes:       0.000 (MW) /      0.001 (MB)
	Size of irrep 2 of tijab amplitudes:       0.001 (MW) /      0.005 (MB)
	Size of irrep 3 of tijab amplitudes:       0.000 (MW) /      0.003 (MB)
	Total:                                     0.002 (MW) /      0.020 (MB)

	Nuclear Rep. energy          =      9.13343346099514
	SCF energy                   =    -76.02625983472488
	One-electron energy          =   -123.03333480217570
	Two-electron energy          =     37.87364150645561
	Reference energy             =    -76.02625983472495

*** tstop() called on atlantis at Tue Apr 19 00:21:04 2022
Module time:
	user time   =       0.01 seconds =       0.00 minutes
	system time =       0.00 seconds =       0.00 minutes
	total time  =          0 seconds =       0.00 minutes
Total time:
	user time   =       1.18 seconds =       0.02 minutes
	system time =       0.15 seconds =       0.00 minutes
	total time  =          1 seconds =       0.02 minutes
            **************************
            *                        *
            *        CCENERGY        *
            *                        *
            **************************

    Nuclear Rep. energy (wfn)     =    9.133433460995141
    SCF energy          (wfn)     =  -76.026259834724883
    Reference energy    (file100) =  -76.026259834724954

    Input parameters:
    -----------------
    Wave function   =     CCSD
    Reference wfn   =     RHF
    Brueckner       =     No
    Memory (Mbytes) =     524.3
    Maxiter         =     50
    R_Convergence   =     1.0e-07
    E_Convergence   =     1.0e-08
    Restart         =     Yes
    DIIS            =     Yes
    AO Basis        =     NONE
    ABCD            =     NEW
    Cache Level     =     2
    Cache Type      =     LOW
    Print Level     =     1
    Num. of threads =     1
    # Amps to Print =     10
    Print MP2 Amps? =     No
    Analyze T2 Amps =     No
    Print Pair Ener =     No
    Local CC        =     No
    SCS-MP2         =     False
    SCSN-MP2        =     False
    SCS-CCSD        =     False

MP2 correlation energy -0.2047295365049527
                Solving CC Amplitude Equations
                ------------------------------
  Iter             Energy              RMS        T1Diag      D1Diag    New D1Diag    D2Diag
  ----     ---------------------    ---------   ----------  ----------  ----------   --------
     0        -0.204729536504953    0.000e+00    0.000000    0.000000    0.000000    0.110421
     1        -0.209560016654338    2.689e-02    0.004114    0.008789    0.008789    0.117355
     2        -0.213573075575216    9.551e-03    0.004853    0.010122    0.010122    0.122827
     3        -0.214003969383613    2.518e-03    0.005302    0.010930    0.010930    0.124111
     4        -0.214014879552214    5.728e-04    0.005342    0.011110    0.011110    0.124318
     5        -0.214026850730971    1.696e-04    0.005365    0.011221    0.011221    0.124355
     6        -0.214024975537641    5.585e-05    0.005373    0.011266    0.011266    0.124349
     7        -0.214024746583849    1.512e-05    0.005376    0.011281    0.011281    0.124347
     8        -0.214024623112389    2.654e-06    0.005377    0.011283    0.011283    0.124346
     9        -0.214024573133311    6.553e-07    0.005377    0.011283    0.011283    0.124346
    10        -0.214024588565254    1.334e-07    0.005377    0.011283    0.011283    0.124346
    11        -0.214024587149881    2.839e-08    0.005377    0.011283    0.011283    0.124346
    12        -0.214024587452965    4.725e-09    0.005377    0.011283    0.011283    0.124346

    Iterations converged.


    Largest TIA Amplitudes:
              2   0         0.0076253189
              3  14         0.0074487541
              3  10        -0.0060458926
              2   5         0.0051580984
              3  12         0.0048526741
              1   2         0.0042899097
              1   0        -0.0036205965
              4  17        -0.0033820772
              4  16        -0.0032040885
              2   1        -0.0030961157

    Largest TIjAb Amplitudes:
      4   4  16  16        -0.0514017616
      3   3  11  11        -0.0363635098
      2   2   2   2        -0.0343677030
      3   3  10  10        -0.0305060463
      2   4   2  16         0.0280963362
      4   2  16   2         0.0280963362
      3   3   1   1        -0.0274687038
      2   2  11  11        -0.0259038442
      3   4  12  16        -0.0229763133
      4   3  16  12        -0.0229763133

    SCF energy       (wfn)                    =  -76.026259834724883
    Reference energy (file100)                =  -76.026259834724954

    Opposite-spin MP2 correlation energy      =   -0.153051624220182
    Same-spin MP2 correlation energy          =   -0.051677912284771
    MP2 correlation energy                    =   -0.204729536504953
      * MP2 total energy                      =  -76.230989371229910

    Opposite-spin CCSD correlation energy     =   -0.167939577627192
    Same-spin CCSD correlation energy         =   -0.046085009825773
    CCSD correlation energy                   =   -0.214024587452965
      * CCSD total energy                     =  -76.240284422177922


			**************************
			*                        *
			*         CCHBAR         *
			*                        *
			**************************


			**************************
			*        CCLAMBDA        *
			**************************


	Nuclear Rep. energy (wfn)     =    9.133433460995141
	Reference           (wfn)     =                    0
	SCF energy          (wfn)     =  -76.026259834724883
	Reference energy    (CC_INFO) =  -76.026259834724954
	CCSD energy         (CC_INFO) =   -0.214024587452965
	Total CCSD energy   (CC_INFO) =  -76.240284422177922

	Input parameters:
	-----------------
	Maxiter           =     50
	Convergence       = 1.0e-07
	Restart           =     No
	Cache Level       =     2
	Model III         =     No
	DIIS              =     Yes
	AO Basis          =     No
	ABCD              =     NEW
	Local CC          =     No
	Parameters for left-handed eigenvectors:
	    Irr   Root  Ground-State?    EOM energy        R0
	  1   0     0        Yes       0.0000000000   1.0000000000
	Labels for eigenvector 1:
	LIA 0 -1, Lia 0 -1, LIJAB 0 -1, Lijab 0 -1, LIjAb 0 -1, 2LIjAb - LIjbA 0 -1
	Symmetry of left-hand state: A1
	Symmetry of left-hand eigenvector: A1

	          Solving Lambda Equations
	          ------------------------
	Iter     PseudoEnergy or Norm         RMS  
	----     ---------------------     --------
	   0        -0.214041406114682    8.432e-08
	   1        -0.211351259279536    5.570e-03
	   2        -0.210952658000418    1.170e-03
	   3        -0.210890061806496    4.516e-04
	   4        -0.210886720729147    1.451e-04
	   5        -0.210888925950113    5.035e-05
	   6        -0.210888668322603    1.137e-05
	   7        -0.210888781783571    2.822e-06
	   8        -0.210888807262649    4.714e-07
	   9        -0.210888807394232    8.432e-08

	Largest LIA Amplitudes:
	          3  14         0.0062532280
	          2   0         0.0054499690
	          3  12         0.0044975758
	          2   5         0.0042804743
	          3  10        -0.0039296333
	          1   2         0.0036260631
	          2   1        -0.0030122946
	          1   0        -0.0026831286
	          4  17        -0.0025055704
	          1   5        -0.0025015771

	Largest LIjAb Amplitudes:
	  4   4  16  16        -0.0511790102
	  3   3  11  11        -0.0355100763
	  2   2   2   2        -0.0340336668
	  3   3  10  10        -0.0298135198
	  2   4   2  16         0.0279759268
	  4   2  16   2         0.0279759268
	  3   3   1   1        -0.0266694215
	  2   2  11  11        -0.0251918910
	  3   4  12  16        -0.0227853004
	  4   3  16  12        -0.0227853004

	Iterations converged.

	Overlap <L|e^T> =        0.94345745254

			**************************
			*                        *
			*        CCDENSITY       *
			*                        *
			**************************


	Input parameters:
	-----------------
	Wave function    =   CCSD
	Reference wfn    =   RHF
	Dertype          = 1
	Tolerance        = 1.0e-14
	Cache Level      = 2
	AO Basis         = No
	OPDM Only        = No
	Relax OPDM       = Yes
	Compute Xi       = No
	Use Zeta         = No
	Xi connected     = Yes
	Compute NO       = No

	Nuclear Rep. energy (wfn)     =    9.133433460995141
	SCF energy          (wfn)     =  -76.026259834724883
	Reference energy    (file100) =  -76.026259834724954
	CCSD energy         (CC_INFO) =   -0.214024587452965
	Total CCSD energy   (CC_INFO) =  -76.240284422177922
	Number of States = 1

	Ground?  State     EOM Energy       R0
	  Yes     0 A1    0.0000000000   1.00000000

	Virial Theorem Data:
	--------------------
	Kinetic energy (ref)   =   75.965680467511760
	Kinetic energy (corr)  =    0.186928202214076
	Kinetic energy (total) =   76.152608669725836
	-V/T (ref)             =    2.000797457046924
	-V/T (corr)            =    2.144956111051973
	-V/T (total)           =    2.001151316468125
  Cartesian Displacement SALCs
  By SALC:
  Number of SALCs: 3, nirreps: A1
  Project out translations: False
  Project out rotations: False
	irrep = 0, ncomponent = 1
		0: atom 0, direction z, coef 1.000000
	irrep = 0, ncomponent = 2
		0: atom 1, direction x, coef 0.707107
		1: atom 2, direction x, coef -0.707107
	irrep = 0, ncomponent = 2
		0: atom 1, direction z, coef 0.707107
		1: atom 2, direction z, coef 0.707107

  By Atomic Center:
  Number of atomic centers: 3
   Atomic Center 0:
	x component, size = 0
	y component, size = 0
	z component, size = 1
		0: salc 0, irrep 0, coef 1.000000
   Atomic Center 1:
	x component, size = 1
		0: salc 1, irrep 0, coef 0.707107
	y component, size = 0
	z component, size = 1
		0: salc 2, irrep 0, coef 0.707107
   Atomic Center 2:
	x component, size = 1
		0: salc 1, irrep 0, coef -0.707107
	y component, size = 0
	z component, size = 1
		0: salc 2, irrep 0, coef 0.707107

    Molecular point group: c2v
    Full point group: C2v

    Geometry (in Bohr), charge = 0, multiplicity = 1:

       Center              X                  Y                   Z       
    ------------   -----------------  -----------------  -----------------
         O            0.000000000000     0.000000000000    -0.128443286339
         H            1.415461559752     0.000000000000     1.019244081436
         H           -1.415461559752    -0.000000000000     1.019244081436

	Presorting MO-basis TPDM.
	Sorting File: MO TPDM (AA|AA) nbuckets = 1
	Starting first half-transformation.
	Sorting half-transformed TPDM.
	First half integral transformation complete.


  -Nuclear Repulsion Energy 1st Derivatives:
     Atom            X                  Y                   Z
    ------   -----------------  -----------------  -----------------
       1        0.000000000000     0.000000000000     3.034559410088
       2       -1.996065495508    -0.000000000000    -1.517279705044
       3        1.996065495508     0.000000000000    -1.517279705044


  -Core Hamiltonian Gradient:
     Atom            X                  Y                   Z
    ------   -----------------  -----------------  -----------------
       1        0.000000000000    -0.000000000000    -7.673652292861
       2        4.830031278884     0.000000000000     3.836826146430
       3       -4.830031278884    -0.000000000000     3.836826146430


  -Lagrangian contribution to gradient:
     Atom            X                  Y                   Z
    ------   -----------------  -----------------  -----------------
       1        0.000000000000     0.000000000000     0.483324987492
       2       -0.278866228592    -0.000000000000    -0.241662493746
       3        0.278866228592     0.000000000000    -0.241662493746


  -Two-electron contribution to gradient:
     Atom            X                  Y                   Z
    ------   -----------------  -----------------  -----------------
       1        0.000000000000     0.000000000000     4.155293043273
       2       -2.555556841012    -0.000000000000    -2.077646521636
       3        2.555556841012     0.000000000000    -2.077646521636


  -Total gradient:
     Atom            X                  Y                   Z
    ------   -----------------  -----------------  -----------------
       1        0.000000000000    -0.000000000000    -0.000474852007
       2       -0.000457286228    -0.000000000000     0.000237426004
       3        0.000457286228     0.000000000000     0.000237426004


  //>>>>>>>>>>>>>>>>>>>>>>>>>>>>>>>>>>>//
  //    Loading displacement 2 of 6    //
  //<<<<<<<<<<<<<<<<<<<<<<<<<<<<<<<<<<<//
gradient() will perform analytic gradient computation.

*** tstart() called on atlantis
*** at Tue Apr 19 00:21:04 2022

   => Loading Basis Set <=

    Name: CC-PVDZ
    Role: ORBITAL
    Keyword: BASIS
    atoms 1   entry O          line   198 file /home/akrom/software/anaconda3/envs/ffpenv/share/psi4/basis/cc-pvdz.gbs 
    atoms 2-3 entry H          line    22 file /home/akrom/software/anaconda3/envs/ffpenv/share/psi4/basis/cc-pvdz.gbs 


         ---------------------------------------------------------
                                   SCF
               by Justin Turney, Rob Parrish, Andy Simmonett
                          and Daniel G. A. Smith
                              RHF Reference
                        1 Threads,    500 MiB Core
         ---------------------------------------------------------

  ==> Geometry <==

    Molecular point group: c2v
    Full point group: C2v

    Geometry (in Angstrom), charge = 0, multiplicity = 1:

       Center              X                  Y                   Z               Mass       
    ------------   -----------------  -----------------  -----------------  -----------------
         O            0.000000000000     0.000000000000    -0.068190581735    15.994914619570
         H            0.749030000000     0.000000000000     0.541117008324     1.007825032230
         H           -0.749030000000    -0.000000000000     0.541117008324     1.007825032230

  Running in c2v symmetry.

  Rotational constants: A =     25.36609  B =     14.90675  C =      9.38911 [cm^-1]
  Rotational constants: A = 760456.34809  B = 446893.08836  C = 281478.31580 [MHz]
  Nuclear repulsion =    9.122096529799810

  Charge       = 0
  Multiplicity = 1
  Electrons    = 10
  Nalpha       = 5
  Nbeta        = 5

  ==> Algorithm <==

  SCF Algorithm Type is PK.
  DIIS enabled.
  MOM disabled.
  Fractional occupation disabled.
  Guess Type is SAD.
  Energy threshold   = 1.00e-10
  Density threshold  = 1.00e-10
  Integral threshold = 0.00e+00

  ==> Primary Basis <==

  Basis Set: CC-PVDZ
    Blend: CC-PVDZ
    Number of shells: 12
    Number of basis function: 24
    Number of Cartesian functions: 25
    Spherical Harmonics?: true
    Max angular momentum: 2

  ==> Pre-Iterations <==

   -------------------------------------------------------
    Irrep   Nso     Nmo     Nalpha   Nbeta   Ndocc  Nsocc
   -------------------------------------------------------
     A1        11      11       0       0       0       0
     A2         2       2       0       0       0       0
     B1         7       7       0       0       0       0
     B2         4       4       0       0       0       0
   -------------------------------------------------------
    Total      24      24       5       5       5       0
   -------------------------------------------------------

  ==> Integral Setup <==

  Using in-core PK algorithm.
   Calculation information:
      Number of atoms:                   3
      Number of AO shells:              12
      Number of primitives:             32
      Number of atomic orbitals:        25
      Number of basis functions:        24

      Integral cutoff                 1.00e-12
      Number of threads:                 1

  Performing in-core PK
  Using 90300 doubles for integral storage.
  We computed 3081 shell quartets total.
  Whereas there are 3081 unique shell quartets.

  ==> DiskJK: Disk-Based J/K Matrices <==

    J tasked:                  Yes
    K tasked:                  Yes
    wK tasked:                  No
    Memory [MiB]:              375
    Schwarz Cutoff:          1E-12

    OpenMP threads:              1

  Minimum eigenvalue in the overlap matrix is 3.4393278928E-02.
  Using Symmetric Orthogonalization.

  SCF Guess: Superposition of Atomic Densities via on-the-fly atomic UHF.

  ==> Iterations <==

                        Total Energy        Delta E     RMS |[F,P]|

   @RHF iter SAD:   -75.50327655012845   -7.55033e+01   0.00000e+00 
   @RHF iter   1:   -75.95246928564609   -4.49193e-01   3.03415e-02 DIIS
   @RHF iter   2:   -76.00610931510242   -5.36400e-02   1.75587e-02 DIIS
   @RHF iter   3:   -76.02573364781182   -1.96243e-02   1.59778e-03 DIIS
   @RHF iter   4:   -76.02612716643360   -3.93519e-04   3.75499e-04 DIIS
   @RHF iter   5:   -76.02614772916684   -2.05627e-05   6.79435e-05 DIIS
   @RHF iter   6:   -76.02614865809251   -9.28926e-07   1.02518e-05 DIIS
   @RHF iter   7:   -76.02614868040551   -2.23130e-08   1.24975e-06 DIIS
   @RHF iter   8:   -76.02614868073182   -3.26310e-10   2.88894e-07 DIIS
   @RHF iter   9:   -76.02614868075425   -2.24247e-11   6.06336e-08 DIIS
   @RHF iter  10:   -76.02614868075526   -1.00897e-12   5.08611e-09 DIIS
   @RHF iter  11:   -76.02614868075524    1.42109e-14   8.78528e-10 DIIS
   @RHF iter  12:   -76.02614868075528   -4.26326e-14   4.82217e-11 DIIS
  Energy and wave function converged.


  ==> Post-Iterations <==

    Orbital Energies [Eh]
    ---------------------

    Doubly Occupied:                                                      

       1A1   -20.553399     2A1    -1.334714     1B1    -0.689592  
       3A1    -0.570711     1B2    -0.493570  

    Virtual:                                                              

       4A1     0.183583     2B1     0.255313     3B1     0.774313  
       5A1     0.858748     6A1     1.166607     2B2     1.199516  
       4B1     1.256754     7A1     1.419826     1A2     1.483421  
       3B2     1.657567     8A1     1.863254     5B1     1.942065  
       6B1     2.426850     9A1     2.474982     4B2     3.292354  
       2A2     3.320385    10A1     3.507880    11A1     3.838426  
       7B1     4.153012  

    Final Occupation by Irrep:
             A1    A2    B1    B2 
    DOCC [     3,    0,    1,    1 ]

  @RHF Final Energy:   -76.02614868075528

   => Energetics <=

    Nuclear Repulsion Energy =              9.1220965297998102
    One-Electron Energy =                -123.0125193438864812
    Two-Electron Energy =                  37.8642741333313779
    Total Energy =                        -76.0261486807552984

Computation Completed


Properties will be evaluated at   0.000000,   0.000000,   0.000000 [a0]

Properties computed using the SCF density matrix

  Nuclear Dipole Moment: [e a0]
     X:     0.0000      Y:     0.0000      Z:     1.0142

  Electronic Dipole Moment: [e a0]
     X:     0.0000      Y:     0.0000      Z:    -0.1857

  Dipole Moment: [e a0]
     X:     0.0000      Y:     0.0000      Z:     0.8285     Total:     0.8285

  Dipole Moment: [D]
     X:     0.0000      Y:     0.0000      Z:     2.1058     Total:     2.1058


*** tstop() called on atlantis at Tue Apr 19 00:21:05 2022
Module time:
	user time   =       0.24 seconds =       0.00 minutes
	system time =       0.00 seconds =       0.00 minutes
	total time  =          1 seconds =       0.02 minutes
Total time:
	user time   =       1.52 seconds =       0.03 minutes
	system time =       0.25 seconds =       0.00 minutes
	total time  =          2 seconds =       0.03 minutes
 MINTS: Wrapper to libmints.
   by Justin Turney

   Calculation information:
      Number of threads:                 1
      Number of atoms:                   3
      Number of AO shells:              12
      Number of SO shells:               9
      Number of primitives:             32
      Number of atomic orbitals:        25
      Number of basis functions:        24

      Number of irreps:                  4
      Integral cutoff                 0.00e+00
      Number of functions per irrep: [  11    2    7    4 ]

 OEINTS: Overlap, kinetic, potential, dipole, and quadrupole integrals
         stored in file 35.

      Computing two-electron integrals...done
      Computed 11508 non-zero two-electron integrals.
        Stored in file 33.


*** tstart() called on atlantis
*** at Tue Apr 19 00:21:05 2022


	Wfn Parameters:
	--------------------
	Wavefunction         = CCSD
	Number of irreps     = 4
	Number of MOs        = 24
	Number of active MOs = 24
	AO-Basis             = NONE
	Semicanonical        = false
	Reference            = RHF
	Print Level          = 1

	IRREP	# MOs	# FZDC	# DOCC	# SOCC	# VIRT	# FZVR
	-----	-----	------	------	------	------	------
	 A1	   11	    0	    3	    0	    8	    0
	 A2	   2	    0	    0	    0	    2	    0
	 B1	   7	    0	    1	    0	    6	    0
	 B2	   4	    0	    1	    0	    3	    0
	Transforming integrals...
	IWL integrals will be deleted.
	(OO|OO)...
	Presorting SO-basis two-electron integrals.
	Sorting File: SO Ints (nn|nn) nbuckets = 1
	Transforming the one-electron integrals and constructing Fock matrices
	Starting first half-transformation.
	Sorting half-transformed integrals.
	First half integral transformation complete.
	Starting second half-transformation.
	Two-electron integral transformation complete.
	(OO|OV)...
	Starting second half-transformation.
	Two-electron integral transformation complete.
	(OO|VV)...
	Starting second half-transformation.
	Two-electron integral transformation complete.
	(OV|OO)...
	Starting first half-transformation.
	Sorting half-transformed integrals.
	First half integral transformation complete.
	Starting second half-transformation.
	Two-electron integral transformation complete.
	(OV|OV)...
	Starting second half-transformation.
	Two-electron integral transformation complete.
	(OV|VV)...
	Starting second half-transformation.
	Two-electron integral transformation complete.
	(VV|OO)...
	Starting first half-transformation.
	Sorting half-transformed integrals.
	First half integral transformation complete.
	Starting second half-transformation.
	Two-electron integral transformation complete.
	(VV|OV)...
	Starting second half-transformation.
	Two-electron integral transformation complete.
	(VV|VV)...
	Starting second half-transformation.
	Two-electron integral transformation complete.
	Frozen core energy     =      0.00000000000000

	Size of irrep 0 of <ab|cd> integrals:      0.013 (MW) /      0.102 (MB)
	Size of irrep 1 of <ab|cd> integrals:      0.005 (MW) /      0.037 (MB)
	Size of irrep 2 of <ab|cd> integrals:      0.012 (MW) /      0.093 (MB)
	Size of irrep 3 of <ab|cd> integrals:      0.005 (MW) /      0.041 (MB)
	Total:                                     0.034 (MW) /      0.274 (MB)

	Size of irrep 0 of <ia|bc> integrals:      0.004 (MW) /      0.030 (MB)
	Size of irrep 1 of <ia|bc> integrals:      0.001 (MW) /      0.008 (MB)
	Size of irrep 2 of <ia|bc> integrals:      0.003 (MW) /      0.024 (MB)
	Size of irrep 3 of <ia|bc> integrals:      0.001 (MW) /      0.011 (MB)
	Total:                                     0.009 (MW) /      0.073 (MB)

	Size of irrep 0 of tijab amplitudes:       0.001 (MW) /      0.010 (MB)
	Size of irrep 1 of tijab amplitudes:       0.000 (MW) /      0.001 (MB)
	Size of irrep 2 of tijab amplitudes:       0.001 (MW) /      0.005 (MB)
	Size of irrep 3 of tijab amplitudes:       0.000 (MW) /      0.003 (MB)
	Total:                                     0.002 (MW) /      0.020 (MB)

	Nuclear Rep. energy          =      9.12209652979981
	SCF energy                   =    -76.02614868075528
	One-electron energy          =   -123.01251934364826
	Two-electron energy          =     37.86427413309316
	Reference energy             =    -76.02614868075530

*** tstop() called on atlantis at Tue Apr 19 00:21:05 2022
Module time:
	user time   =       0.00 seconds =       0.00 minutes
	system time =       0.00 seconds =       0.00 minutes
	total time  =          0 seconds =       0.00 minutes
Total time:
	user time   =       1.53 seconds =       0.03 minutes
	system time =       0.26 seconds =       0.00 minutes
	total time  =          2 seconds =       0.03 minutes
            **************************
            *                        *
            *        CCENERGY        *
            *                        *
            **************************

    Nuclear Rep. energy (wfn)     =    9.122096529799810
    SCF energy          (wfn)     =  -76.026148680755284
    Reference energy    (file100) =  -76.026148680755298

    Input parameters:
    -----------------
    Wave function   =     CCSD
    Reference wfn   =     RHF
    Brueckner       =     No
    Memory (Mbytes) =     524.3
    Maxiter         =     50
    R_Convergence   =     1.0e-07
    E_Convergence   =     1.0e-08
    Restart         =     Yes
    DIIS            =     Yes
    AO Basis        =     NONE
    ABCD            =     NEW
    Cache Level     =     2
    Cache Type      =     LOW
    Print Level     =     1
    Num. of threads =     1
    # Amps to Print =     10
    Print MP2 Amps? =     No
    Analyze T2 Amps =     No
    Print Pair Ener =     No
    Local CC        =     No
    SCS-MP2         =     False
    SCSN-MP2        =     False
    SCS-CCSD        =     False

MP2 correlation energy -0.2048374683979590
                Solving CC Amplitude Equations
                ------------------------------
  Iter             Energy              RMS        T1Diag      D1Diag    New D1Diag    D2Diag
  ----     ---------------------    ---------   ----------  ----------  ----------   --------
     0        -0.204837468397959    0.000e+00    0.000000    0.000000    0.000000    0.110562
     1        -0.209650374274560    2.695e-02    0.004128    0.008816    0.008816    0.117504
     2        -0.213675605065171    9.585e-03    0.004870    0.010155    0.010155    0.123002
     3        -0.214109878379441    2.533e-03    0.005321    0.010967    0.010967    0.124297
     4        -0.214120818770863    5.763e-04    0.005362    0.011154    0.011154    0.124506
     5        -0.214132883450608    1.710e-04    0.005385    0.011266    0.011266    0.124544
     6        -0.214130987142548    5.629e-05    0.005394    0.011311    0.011311    0.124537
     7        -0.214130756841052    1.521e-05    0.005397    0.011326    0.011326    0.124536
     8        -0.214130631781460    2.673e-06    0.005397    0.011328    0.011328    0.124535
     9        -0.214130581554578    6.614e-07    0.005397    0.011328    0.011328    0.124535
    10        -0.214130597084605    1.347e-07    0.005397    0.011328    0.011328    0.124535
    11        -0.214130595647138    2.868e-08    0.005397    0.011328    0.011328    0.124535
    12        -0.214130595953835    4.775e-09    0.005397    0.011328    0.011328    0.124535

    Iterations converged.


    Largest TIA Amplitudes:
              2   0         0.0076775216
              3  14         0.0074682225
              3  10        -0.0060519382
              2   5         0.0051807793
              3  12         0.0048943558
              1   2         0.0043006902
              1   0        -0.0035878195
              4  17        -0.0033931847
              4  16        -0.0032243732
              2   1        -0.0031177957

    Largest TIjAb Amplitudes:
      4   4  16  16        -0.0514056323
      3   3  11  11        -0.0363955646
      2   2   2   2        -0.0343008118
      3   3  10  10        -0.0306788048
      2   4   2  16         0.0280626526
      4   2  16   2         0.0280626526
      3   3   1   1        -0.0274205646
      2   2  11  11        -0.0259243934
      3   4  12  16        -0.0229861481
      4   3  16  12        -0.0229861481

    SCF energy       (wfn)                    =  -76.026148680755284
    Reference energy (file100)                =  -76.026148680755298

    Opposite-spin MP2 correlation energy      =   -0.153139639724941
    Same-spin MP2 correlation energy          =   -0.051697828673018
    MP2 correlation energy                    =   -0.204837468397959
[...]
	One-electron energy          =   -123.03338168977280
	Two-electron energy          =     37.87366095644982
	Reference energy             =    -76.02625244554875

*** tstop() called on atlantis at Tue Apr 19 00:21:07 2022
Module time:
	user time   =       0.01 seconds =       0.00 minutes
	system time =       0.00 seconds =       0.00 minutes
	total time  =          0 seconds =       0.00 minutes
Total time:
	user time   =       3.04 seconds =       0.05 minutes
	system time =       0.60 seconds =       0.01 minutes
	total time  =          4 seconds =       0.07 minutes
            **************************
            *                        *
            *        CCENERGY        *
            *                        *
            **************************

    Nuclear Rep. energy (wfn)     =    9.133468287774228
    SCF energy          (wfn)     =  -76.026252445548735
    Reference energy    (file100) =  -76.026252445548749

    Input parameters:
    -----------------
    Wave function   =     CCSD
    Reference wfn   =     RHF
    Brueckner       =     No
    Memory (Mbytes) =     524.3
    Maxiter         =     50
    R_Convergence   =     1.0e-07
    E_Convergence   =     1.0e-08
    Restart         =     Yes
    DIIS            =     Yes
    AO Basis        =     NONE
    ABCD            =     NEW
    Cache Level     =     2
    Cache Type      =     LOW
    Print Level     =     1
    Num. of threads =     1
    # Amps to Print =     10
    Print MP2 Amps? =     No
    Analyze T2 Amps =     No
    Print Pair Ener =     No
    Local CC        =     No
    SCS-MP2         =     False
    SCSN-MP2        =     False
    SCS-CCSD        =     False

MP2 correlation energy -0.2047294505254331
                Solving CC Amplitude Equations
                ------------------------------
  Iter             Energy              RMS        T1Diag      D1Diag    New D1Diag    D2Diag
  ----     ---------------------    ---------   ----------  ----------  ----------   --------
     0        -0.204729450525433    0.000e+00    0.000000    0.000000    0.000000    0.110425
     1        -0.209559959439072    2.689e-02    0.004114    0.008790    0.008790    0.117361
     2        -0.213573067424100    9.552e-03    0.004854    0.010125    0.010125    0.122836
     3        -0.214003965273906    2.518e-03    0.005302    0.010950    0.010950    0.124120
     4        -0.214014874626595    5.728e-04    0.005342    0.011117    0.011117    0.124328
     5        -0.214026845418713    1.696e-04    0.005365    0.011225    0.011225    0.124365
     6        -0.214024970093751    5.586e-05    0.005373    0.011270    0.011270    0.124359
     7        -0.214024741119182    1.512e-05    0.005377    0.011284    0.011284    0.124357
     8        -0.214024617672832    2.654e-06    0.005377    0.011286    0.011286    0.124356
     9        -0.214024567690124    6.554e-07    0.005377    0.011286    0.011286    0.124356
    10        -0.214024583125169    1.334e-07    0.005377    0.011286    0.011286    0.124356
    11        -0.214024581709867    2.840e-08    0.005377    0.011286    0.011286    0.124356
    12        -0.214024582013108    4.730e-09    0.005377    0.011286    0.011286    0.124356

    Iterations converged.


    Largest TIA Amplitudes:
              3   0         0.0076252893
              2   9         0.0074145525
              2   1         0.0060458362
              3  10         0.0051289071
              2   5        -0.0048528483
              1   4         0.0042895572
              1   0        -0.0036203401
              4  16        -0.0033820032
              4  14        -0.0032041544
              3   3        -0.0030947981

    Largest TIjAb Amplitudes:
      4   4  14  14        -0.0514010651
      2   2   2   2        -0.0363561050
      3   3   4   4        -0.0343640570
      2   2   1   1        -0.0305037008
      3   4   4  14         0.0280942279
      4   3  14   4         0.0280942279
      2   2   3   3        -0.0274741284
      3   3   2   2        -0.0259071978
      2   4   5  14         0.0229740325
      4   2  14   5         0.0229740325

    SCF energy       (wfn)                    =  -76.026252445548735
    Reference energy (file100)                =  -76.026252445548749

    Opposite-spin MP2 correlation energy      =   -0.153051601816716
    Same-spin MP2 correlation energy          =   -0.051677848708717
    MP2 correlation energy                    =   -0.204729450525433
      * MP2 total energy                      =  -76.230981896074184

    Opposite-spin CCSD correlation energy     =   -0.167939633074756
    Same-spin CCSD correlation energy         =   -0.046084948938352
    CCSD correlation energy                   =   -0.214024582013108
      * CCSD total energy                     =  -76.240277027561859


			**************************
			*                        *
			*         CCHBAR         *
			*                        *
			**************************


			**************************
			*        CCLAMBDA        *
			**************************


	Nuclear Rep. energy (wfn)     =    9.133468287774228
	Reference           (wfn)     =                    0
	SCF energy          (wfn)     =  -76.026252445548735
	Reference energy    (CC_INFO) =  -76.026252445548749
	CCSD energy         (CC_INFO) =   -0.214024582013108
	Total CCSD energy   (CC_INFO) =  -76.240277027561859

	Input parameters:
	-----------------
	Maxiter           =     50
	Convergence       = 1.0e-07
	Restart           =     No
	Cache Level       =     2
	Model III         =     No
	DIIS              =     Yes
	AO Basis          =     No
	ABCD              =     NEW
	Local CC          =     No
	Parameters for left-handed eigenvectors:
	    Irr   Root  Ground-State?    EOM energy        R0
	  1   0     0        Yes       0.0000000000   1.0000000000
	Labels for eigenvector 1:
	LIA 0 -1, Lia 0 -1, LIJAB 0 -1, Lijab 0 -1, LIjAb 0 -1, 2LIjAb - LIjbA 0 -1
	Symmetry of left-hand state: Ap
	Symmetry of left-hand eigenvector: Ap

	          Solving Lambda Equations
	          ------------------------
	Iter     PseudoEnergy or Norm         RMS  
	----     ---------------------     --------
	   0        -0.214041401065697    8.500e-08
	   1        -0.211351217019913    5.570e-03
	   2        -0.210952611342053    1.170e-03
	   3        -0.210890013669248    4.516e-04
	   4        -0.210886672081433    1.451e-04
	   5        -0.210888877351838    5.035e-05
	   6        -0.210888619693182    1.137e-05
	   7        -0.210888733165649    2.823e-06
	   8        -0.210888758649043    4.715e-07
	   9        -0.210888758780083    8.440e-08

	Largest LIA Amplitudes:
	          2   9         0.0062248051
	          3   0         0.0054499254
	          2   5        -0.0044976660
	          3  10         0.0042560332
	          2   1         0.0039296319
	          1   4         0.0036257745
	          3   3        -0.0030110854
	          1   0        -0.0026829428
	          4  16        -0.0025055247
	          1  10        -0.0024901460

	Largest LIjAb Amplitudes:
	  4   4  14  14        -0.0511783210
	  2   2   2   2        -0.0355027206
	  3   3   4   4        -0.0340300566
	  2   2   1   1        -0.0298112243
	  3   4   4  14         0.0279738373
	  4   3  14   4         0.0279738373
	  2   2   3   3        -0.0266748487
	  3   3   2   2        -0.0251951741
	  2   4   5  14         0.0227830176
	  4   2  14   5         0.0227830176

	Iterations converged.

	Overlap <L|e^T> =        0.94345719142

			**************************
			*                        *
			*        CCDENSITY       *
			*                        *
			**************************


	Input parameters:
	-----------------
	Wave function    =   CCSD
	Reference wfn    =   RHF
	Dertype          = 1
	Tolerance        = 1.0e-14
	Cache Level      = 2
	AO Basis         = No
	OPDM Only        = No
	Relax OPDM       = Yes
	Compute Xi       = No
	Use Zeta         = No
	Xi connected     = Yes
	Compute NO       = No

	Nuclear Rep. energy (wfn)     =    9.133468287774228
	SCF energy          (wfn)     =  -76.026252445548735
	Reference energy    (file100) =  -76.026252445548749
	CCSD energy         (CC_INFO) =   -0.214024582013108
	Total CCSD energy   (CC_INFO) =  -76.240277027561859
	Number of States = 1

	Ground?  State     EOM Energy       R0
	  Yes     0 Ap    0.0000000000   1.00000000

	Virial Theorem Data:
	--------------------
	Kinetic energy (ref)   =   75.965706721244572
	Kinetic energy (corr)  =    0.186928248345582
	Kinetic energy (total) =   76.152634969590153
	-V/T (ref)             =    2.000797013901633
	-V/T (corr)            =    2.144955799390107
	-V/T (total)           =    2.001150873610699
  Cartesian Displacement SALCs
  By SALC:
  Number of SALCs: 6, nirreps: A'
  Project out translations: False
  Project out rotations: False
	irrep = 0, ncomponent = 1
		0: atom 0, direction x, coef 1.000000
	irrep = 0, ncomponent = 1
		0: atom 0, direction z, coef 1.000000
	irrep = 0, ncomponent = 1
		0: atom 1, direction x, coef 1.000000
	irrep = 0, ncomponent = 1
		0: atom 1, direction z, coef 1.000000
	irrep = 0, ncomponent = 1
		0: atom 2, direction x, coef 1.000000
	irrep = 0, ncomponent = 1
		0: atom 2, direction z, coef 1.000000

  By Atomic Center:
  Number of atomic centers: 3
   Atomic Center 0:
	x component, size = 1
		0: salc 0, irrep 0, coef 1.000000
	y component, size = 0
	z component, size = 1
		0: salc 1, irrep 0, coef 1.000000
   Atomic Center 1:
	x component, size = 1
		0: salc 2, irrep 0, coef 1.000000
	y component, size = 0
	z component, size = 1
		0: salc 3, irrep 0, coef 1.000000
   Atomic Center 2:
	x component, size = 1
		0: salc 4, irrep 0, coef 1.000000
	y component, size = 0
	z component, size = 1
		0: salc 5, irrep 0, coef 1.000000

    Molecular point group: cs
    Full point group: Cs

    Geometry (in Bohr), charge = 0, multiplicity = 1:

       Center              X                  Y                   Z       
    ------------   -----------------  -----------------  -----------------
         O           -0.000332326610     0.000000000000    -0.128443286339
         H            1.418098691984     0.000000000000     1.021382326257
         H           -1.412824427519     0.000000000000     1.017105836614

	Presorting MO-basis TPDM.
	Sorting File: MO TPDM (AA|AA) nbuckets = 1
	Starting first half-transformation.
	Sorting half-transformed TPDM.
	First half integral transformation complete.


  -Nuclear Repulsion Energy 1st Derivatives:
     Atom            X                  Y                   Z
    ------   -----------------  -----------------  -----------------
       1       -0.014657373499     0.000000000000     3.034598523291
       2       -1.988757858744     0.000000000000    -1.511189256655
       3        2.003415232243     0.000000000000    -1.523409266637


  -Core Hamiltonian Gradient:
     Atom            X                  Y                   Z
    ------   -----------------  -----------------  -----------------
       1        0.018344230144     0.000000000000    -7.673662627633
       2        4.820857457034     0.000000000000     3.827455037206
       3       -4.839201687178     0.000000000000     3.846207590427


  -Lagrangian contribution to gradient:
     Atom            X                  Y                   Z
    ------   -----------------  -----------------  -----------------
       1       -0.000715389118     0.000000000000     0.483322250457
       2       -0.278506364787     0.000000000000    -0.241184910398
       3        0.279221753905     0.000000000000    -0.242137340058


  -Two-electron contribution to gradient:
     Atom            X                  Y                   Z
    ------   -----------------  -----------------  -----------------
       1       -0.006117095120     0.000000000000     4.155284533859
       2       -2.552487868381     0.000000000000    -2.073578124080
       3        2.558604963501     0.000000000000    -2.081706409779


  -Total gradient:
     Atom            X                  Y                   Z
    ------   -----------------  -----------------  -----------------
       1       -0.003145627593     0.000000000000    -0.000457320025
       2        0.001105365122     0.000000000000     0.001502746073
       3        0.002040262471     0.000000000000    -0.001045426047


         ----------------------------------------------------------
                                   FINDIF
                     R. A. King and Jonathon Misiewicz
         ---------------------------------------------------------

  Computing second-derivative from gradients using projected, 
  symmetry-adapted, cartesian coordinates.

  6 gradients passed in, including the reference geometry.
  Generating complete list of displacements from unique ones.

    Operation 2 takes plus displacements of irrep B1 to minus ones.

-------------------------------------------------------------


  ==> Harmonic Vibrational Analysis <==

  non-mass-weighted Hessian:       Symmetric? True   Hermitian? True   Lin Dep Dim?  6 (0)
  projection of translations (True) and rotations (True) removed 6 degrees of freedom (6)
  total projector:                 Symmetric? True   Hermitian? True   Lin Dep Dim?  6 (6)
  mass-weighted Hessian:           Symmetric? True   Hermitian? True   Lin Dep Dim?  6 (0)
  pre-proj  low-frequency mode:    0.0000i [cm^-1]
  pre-proj  low-frequency mode:    0.0000i [cm^-1]
  pre-proj  low-frequency mode:    0.0000i [cm^-1]
  pre-proj  low-frequency mode:    0.0000  [cm^-1]
  pre-proj  low-frequency mode:    0.0000  [cm^-1]
  pre-proj  low-frequency mode:    0.0000  [cm^-1]
  pre-proj  all modes:['0.0000i' '0.0000i' '0.0000i' '0.0000' '0.0000' '0.0000' '1700.5482'
 '3851.5794' '3953.7568']
  projected mass-weighted Hessian: Symmetric? True   Hermitian? True   Lin Dep Dim?  6 (6)
  post-proj low-frequency mode:    0.0001i [cm^-1] (TR)
  post-proj low-frequency mode:    0.0000i [cm^-1] (TR)
  post-proj low-frequency mode:    0.0000i [cm^-1] (TR)
  post-proj low-frequency mode:    0.0000  [cm^-1] (TR)
  post-proj low-frequency mode:    0.0000  [cm^-1] (TR)
  post-proj low-frequency mode:    0.0001  [cm^-1] (TR)
  post-proj  all modes:['0.0001i' '0.0000i' '0.0000i' '0.0000' '0.0000' '0.0001' '1700.5482'
 '3851.5794' '3953.7568']

  Vibration                       7                   8                   9           
  Freq [cm^-1]                1700.5482           3851.5794           3953.7568       
  Irrep                           A1                  A1                  B1          
  Reduced mass [u]              1.0809              1.0468              1.0793        
  Force const [mDyne/A]         1.8417              9.1496              9.9404        
  Turning point v=0 [a0]        0.2559              0.1728              0.1680        
  RMS dev v=0 [a0 u^1/2]        0.1881              0.1250              0.1234        
  Char temp [K]               2446.7102           5541.5652           5688.5758       
  ----------------------------------------------------------------------------------
      1   O                0.00  0.00 -0.07    0.00 -0.00 -0.05   -0.07 -0.00 -0.00   
      2   H               -0.44  0.00  0.55    0.58  0.00  0.40    0.55  0.00  0.44   
      3   H                0.44 -0.00  0.55   -0.58 -0.00  0.40    0.55 -0.00 -0.44   

  ==> Thermochemistry Components <==

  Entropy, S
    Electronic S            0.000 [cal/(mol K)]        0.000 [J/(mol K)]       0.00000000 [mEh/K] (multiplicity = 1)
    Translational S        34.608 [cal/(mol K)]      144.801 [J/(mol K)]       0.05515177 [mEh/K] (mol. weight = 18.0106 [u], P = 101325.00 [Pa])
    Rotational S           10.508 [cal/(mol K)]       43.968 [J/(mol K)]       0.01674635 [mEh/K] (symmetry no. = 2)
    Vibrational S           0.005 [cal/(mol K)]        0.021 [J/(mol K)]       0.00000796 [mEh/K]
  Total S                  45.122 [cal/(mol K)]      188.789 [J/(mol K)]       0.07190609 [mEh/K]
  Correction S              0.000 [cal/(mol K)]        0.000 [J/(mol K)]       0.00000000 [mEh/K]

  Constant volume heat capacity, Cv
    Electronic Cv           0.000 [cal/(mol K)]        0.000 [J/(mol K)]       0.00000000 [mEh/K]
    Translational Cv        2.981 [cal/(mol K)]       12.472 [J/(mol K)]       0.00475022 [mEh/K]
    Rotational Cv           2.981 [cal/(mol K)]       12.472 [J/(mol K)]       0.00475022 [mEh/K]
    Vibrational Cv          0.037 [cal/(mol K)]        0.153 [J/(mol K)]       0.00005825 [mEh/K]
  Total Cv                  5.998 [cal/(mol K)]       25.096 [J/(mol K)]       0.00955868 [mEh/K]
  Correction Cv             0.000 [cal/(mol K)]        0.000 [J/(mol K)]       0.00000000 [mEh/K]

  Constant pressure heat capacity, Cp
    Electronic Cp           0.000 [cal/(mol K)]        0.000 [J/(mol K)]       0.00000000 [mEh/K]
    Translational Cp        4.968 [cal/(mol K)]       20.786 [J/(mol K)]       0.00791703 [mEh/K]
    Rotational Cp           2.981 [cal/(mol K)]       12.472 [J/(mol K)]       0.00475022 [mEh/K]
    Vibrational Cp          0.037 [cal/(mol K)]        0.153 [J/(mol K)]       0.00005825 [mEh/K]
  Total Cp                  7.985 [cal/(mol K)]       33.411 [J/(mol K)]       0.01272549 [mEh/K]
  Correction Cp             0.000 [cal/(mol K)]        0.000 [J/(mol K)]       0.00000000 [mEh/K]

  ==> Thermochemistry Energy Analysis <==

  Raw electronic energy, E0
  Total E0, Electronic energy at well bottom at 0 [K]                  -76.24028442 [Eh]

  Zero-point energy, ZPE_vib = Sum_i nu_i / 2
    Electronic ZPE          0.000 [kcal/mol]        0.000 [kJ/mol]       0.00000000 [Eh]
    Translational ZPE       0.000 [kcal/mol]        0.000 [kJ/mol]       0.00000000 [Eh]
    Rotational ZPE          0.000 [kcal/mol]        0.000 [kJ/mol]       0.00000000 [Eh]
    Vibrational ZPE        13.589 [kcal/mol]       56.858 [kJ/mol]       0.02165600 [Eh]        4752.942 [cm^-1]
  Correction ZPE           13.589 [kcal/mol]       56.858 [kJ/mol]       0.02165600 [Eh]        4752.942 [cm^-1]
  Total ZPE, Electronic energy at 0 [K]                                -76.21862842 [Eh]

  Thermal Energy, E (includes ZPE)
    Electronic E            0.000 [kcal/mol]        0.000 [kJ/mol]       0.00000000 [Eh]
    Translational E         0.889 [kcal/mol]        3.718 [kJ/mol]       0.00141628 [Eh]
    Rotational E            0.889 [kcal/mol]        3.718 [kJ/mol]       0.00141628 [Eh]
    Vibrational E          13.591 [kcal/mol]       56.863 [kJ/mol]       0.02165811 [Eh]
  Correction E             15.368 [kcal/mol]       64.300 [kJ/mol]       0.02449067 [Eh]
  Total E, Electronic energy at  298.15 [K]                            -76.21579376 [Eh]

  Enthalpy, H_trans = E_trans + k_B * T
    Electronic H            0.000 [kcal/mol]        0.000 [kJ/mol]       0.00000000 [Eh]
    Translational H         1.481 [kcal/mol]        6.197 [kJ/mol]       0.00236046 [Eh]
    Rotational H            0.889 [kcal/mol]        3.718 [kJ/mol]       0.00141628 [Eh]
    Vibrational H          13.591 [kcal/mol]       56.863 [kJ/mol]       0.02165811 [Eh]
  Correction H             15.961 [kcal/mol]       66.779 [kJ/mol]       0.02543485 [Eh]
  Total H, Enthalpy at  298.15 [K]                                     -76.21484957 [Eh]

  Gibbs free energy, G = H - T * S
    Electronic G            0.000 [kcal/mol]        0.000 [kJ/mol]       0.00000000 [Eh]
    Translational G        -8.837 [kcal/mol]      -36.975 [kJ/mol]      -0.01408304 [Eh]
    Rotational G           -2.244 [kcal/mol]       -9.390 [kJ/mol]      -0.00357665 [Eh]
    Vibrational G          13.589 [kcal/mol]       56.857 [kJ/mol]       0.02165574 [Eh]
  Correction G              2.508 [kcal/mol]       10.492 [kJ/mol]       0.00399605 [Eh]
  Total G, Free enthalpy at  298.15 [K]                                -76.23628837 [Eh]

    Psi4 stopped on: Tuesday, 19 April 2022 12:21AM
    Psi4 wall time for execution: 0:00:04.73

*** Psi4 exiting successfully. Buy a developer a beer!
