
    -----------------------------------------------------------------------
          Psi4: An Open-Source Ab Initio Electronic Structure Package
                               Psi4 1.3.2 release

                         Git: Rev {HEAD} ecbda83 


    R. M. Parrish, L. A. Burns, D. G. A. Smith, A. C. Simmonett,
    A. E. DePrince III, E. G. Hohenstein, U. Bozkaya, A. Yu. Sokolov,
    R. Di Remigio, R. M. Richard, J. F. Gonthier, A. M. James,
    H. R. McAlexander, A. Kumar, M. Saitow, X. Wang, B. P. Pritchard,
    P. Verma, H. F. Schaefer III, K. Patkowski, R. A. King, E. F. Valeev,
    F. A. Evangelista, J. M. Turney, T. D. Crawford, and C. D. Sherrill,
    J. Chem. Theory Comput. 13(7) pp 3185--3197 (2017).
    (doi: 10.1021/acs.jctc.7b00174)


                         Additional Contributions by
    P. Kraus, H. Kruse, M. H. Lechner, M. C. Schieber, R. A. Shaw,
    A. Alenaizan, R. Galvelis, Z. L. Glick, S. Lehtola, and J. P. Misiewicz

    -----------------------------------------------------------------------


    Psi4 started on: Tuesday, 19 April 2022 03:41PM

    Process ID: 5080
    Host:       atlantis
    PSIDATADIR: /home/akrom/software/anaconda3/envs/ffpenv/share/psi4
    Memory:     500.0 MiB
    Threads:    1
    
  ==> Input File <==

--------------------------------------------------------------------------
set basis  6-31+G*
molecule {
0 1
   C        0.32153        0.81326        0.00000
   C       -0.86505       -0.12817        0.00000
   C        0.54353       -0.68508        0.00000
   H        0.53795        1.36069       -0.92039
   H        0.53795        1.36069        0.92039
   H       -1.44742       -0.21449        0.92034
   H       -1.44742       -0.21449       -0.92034
   H        0.90937       -1.14629       -0.92037
   H        0.90937       -1.14629        0.92037
}
energy('CCSD')
frequencies('CCSD')
--------------------------------------------------------------------------

*** tstart() called on atlantis
*** at Tue Apr 19 15:41:46 2022

   => Loading Basis Set <=

    Name: 6-31+G*
    Role: ORBITAL
    Keyword: BASIS
    atoms 1-3 entry C          line   119 file /home/akrom/software/anaconda3/envs/ffpenv/share/psi4/basis/6-31pgs.gbs 
    atoms 4-9 entry H          line    46 file /home/akrom/software/anaconda3/envs/ffpenv/share/psi4/basis/6-31pgs.gbs 


         ---------------------------------------------------------
                                   SCF
               by Justin Turney, Rob Parrish, Andy Simmonett
                          and Daniel G. A. Smith
                              RHF Reference
                        1 Threads,    500 MiB Core
         ---------------------------------------------------------

  ==> Geometry <==

    Molecular point group: cs
    Full point group: Cs

    Geometry (in Angstrom), charge = 0, multiplicity = 1:

       Center              X                  Y                   Z               Mass       
    ------------   -----------------  -----------------  -----------------  -----------------
         C            0.321531939855     0.813261460475     0.000000000000    12.000000000000
         C           -0.865048060145    -0.128168539525     0.000000000000    12.000000000000
         C            0.543531939855    -0.685078539525     0.000000000000    12.000000000000
         H            0.537951939855     1.360691460475    -0.920390000000     1.007825032230
         H            0.537951939855     1.360691460475     0.920390000000     1.007825032230
         H           -1.447418060145    -0.214488539525     0.920340000000     1.007825032230
         H           -1.447418060145    -0.214488539525    -0.920340000000     1.007825032230
         H            0.909371939855    -1.146288539525    -0.920370000000     1.007825032230
         H            0.909371939855    -1.146288539525     0.920370000000     1.007825032230

  Running in cs symmetry.

  Rotational constants: A =      0.66472  B =      0.66470  C =      0.41647 [cm^-1]
  Rotational constants: A =  19927.70596  B =  19927.20236  C =  12485.44714 [MHz]
  Nuclear repulsion =   75.281464809014025

  Charge       = 0
  Multiplicity = 1
  Electrons    = 24
  Nalpha       = 12
  Nbeta        = 12

  ==> Algorithm <==

  SCF Algorithm Type is PK.
  DIIS enabled.
  MOM disabled.
  Fractional occupation disabled.
  Guess Type is SAD.
  Energy threshold   = 1.00e-08
  Density threshold  = 1.00e-08
  Integral threshold = 0.00e+00

  ==> Primary Basis <==

  Basis Set: 6-31+G*
    Blend: 6-31+G*
    Number of shells: 36
    Number of basis function: 69
    Number of Cartesian functions: 69
    Spherical Harmonics?: false
    Max angular momentum: 2

  ==> Pre-Iterations <==

   -------------------------------------------------------
    Irrep   Nso     Nmo     Nalpha   Nbeta   Ndocc  Nsocc
   -------------------------------------------------------
     A'        48      48       0       0       0       0
     A"        21      21       0       0       0       0
   -------------------------------------------------------
    Total      69      69      12      12      12       0
   -------------------------------------------------------

  ==> Integral Setup <==

  Using in-core PK algorithm.
   Calculation information:
      Number of atoms:                   9
      Number of AO shells:              36
      Number of primitives:             75
      Number of atomic orbitals:        69
      Number of basis functions:        69

      Integral cutoff                 1.00e-12
      Number of threads:                 1

  Performing in-core PK
  Using 5834640 doubles for integral storage.
  We computed 222105 shell quartets total.
  Whereas there are 222111 unique shell quartets.

  ==> DiskJK: Disk-Based J/K Matrices <==

    J tasked:                  Yes
    K tasked:                  Yes
    wK tasked:                  No
    Memory [MiB]:              375
    Schwarz Cutoff:          1E-12

    OpenMP threads:              1

  Minimum eigenvalue in the overlap matrix is 1.9505761385E-04.
  Using Symmetric Orthogonalization.

  SCF Guess: Superposition of Atomic Densities via on-the-fly atomic UHF.

  ==> Iterations <==

                        Total Energy        Delta E     RMS |[F,P]|

   @RHF iter SAD:  -116.53055562369207   -1.16531e+02   0.00000e+00 
   @RHF iter   1:  -116.95642029481301   -4.25865e-01   7.97537e-03 DIIS
   @RHF iter   2:  -117.03749524404294   -8.10749e-02   3.88534e-03 DIIS
   @RHF iter   3:  -117.05855291028863   -2.10577e-02   5.35664e-04 DIIS
   @RHF iter   4:  -117.05930201369213   -7.49103e-04   6.19963e-05 DIIS
   @RHF iter   5:  -117.05931777576862   -1.57621e-05   1.30736e-05 DIIS
   @RHF iter   6:  -117.05931854554576   -7.69777e-07   2.43859e-06 DIIS
   @RHF iter   7:  -117.05931857400981   -2.84640e-08   2.73977e-07 DIIS
   @RHF iter   8:  -117.05931857431041   -3.00602e-10   3.13926e-08 DIIS
   @RHF iter   9:  -117.05931857431383   -3.42482e-12   6.04133e-09 DIIS
  Energy and wave function converged.


  ==> Post-Iterations <==

    Orbital Energies [Eh]
    ---------------------

    Doubly Occupied:                                                      

       1Ap   -11.230189     2Ap   -11.229239     3Ap   -11.229234  
       4Ap    -1.127188     5Ap    -0.815254     6Ap    -0.815248  
       1App   -0.664527     7Ap    -0.623530     2App   -0.511976  
       3App   -0.511960     8Ap    -0.417259     9Ap    -0.417252  

    Virtual:                                                              

      10Ap     0.086306    11Ap     0.086307    12Ap     0.096014  
       4App    0.114103     5App    0.146696     6App    0.146699  
      13Ap     0.152215    14Ap     0.152215    15Ap     0.172028  
      16Ap     0.175910    17Ap     0.233723    18Ap     0.233725  
       7App    0.323457    19Ap     0.352446    20Ap     0.367500  
      21Ap     0.435509    22Ap     0.435524     8App    0.449175  
       9App    0.449189    23Ap     0.493066    24Ap     0.493071  
      25Ap     0.779216    10App    0.856764    26Ap     0.861851  
      27Ap     0.861869    28Ap     0.988758    29Ap     0.988764  
      30Ap     1.015492    11App    1.028210    12App    1.028268  
      31Ap     1.050194    13App    1.180346    32Ap     1.275733  
      14App    1.289784    15App    1.289804    33Ap     1.348495  
      34Ap     1.348514    35Ap     1.530746    36Ap     1.530753  
      37Ap     1.836191    16App    2.107557    17App    2.107583  
      38Ap     2.198585    39Ap     2.198628    18App    2.240406  
      19App    2.315529    40Ap     2.480226    41Ap     2.615044  
      42Ap     2.615060    20App    2.852012    21App    2.852056  
      43Ap     2.879740    44Ap     2.879744    45Ap     3.144852  
      46Ap     4.536857    47Ap     4.824850    48Ap     4.824854  

    Final Occupation by Irrep:
             Ap   App 
    DOCC [     9,    3 ]

  @RHF Final Energy:  -117.05931857431383

   => Energetics <=

    Nuclear Repulsion Energy =             75.2814648090140253
    One-Electron Energy =                -305.4958531416947380
    Two-Electron Energy =                 113.1550697583668637
    Total Energy =                       -117.0593185743138349

Computation Completed


Properties will be evaluated at   0.000000,   0.000000,   0.000000 [a0]

Properties computed using the SCF density matrix

  Nuclear Dipole Moment: [e a0]
     X:    -0.0002      Y:    -0.0002      Z:     0.0000

  Electronic Dipole Moment: [e a0]
     X:     0.0002      Y:     0.0001      Z:     0.0000

  Dipole Moment: [e a0]
     X:    -0.0000      Y:    -0.0000      Z:     0.0000     Total:     0.0000

  Dipole Moment: [D]
     X:    -0.0001      Y:    -0.0001      Z:     0.0000     Total:     0.0001


*** tstop() called on atlantis at Tue Apr 19 15:41:47 2022
Module time:
	user time   =       0.68 seconds =       0.01 minutes
	system time =       0.01 seconds =       0.00 minutes
	total time  =          1 seconds =       0.02 minutes
Total time:
	user time   =       0.68 seconds =       0.01 minutes
	system time =       0.01 seconds =       0.00 minutes
	total time  =          1 seconds =       0.02 minutes
 MINTS: Wrapper to libmints.
   by Justin Turney

   Calculation information:
      Number of threads:                 1
      Number of atoms:                   9
      Number of AO shells:              36
      Number of SO shells:              30
      Number of primitives:             75
      Number of atomic orbitals:        69
      Number of basis functions:        69

      Number of irreps:                  2
      Integral cutoff                 0.00e+00
      Number of functions per irrep: [  48   21 ]

 OEINTS: Overlap, kinetic, potential, dipole, and quadrupole integrals
         stored in file 35.

      Computing two-electron integrals...done
      Computed 1482565 non-zero two-electron integrals.
        Stored in file 33.


*** tstart() called on atlantis
*** at Tue Apr 19 15:41:47 2022


	Wfn Parameters:
	--------------------
	Wavefunction         = CCSD
	Number of irreps     = 2
	Number of MOs        = 69
	Number of active MOs = 69
	AO-Basis             = NONE
	Semicanonical        = false
	Reference            = RHF
	Print Level          = 1

	IRREP	# MOs	# FZDC	# DOCC	# SOCC	# VIRT	# FZVR
	-----	-----	------	------	------	------	------
	 Ap	   48	    0	    9	    0	    39	    0
	 App	   21	    0	    3	    0	    18	    0
	Transforming integrals...
	IWL integrals will be deleted.
	(OO|OO)...
	Presorting SO-basis two-electron integrals.
	Sorting File: SO Ints (nn|nn) nbuckets = 1
	Transforming the one-electron integrals and constructing Fock matrices
	Starting first half-transformation.
	Sorting half-transformed integrals.
	First half integral transformation complete.
	Starting second half-transformation.
	Two-electron integral transformation complete.
	(OO|OV)...
	Starting second half-transformation.
	Two-electron integral transformation complete.
	(OO|VV)...
	Starting second half-transformation.
	Two-electron integral transformation complete.
	(OV|OO)...
	Starting first half-transformation.
	Sorting half-transformed integrals.
	First half integral transformation complete.
	Starting second half-transformation.
	Two-electron integral transformation complete.
	(OV|OV)...
	Starting second half-transformation.
	Two-electron integral transformation complete.
	(OV|VV)...
	Starting second half-transformation.
	Two-electron integral transformation complete.
	(VV|OO)...
	Starting first half-transformation.
	Sorting half-transformed integrals.
	First half integral transformation complete.
	Starting second half-transformation.
	Two-electron integral transformation complete.
	(VV|OV)...
	Starting second half-transformation.
	Two-electron integral transformation complete.
	(VV|VV)...
	Starting second half-transformation.
	Two-electron integral transformation complete.
	Frozen core energy     =      0.00000000000000

	Size of irrep 0 of <ab|cd> integrals:      3.404 (MW) /     27.232 (MB)
	Size of irrep 1 of <ab|cd> integrals:      1.971 (MW) /     15.770 (MB)
	Total:                                     5.375 (MW) /     43.002 (MB)

	Size of irrep 0 of <ia|bc> integrals:      0.747 (MW) /      5.978 (MB)
	Size of irrep 1 of <ia|bc> integrals:      0.392 (MW) /      3.134 (MB)
	Total:                                     1.139 (MW) /      9.112 (MB)

	Size of irrep 0 of tijab amplitudes:       0.166 (MW) /      1.328 (MB)
	Size of irrep 1 of tijab amplitudes:       0.076 (MW) /      0.607 (MB)
	Total:                                     0.242 (MW) /      1.935 (MB)

	Nuclear Rep. energy          =     75.28146480901403
	SCF energy                   =   -117.05931857431383
	One-electron energy          =   -305.49585365690206
	Two-electron energy          =    113.15507027357303
	Reference energy             =   -117.05931857431501

*** tstop() called on atlantis at Tue Apr 19 15:41:47 2022
Module time:
	user time   =       0.41 seconds =       0.01 minutes
	system time =       0.14 seconds =       0.00 minutes
	total time  =          0 seconds =       0.00 minutes
Total time:
	user time   =       1.31 seconds =       0.02 minutes
	system time =       0.15 seconds =       0.00 minutes
	total time  =          1 seconds =       0.02 minutes
            **************************
            *                        *
            *        CCENERGY        *
            *                        *
            **************************

    Nuclear Rep. energy (wfn)     =   75.281464809014025
    SCF energy          (wfn)     = -117.059318574313835
    Reference energy    (file100) = -117.059318574315014

    Input parameters:
    -----------------
    Wave function   =     CCSD
    Reference wfn   =     RHF
    Brueckner       =     No
    Memory (Mbytes) =     524.3
    Maxiter         =     50
    R_Convergence   =     1.0e-07
    E_Convergence   =     1.0e-06
    Restart         =     Yes
    DIIS            =     Yes
    AO Basis        =     NONE
    ABCD            =     NEW
    Cache Level     =     2
    Cache Type      =     LOW
    Print Level     =     1
    Num. of threads =     1
    # Amps to Print =     10
    Print MP2 Amps? =     No
    Analyze T2 Amps =     No
    Print Pair Ener =     No
    Local CC        =     No
    SCS-MP2         =     False
    SCSN-MP2        =     False
    SCS-CCSD        =     False

MP2 correlation energy -0.4098385083733206
                Solving CC Amplitude Equations
                ------------------------------
  Iter             Energy              RMS        T1Diag      D1Diag    New D1Diag    D2Diag
  ----     ---------------------    ---------   ----------  ----------  ----------   --------
     0        -0.409838508373321    0.000e+00    0.000000    0.000000    0.000000    0.130405
     1        -0.430021866145989    5.890e-02    0.006313    0.014546    0.014546    0.137862
     2        -0.442887774398275    1.932e-02    0.007057    0.015702    0.015702    0.144926
     3        -0.444106755879013    5.193e-03    0.007532    0.016831    0.016831    0.146387
     4        -0.444163451247307    1.350e-03    0.007529    0.016793    0.016793    0.146793
     5        -0.444192977529334    3.471e-04    0.007525    0.016773    0.016773    0.146873
     6        -0.444195889725338    1.068e-04    0.007524    0.016768    0.016768    0.146886
     7        -0.444195538794151    2.078e-05    0.007524    0.016765    0.016765    0.146886
     8        -0.444195898370000    5.945e-06    0.007524    0.016765    0.016765    0.146886
     9        -0.444195928999842    1.691e-06    0.007524    0.016765    0.016765    0.146886
    10        -0.444195899904883    4.419e-07    0.007524    0.016765    0.016765    0.146886
    11        -0.444195910022259    1.153e-07    0.007524    0.016765    0.016765    0.146886
    12        -0.444195910595488    2.816e-08    0.007524    0.016765    0.016765    0.146886

    Iterations converged.


    Largest TIA Amplitudes:
              9  42         0.0138432312
              9  48         0.0089932629
             10  47         0.0079866842
             11  46         0.0079864993
              7  28        -0.0076571336
              8  29         0.0076569336
              6  10         0.0068584465
              8  16        -0.0065018144
              7  17         0.0065017141
              6  22         0.0060841817

    Largest TIjAb Amplitudes:
      7   7   9   9        -0.0440313392
      8   8   9   9        -0.0440298913
     11  11  43  43        -0.0200304174
     10  10  44  44        -0.0200294074
     11  11  42  42        -0.0188248417
     10  10  42  42        -0.0188232660
      9   9  42  42        -0.0178465020
      8   8   9  20        -0.0174761203
      8   8  20   9        -0.0174761203
      7   7   9  20        -0.0174723641

    SCF energy       (wfn)                    = -117.059318574313835
    Reference energy (file100)                = -117.059318574315014

    Opposite-spin MP2 correlation energy      =   -0.312595247577863
    Same-spin MP2 correlation energy          =   -0.097243260795458
    MP2 correlation energy                    =   -0.409838508373321
      * MP2 total energy                      = -117.469157082688341

    Opposite-spin CCSD correlation energy     =   -0.354535817287070
    Same-spin CCSD correlation energy         =   -0.089660093308418
    CCSD correlation energy                   =   -0.444195910595488
      * CCSD total energy                     = -117.503514484910497

gradient() will perform analytic gradient computation.

*** tstart() called on atlantis
*** at Tue Apr 19 15:41:49 2022

   => Loading Basis Set <=

    Name: 6-31+G*
    Role: ORBITAL
    Keyword: BASIS
    atoms 1-3 entry C          line   119 file /home/akrom/software/anaconda3/envs/ffpenv/share/psi4/basis/6-31pgs.gbs 
    atoms 4-9 entry H          line    46 file /home/akrom/software/anaconda3/envs/ffpenv/share/psi4/basis/6-31pgs.gbs 


         ---------------------------------------------------------
                                   SCF
               by Justin Turney, Rob Parrish, Andy Simmonett
                          and Daniel G. A. Smith
                              RHF Reference
                        1 Threads,    500 MiB Core
         ---------------------------------------------------------

  ==> Geometry <==

    Molecular point group: cs
    Full point group: Cs

    Geometry (in Angstrom), charge = 0, multiplicity = 1:

       Center              X                  Y                   Z               Mass       
    ------------   -----------------  -----------------  -----------------  -----------------
         C            0.321531939855     0.813261460475     0.000000000000    12.000000000000
         C           -0.865048060145    -0.128168539525     0.000000000000    12.000000000000
         C            0.543531939855    -0.685078539525     0.000000000000    12.000000000000
         H            0.537951939855     1.360691460475    -0.920390000000     1.007825032230
         H            0.537951939855     1.360691460475     0.920390000000     1.007825032230
         H           -1.447418060145    -0.214488539525     0.920340000000     1.007825032230
         H           -1.447418060145    -0.214488539525    -0.920340000000     1.007825032230
         H            0.909371939855    -1.146288539525    -0.920370000000     1.007825032230
         H            0.909371939855    -1.146288539525     0.920370000000     1.007825032230

  Running in cs symmetry.

  Rotational constants: A =      0.66472  B =      0.66470  C =      0.41647 [cm^-1]
  Rotational constants: A =  19927.70596  B =  19927.20236  C =  12485.44714 [MHz]
  Nuclear repulsion =   75.281464809014025

  Charge       = 0
  Multiplicity = 1
  Electrons    = 24
  Nalpha       = 12
  Nbeta        = 12

  ==> Algorithm <==

  SCF Algorithm Type is PK.
  DIIS enabled.
  MOM disabled.
  Fractional occupation disabled.
  Guess Type is SAD.
  Energy threshold   = 1.00e-10
  Density threshold  = 1.00e-10
  Integral threshold = 0.00e+00

  ==> Primary Basis <==

  Basis Set: 6-31+G*
    Blend: 6-31+G*
    Number of shells: 36
    Number of basis function: 69
    Number of Cartesian functions: 69
    Spherical Harmonics?: false
    Max angular momentum: 2

  ==> Pre-Iterations <==

   -------------------------------------------------------
    Irrep   Nso     Nmo     Nalpha   Nbeta   Ndocc  Nsocc
   -------------------------------------------------------
     A'        48      48       0       0       0       0
     A"        21      21       0       0       0       0
   -------------------------------------------------------
    Total      69      69      12      12      12       0
   -------------------------------------------------------

  ==> Integral Setup <==

  Using in-core PK algorithm.
   Calculation information:
      Number of atoms:                   9
      Number of AO shells:              36
      Number of primitives:             75
      Number of atomic orbitals:        69
      Number of basis functions:        69

      Integral cutoff                 1.00e-12
      Number of threads:                 1

  Performing in-core PK
  Using 5834640 doubles for integral storage.
  We computed 222105 shell quartets total.
  Whereas there are 222111 unique shell quartets.

  ==> DiskJK: Disk-Based J/K Matrices <==

    J tasked:                  Yes
    K tasked:                  Yes
    wK tasked:                  No
    Memory [MiB]:              375
    Schwarz Cutoff:          1E-12

    OpenMP threads:              1

  Minimum eigenvalue in the overlap matrix is 1.9505761385E-04.
  Using Symmetric Orthogonalization.

  SCF Guess: Superposition of Atomic Densities via on-the-fly atomic UHF.

  ==> Iterations <==

                        Total Energy        Delta E     RMS |[F,P]|

   @RHF iter SAD:  -116.53055562369207   -1.16531e+02   0.00000e+00 
   @RHF iter   1:  -116.95642029481267   -4.25865e-01   7.97537e-03 DIIS
   @RHF iter   2:  -117.03749524404279   -8.10749e-02   3.88534e-03 DIIS
   @RHF iter   3:  -117.05855291028824   -2.10577e-02   5.35664e-04 DIIS
   @RHF iter   4:  -117.05930201369195   -7.49103e-04   6.19963e-05 DIIS
   @RHF iter   5:  -117.05931777576836   -1.57621e-05   1.30736e-05 DIIS
   @RHF iter   6:  -117.05931854554549   -7.69777e-07   2.43859e-06 DIIS
   @RHF iter   7:  -117.05931857400972   -2.84642e-08   2.73977e-07 DIIS
   @RHF iter   8:  -117.05931857431011   -3.00389e-10   3.13926e-08 DIIS
   @RHF iter   9:  -117.05931857431375   -3.63798e-12   6.04133e-09 DIIS
   @RHF iter  10:  -117.05931857431372    2.84217e-14   1.15737e-09 DIIS
   @RHF iter  11:  -117.05931857431366    5.68434e-14   3.87042e-10 DIIS
   @RHF iter  12:  -117.05931857431359    7.10543e-14   2.80605e-11 DIIS
  Energy and wave function converged.


  ==> Post-Iterations <==

    Orbital Energies [Eh]
    ---------------------

    Doubly Occupied:                                                      

       1Ap   -11.230189     2Ap   -11.229239     3Ap   -11.229234  
       4Ap    -1.127188     5Ap    -0.815254     6Ap    -0.815248  
       1App   -0.664527     7Ap    -0.623530     2App   -0.511976  
       3App   -0.511960     8Ap    -0.417259     9Ap    -0.417252  

    Virtual:                                                              

      10Ap     0.086306    11Ap     0.086307    12Ap     0.096014  
       4App    0.114103     5App    0.146696     6App    0.146699  
      13Ap     0.152215    14Ap     0.152215    15Ap     0.172028  
      16Ap     0.175910    17Ap     0.233723    18Ap     0.233725  
       7App    0.323457    19Ap     0.352446    20Ap     0.367500  
      21Ap     0.435509    22Ap     0.435524     8App    0.449175  
       9App    0.449189    23Ap     0.493066    24Ap     0.493071  
      25Ap     0.779216    10App    0.856764    26Ap     0.861851  
      27Ap     0.861869    28Ap     0.988758    29Ap     0.988764  
      30Ap     1.015492    11App    1.028210    12App    1.028268  
      31Ap     1.050194    13App    1.180346    32Ap     1.275733  
      14App    1.289784    15App    1.289804    33Ap     1.348495  
      34Ap     1.348514    35Ap     1.530746    36Ap     1.530753  
      37Ap     1.836191    16App    2.107557    17App    2.107583  
      38Ap     2.198585    39Ap     2.198628    18App    2.240406  
      19App    2.315529    40Ap     2.480226    41Ap     2.615044  
      42Ap     2.615060    20App    2.852012    21App    2.852056  
      43Ap     2.879740    44Ap     2.879744    45Ap     3.144852  
      46Ap     4.536857    47Ap     4.824850    48Ap     4.824854  

    Final Occupation by Irrep:
             Ap   App 
    DOCC [     9,    3 ]

  @RHF Final Energy:  -117.05931857431359

   => Energetics <=

    Nuclear Repulsion Energy =             75.2814648090140253
    One-Electron Energy =                -305.4958535906273482
    Two-Electron Energy =                 113.1550702072997154
    Total Energy =                       -117.0593185743135933

Computation Completed


Properties will be evaluated at   0.000000,   0.000000,   0.000000 [a0]

Properties computed using the SCF density matrix

  Nuclear Dipole Moment: [e a0]
     X:    -0.0002      Y:    -0.0002      Z:     0.0000

  Electronic Dipole Moment: [e a0]
     X:     0.0002      Y:     0.0001      Z:     0.0000

  Dipole Moment: [e a0]
     X:    -0.0000      Y:    -0.0000      Z:     0.0000     Total:     0.0000

  Dipole Moment: [D]
     X:    -0.0001      Y:    -0.0001      Z:     0.0000     Total:     0.0001


*** tstop() called on atlantis at Tue Apr 19 15:41:50 2022
Module time:
	user time   =       0.67 seconds =       0.01 minutes
	system time =       0.00 seconds =       0.00 minutes
	total time  =          1 seconds =       0.02 minutes
Total time:
	user time   =       2.93 seconds =       0.05 minutes
	system time =       0.61 seconds =       0.01 minutes
	total time  =          4 seconds =       0.07 minutes
 MINTS: Wrapper to libmints.
   by Justin Turney

   Calculation information:
      Number of threads:                 1
      Number of atoms:                   9
      Number of AO shells:              36
      Number of SO shells:              30
      Number of primitives:             75
      Number of atomic orbitals:        69
      Number of basis functions:        69

      Number of irreps:                  2
      Integral cutoff                 0.00e+00
      Number of functions per irrep: [  48   21 ]

 OEINTS: Overlap, kinetic, potential, dipole, and quadrupole integrals
         stored in file 35.

      Computing two-electron integrals...done
      Computed 1482286 non-zero two-electron integrals.
        Stored in file 33.


*** tstart() called on atlantis
*** at Tue Apr 19 15:41:50 2022


	Wfn Parameters:
	--------------------
	Wavefunction         = CCSD
	Number of irreps     = 2
	Number of MOs        = 69
	Number of active MOs = 69
	AO-Basis             = NONE
	Semicanonical        = false
	Reference            = RHF
	Print Level          = 1

	IRREP	# MOs	# FZDC	# DOCC	# SOCC	# VIRT	# FZVR
	-----	-----	------	------	------	------	------
	 Ap	   48	    0	    9	    0	    39	    0
	 App	   21	    0	    3	    0	    18	    0
	Transforming integrals...
	IWL integrals will be deleted.
	(OO|OO)...
	Presorting SO-basis two-electron integrals.
	Sorting File: SO Ints (nn|nn) nbuckets = 1
	Transforming the one-electron integrals and constructing Fock matrices
	Starting first half-transformation.
	Sorting half-transformed integrals.
	First half integral transformation complete.
	Starting second half-transformation.
	Two-electron integral transformation complete.
	(OO|OV)...
	Starting second half-transformation.
	Two-electron integral transformation complete.
	(OO|VV)...
	Starting second half-transformation.
	Two-electron integral transformation complete.
	(OV|OO)...
	Starting first half-transformation.
	Sorting half-transformed integrals.
	First half integral transformation complete.
	Starting second half-transformation.
	Two-electron integral transformation complete.
	(OV|OV)...
	Starting second half-transformation.
	Two-electron integral transformation complete.
	(OV|VV)...
	Starting second half-transformation.
	Two-electron integral transformation complete.
	(VV|OO)...
	Starting first half-transformation.
	Sorting half-transformed integrals.
	First half integral transformation complete.
	Starting second half-transformation.
	Two-electron integral transformation complete.
	(VV|OV)...
	Starting second half-transformation.
	Two-electron integral transformation complete.
	(VV|VV)...
	Starting second half-transformation.
	Two-electron integral transformation complete.
	Frozen core energy     =      0.00000000000000

	Size of irrep 0 of <ab|cd> integrals:      3.404 (MW) /     27.232 (MB)
	Size of irrep 1 of <ab|cd> integrals:      1.971 (MW) /     15.770 (MB)
	Total:                                     5.375 (MW) /     43.002 (MB)

	Size of irrep 0 of <ia|bc> integrals:      0.747 (MW) /      5.978 (MB)
	Size of irrep 1 of <ia|bc> integrals:      0.392 (MW) /      3.134 (MB)
	Total:                                     1.139 (MW) /      9.112 (MB)

	Size of irrep 0 of tijab amplitudes:       0.166 (MW) /      1.328 (MB)
	Size of irrep 1 of tijab amplitudes:       0.076 (MW) /      0.607 (MB)
	Total:                                     0.242 (MW) /      1.935 (MB)

	Nuclear Rep. energy          =     75.28146480901403
	SCF energy                   =   -117.05931857431359
	One-electron energy          =   -305.49585359328694
	Two-electron energy          =    113.15507020995784
	Reference energy             =   -117.05931857431507

*** tstop() called on atlantis at Tue Apr 19 15:41:50 2022
Module time:
	user time   =       0.41 seconds =       0.01 minutes
	system time =       0.12 seconds =       0.00 minutes
	total time  =          0 seconds =       0.00 minutes
Total time:
	user time   =       3.55 seconds =       0.06 minutes
	system time =       0.74 seconds =       0.01 minutes
	total time  =          4 seconds =       0.07 minutes
            **************************
            *                        *
            *        CCENERGY        *
            *                        *
            **************************

    Nuclear Rep. energy (wfn)     =   75.281464809014025
    SCF energy          (wfn)     = -117.059318574313593
    Reference energy    (file100) = -117.059318574315071

    Input parameters:
    -----------------
    Wave function   =     CCSD
    Reference wfn   =     RHF
    Brueckner       =     No
    Memory (Mbytes) =     524.3
    Maxiter         =     50
    R_Convergence   =     1.0e-07
    E_Convergence   =     1.0e-08
    Restart         =     Yes
    DIIS            =     Yes
    AO Basis        =     NONE
    ABCD            =     NEW
    Cache Level     =     2
    Cache Type      =     LOW
    Print Level     =     1
    Num. of threads =     1
    # Amps to Print =     10
    Print MP2 Amps? =     No
    Analyze T2 Amps =     No
    Print Pair Ener =     No
    Local CC        =     No
    SCS-MP2         =     False
    SCSN-MP2        =     False
    SCS-CCSD        =     False

    Using old T1 amplitudes.
    Using old T2 amplitudes.

MP2 correlation energy -0.4098385068157157
                Solving CC Amplitude Equations
                ------------------------------
  Iter             Energy              RMS        T1Diag      D1Diag    New D1Diag    D2Diag
  ----     ---------------------    ---------   ----------  ----------  ----------   --------
     0        -0.436521114401865    0.000e+00    0.007524    0.016765    0.016765    0.146886
     1        -0.444189657922157    2.855e-02    0.007443    0.016700    0.016700    0.147052
     2        -0.444129980396464    2.528e-03    0.007521    0.016788    0.016788    0.146890
     3        -0.444197576449034    3.514e-04    0.007522    0.016767    0.016767    0.146895
     4        -0.444197227623900    8.528e-05    0.007524    0.016767    0.016767    0.146890
     5        -0.444196681239341    2.972e-05    0.007524    0.016765    0.016765    0.146887
     6        -0.444196088815431    7.880e-06    0.007523    0.016765    0.016765    0.146886
     7        -0.444195912976938    1.952e-06    0.007524    0.016765    0.016765    0.146886
     8        -0.444195912550678    5.649e-07    0.007524    0.016765    0.016765    0.146886
     9        -0.444195910126589    1.749e-07    0.007524    0.016765    0.016765    0.146886
    10        -0.444195909202496    5.761e-08    0.007524    0.016765    0.016765    0.146886

    Iterations converged.


    Largest TIA Amplitudes:
              9  42         0.0138432253
              9  48         0.0089932621
             10  47         0.0079867629
             11  46         0.0079865778
              7  28        -0.0076564114
              8  29         0.0076562117
              6  10         0.0068584450
              8  16        -0.0065011198
              7  17         0.0065010178
              6  22         0.0060841815

    Largest TIjAb Amplitudes:
      7   7   9   9        -0.0440313363
      8   8   9   9        -0.0440298886
     11  11  43  43        -0.0200309747
     10  10  44  44        -0.0200299656
     11  11  42  42        -0.0188248431
     10  10  42  42        -0.0188232652
      9   9  42  42        -0.0178465014
      8   8   9  20        -0.0174761126
      8   8  20   9        -0.0174761126
      7   7   9  20        -0.0174723706

    SCF energy       (wfn)                    = -117.059318574313593
    Reference energy (file100)                = -117.059318574315071

    Opposite-spin MP2 correlation energy      =   -0.312595246200536
    Same-spin MP2 correlation energy          =   -0.097243260615179
    MP2 correlation energy                    =   -0.409838506815716
      * MP2 total energy                      = -117.469157081130788

    Opposite-spin CCSD correlation energy     =   -0.354535816703620
    Same-spin CCSD correlation energy         =   -0.089660092498877
    CCSD correlation energy                   =   -0.444195909202496
      * CCSD total energy                     = -117.503514483517563


			**************************
			*                        *
			*         CCHBAR         *
			*                        *
			**************************


			**************************
			*        CCLAMBDA        *
			**************************


	Nuclear Rep. energy (wfn)     =   75.281464809014025
	Reference           (wfn)     =                    0
	SCF energy          (wfn)     = -117.059318574313593
	Reference energy    (CC_INFO) = -117.059318574315071
	CCSD energy         (CC_INFO) =   -0.444195909202496
	Total CCSD energy   (CC_INFO) = -117.503514483517563

	Input parameters:
	-----------------
	Maxiter           =     50
	Convergence       = 1.0e-07
	Restart           =     No
	Cache Level       =     2
	Model III         =     No
	DIIS              =     Yes
	AO Basis          =     No
	ABCD              =     NEW
	Local CC          =     No
	Parameters for left-handed eigenvectors:
	    Irr   Root  Ground-State?    EOM energy        R0
	  1   0     0        Yes       0.0000000000   1.0000000000
	Labels for eigenvector 1:
	LIA 0 -1, Lia 0 -1, LIJAB 0 -1, Lijab 0 -1, LIjAb 0 -1, 2LIjAb - LIjbA 0 -1
	Symmetry of left-hand state: Ap
	Symmetry of left-hand eigenvector: Ap

	          Solving Lambda Equations
	          ------------------------
	Iter     PseudoEnergy or Norm         RMS  
	----     ---------------------     --------
	   0        -0.444381594441794    0.000e+00
	   1        -0.434558088240142    1.732e-02
	   2        -0.432819904976601    3.029e-03
	   3        -0.432552444307246    8.069e-04
	   4        -0.432522314875259    2.115e-04
	   5        -0.432523819854662    5.028e-05
	   6        -0.432523031035080    1.310e-05
	   7        -0.432522724320933    3.835e-06
	   8        -0.432522781821984    1.025e-06
	   9        -0.432522780720579    3.520e-07
	  10        -0.432522779151597    1.288e-07
	  11        -0.432522778007093    3.417e-08

	Largest LIA Amplitudes:
	          9  42         0.0093961886
	          7  28        -0.0067669114
	          8  29         0.0067667087
	          9  48         0.0061864874
	          6   2        -0.0058861901
	          8   4        -0.0057977238
	          7   3        -0.0057974436
	         10  47         0.0054345873
	         11  46         0.0054345435
	         11  41        -0.0045158439

	Largest LIjAb Amplitudes:
	  7   7   9   9        -0.0420043874
	  8   8   9   9        -0.0420029915
	 11  11  43  43        -0.0196465767
	 10  10  44  44        -0.0196456191
	 11  11  42  42        -0.0182382341
	 10  10  42  42        -0.0182367173
	  9   9  42  42        -0.0175522956
	  8   8   9  20        -0.0166289637
	  8   8  20   9        -0.0166289637
	  7   7   9  20        -0.0166253748

	Iterations converged.

	Overlap <L|e^T> =        0.83404011287

			**************************
			*                        *
			*        CCDENSITY       *
			*                        *
			**************************


	Input parameters:
	-----------------
	Wave function    =   CCSD
	Reference wfn    =   RHF
	Dertype          = 1
	Tolerance        = 1.0e-14
	Cache Level      = 2
	AO Basis         = No
	OPDM Only        = No
	Relax OPDM       = Yes
	Compute Xi       = No
	Use Zeta         = No
	Xi connected     = Yes
	Compute NO       = No

	Nuclear Rep. energy (wfn)     =   75.281464809014025
	SCF energy          (wfn)     = -117.059318574313593
	Reference energy    (file100) = -117.059318574315071
	CCSD energy         (CC_INFO) =   -0.444195909202496
	Total CCSD energy   (CC_INFO) = -117.503514483517563
	Number of States = 1

	Ground?  State     EOM Energy       R0
	  Yes     0 Ap    0.0000000000   1.00000000

	Virial Theorem Data:
	--------------------
	Kinetic energy (ref)   =  116.771359902879098
	Kinetic energy (corr)  =    0.523274553399079
	Kinetic energy (total) =  117.294634456278175
	-V/T (ref)             =    2.002466004264020
	-V/T (corr)            =    1.848877336604837
	-V/T (total)           =    2.001780814853191
  Cartesian Displacement SALCs
  By SALC:
  Number of SALCs: 15, nirreps: A'
  Project out translations: False
  Project out rotations: False
	irrep = 0, ncomponent = 1
		0: atom 0, direction x, coef 1.000000
	irrep = 0, ncomponent = 1
		0: atom 0, direction y, coef 1.000000
	irrep = 0, ncomponent = 1
		0: atom 1, direction x, coef 1.000000
	irrep = 0, ncomponent = 1
		0: atom 1, direction y, coef 1.000000
	irrep = 0, ncomponent = 1
		0: atom 2, direction x, coef 1.000000
	irrep = 0, ncomponent = 1
		0: atom 2, direction y, coef 1.000000
	irrep = 0, ncomponent = 2
		0: atom 3, direction x, coef 0.707107
		1: atom 4, direction x, coef 0.707107
	irrep = 0, ncomponent = 2
		0: atom 3, direction y, coef 0.707107
		1: atom 4, direction y, coef 0.707107
	irrep = 0, ncomponent = 2
		0: atom 3, direction z, coef 0.707107
		1: atom 4, direction z, coef -0.707107
	irrep = 0, ncomponent = 2
		0: atom 5, direction x, coef 0.707107
		1: atom 6, direction x, coef 0.707107
	irrep = 0, ncomponent = 2
		0: atom 5, direction y, coef 0.707107
		1: atom 6, direction y, coef 0.707107
	irrep = 0, ncomponent = 2
		0: atom 5, direction z, coef 0.707107
		1: atom 6, direction z, coef -0.707107
	irrep = 0, ncomponent = 2
		0: atom 7, direction x, coef 0.707107
		1: atom 8, direction x, coef 0.707107
	irrep = 0, ncomponent = 2
		0: atom 7, direction y, coef 0.707107
		1: atom 8, direction y, coef 0.707107
	irrep = 0, ncomponent = 2
		0: atom 7, direction z, coef 0.707107
		1: atom 8, direction z, coef -0.707107

  By Atomic Center:
  Number of atomic centers: 9
   Atomic Center 0:
	x component, size = 1
		0: salc 0, irrep 0, coef 1.000000
	y component, size = 1
		0: salc 1, irrep 0, coef 1.000000
	z component, size = 0
   Atomic Center 1:
	x component, size = 1
		0: salc 2, irrep 0, coef 1.000000
	y component, size = 1
		0: salc 3, irrep 0, coef 1.000000
	z component, size = 0
   Atomic Center 2:
	x component, size = 1
		0: salc 4, irrep 0, coef 1.000000
	y component, size = 1
		0: salc 5, irrep 0, coef 1.000000
	z component, size = 0
   Atomic Center 3:
	x component, size = 1
		0: salc 6, irrep 0, coef 0.707107
	y component, size = 1
		0: salc 7, irrep 0, coef 0.707107
	z component, size = 1
		0: salc 8, irrep 0, coef 0.707107
   Atomic Center 4:
	x component, size = 1
		0: salc 6, irrep 0, coef 0.707107
	y component, size = 1
		0: salc 7, irrep 0, coef 0.707107
	z component, size = 1
		0: salc 8, irrep 0, coef -0.707107
   Atomic Center 5:
	x component, size = 1
		0: salc 9, irrep 0, coef 0.707107
	y component, size = 1
		0: salc 10, irrep 0, coef 0.707107
	z component, size = 1
		0: salc 11, irrep 0, coef 0.707107
   Atomic Center 6:
	x component, size = 1
		0: salc 9, irrep 0, coef 0.707107
	y component, size = 1
		0: salc 10, irrep 0, coef 0.707107
	z component, size = 1
		0: salc 11, irrep 0, coef -0.707107
   Atomic Center 7:
	x component, size = 1
		0: salc 12, irrep 0, coef 0.707107
	y component, size = 1
		0: salc 13, irrep 0, coef 0.707107
	z component, size = 1
		0: salc 14, irrep 0, coef 0.707107
   Atomic Center 8:
	x component, size = 1
		0: salc 12, irrep 0, coef 0.707107
	y component, size = 1
		0: salc 13, irrep 0, coef 0.707107
	z component, size = 1
		0: salc 14, irrep 0, coef -0.707107

    Molecular point group: cs
    Full point group: Cs

    Geometry (in Bohr), charge = 0, multiplicity = 1:

       Center              X                  Y                   Z       
    ------------   -----------------  -----------------  -----------------
         C            0.607607306914     1.536841428687     0.000000000000
         C           -1.634703919032    -0.242203437603     0.000000000000
         C            1.027126506766    -1.294610814132     0.000000000000
         H            1.016581834986     2.571334201546    -1.739285028610
         H            1.016581834986     2.571334201546     1.739285028610
         H           -2.735223722715    -0.405324596752     1.739190542304
         H           -2.735223722715    -0.405324596752    -1.739190542304
         H            1.718463912503    -2.166171400454    -1.739247234088
         H            1.718463912503    -2.166171400454     1.739247234088

	Presorting MO-basis TPDM.
	Sorting File: MO TPDM (AA|AA) nbuckets = 1
	Starting first half-transformation.
	Sorting half-transformed TPDM.
	First half integral transformation complete.


  -Nuclear Repulsion Energy 1st Derivatives:
     Atom            X                  Y                   Z
    ------   -----------------  -----------------  -----------------
       1       -2.592111453938    -6.556100075531     0.000000000000
       2        6.973669949172     1.033154087036     0.000000000000
       3       -4.381860927033     5.522668221185     0.000000000000
       4       -0.529292910653    -1.338801441551     1.575980406544
       5       -0.529292910653    -1.338801441551    -1.575980406544
       6        1.424171732267     0.211061483034    -1.575901173652
       7        1.424171732267     0.211061483034     1.575901173652
       8       -0.894727605715     1.127878842172     1.575946927528
       9       -0.894727605715     1.127878842172    -1.575946927528


  -Core Hamiltonian Gradient:
     Atom            X                  Y                   Z
    ------   -----------------  -----------------  -----------------
       1        4.706312687609    11.903465431644     0.000000000000
       2      -12.660786245355    -1.875578859205     0.000000000000
       3        7.955815938064   -10.026686394392     0.000000000000
       4        1.208332287854     3.056479306067    -4.147269012688
       5        1.208332287854     3.056479306067     4.147269012688
       6       -3.251590548335    -0.481972313166     4.146842386368
       7       -3.251590548335    -0.481972313166    -4.146842386368
       8        2.042587070322    -2.575107081925    -4.147092038301
       9        2.042587070322    -2.575107081925     4.147092038301


  -Lagrangian contribution to gradient:
     Atom            X                  Y                   Z
    ------   -----------------  -----------------  -----------------
       1       -0.006148758913    -0.015544353522     0.000000000000
       2        0.016482312977     0.002429874575     0.000000000000
       3       -0.010394751887     0.013060341040     0.000000000000
       4       -0.035130493550    -0.088866453090     0.165345271922
       5       -0.035130493550    -0.088866453090    -0.165345271922
       6        0.094545565391     0.014017430159    -0.165323597925
       7        0.094545565391     0.014017430159     0.165323597925
       8       -0.059384472929     0.074876091885     0.165336135122
       9       -0.059384472929     0.074876091885    -0.165336135122


  -Two-electron contribution to gradient:
     Atom            X                  Y                   Z
    ------   -----------------  -----------------  -----------------
       1       -2.106669876046    -5.328322267820     0.000000000000
       2        5.666938108964     0.839450534798     0.000000000000
       3       -3.561224286835     4.488022897064     0.000000000000
       4       -0.643447007975    -1.627639719573     2.402541698552
       5       -0.643447007975    -1.627639719573    -2.402541698552
       6        1.731618648691     0.256704799692    -2.402225660239
       7        1.731618648691     0.256704799692     2.402225660239
       8       -1.087693613757     1.371359337860     2.402411073982
       9       -1.087693613757     1.371359337860    -2.402411073982


  -Total gradient:
     Atom            X                  Y                   Z
    ------   -----------------  -----------------  -----------------
       1        0.001382598712     0.003498734771     0.000000000000
       2       -0.003695874242    -0.000544362796     0.000000000000
       3        0.002335972309    -0.002934935103     0.000000000000
       4        0.000461875677     0.001171691852    -0.003401635669
       5        0.000461875677     0.001171691852     0.003401635669
       6       -0.001254601986    -0.000188600280     0.003391954552
       7       -0.001254601986    -0.000188600280    -0.003391954552
       8        0.000781377921    -0.000992810008    -0.003397901669
       9        0.000781377921    -0.000992810008     0.003397901669


  Based on options and gradient (rms=2.12E-03), recommend projecting translations and projecting rotations.
hessian() will perform frequency computation by finite difference of analytic gradients.

         ----------------------------------------------------------
                                   FINDIF
                     R. A. King and Jonathon Misiewicz
         ---------------------------------------------------------

  Using finite-differences of gradients to determine vibrational frequencies and 
  normal modes.  Resulting frequencies are only valid at stationary points.
    Generating geometries for use with 3-point formula.
    Displacement size will be 5.00e-03.
    Number of atoms is 9.
    Number of irreps is 2.
    Number of SALCs is 21.
    Translations projected? 1. Rotations projected? 1.
    Index of SALCs per irrep:
     1 :  0  1  2  3  4  5  6  7  8  9  10  11 
     2 :  12  13  14  15  16  17  18  19  20 
    Number of SALCs per irrep:
     Irrep 1: 12
     Irrep 2: 9
    Number of geometries (including reference) is 34.
    Number of displacements per irrep:
      Irrep 1: 24
      Irrep 2: 9

  //>>>>>>>>>>>>>>>>>>>>>>>>>>>>>>>>>>>//
  //    Loading displacement 1 of 34   //
  //<<<<<<<<<<<<<<<<<<<<<<<<<<<<<<<<<<<//
gradient() will perform analytic gradient computation.

*** tstart() called on atlantis
*** at Tue Apr 19 15:41:55 2022

   => Loading Basis Set <=

    Name: 6-31+G*
    Role: ORBITAL
    Keyword: BASIS
    atoms 1-3 entry C          line   119 file /home/akrom/software/anaconda3/envs/ffpenv/share/psi4/basis/6-31pgs.gbs 
    atoms 4-9 entry H          line    46 file /home/akrom/software/anaconda3/envs/ffpenv/share/psi4/basis/6-31pgs.gbs 


         ---------------------------------------------------------
                                   SCF
               by Justin Turney, Rob Parrish, Andy Simmonett
                          and Daniel G. A. Smith
                              RHF Reference
                        1 Threads,    500 MiB Core
         ---------------------------------------------------------

  ==> Geometry <==

    Molecular point group: cs
    Full point group: Cs

    Geometry (in Angstrom), charge = 0, multiplicity = 1:

       Center              X                  Y                   Z               Mass       
    ------------   -----------------  -----------------  -----------------  -----------------
         C            0.321531939855     0.813261460475     0.000000000000    12.000000000000
         C           -0.865048060145    -0.128168539525     0.000000000000    12.000000000000
         C            0.543531939855    -0.685078539525     0.000000000000    12.000000000000
         H            0.537951939855     1.360691460475    -0.920390000000     1.007825032230
         H            0.537951939855     1.360691460475     0.920390000000     1.007825032230
         H           -1.447418060145    -0.214488539525     0.920340000000     1.007825032230
         H           -1.447418060145    -0.214488539525    -0.920340000000     1.007825032230
         H            0.909371939855    -1.146288539525    -0.920370000000     1.007825032230
         H            0.909371939855    -1.146288539525     0.920370000000     1.007825032230

  Running in cs symmetry.

  Rotational constants: A =      0.66472  B =      0.66470  C =      0.41647 [cm^-1]
  Rotational constants: A =  19927.70596  B =  19927.20236  C =  12485.44714 [MHz]
  Nuclear repulsion =   75.281464809014025

  Charge       = 0
  Multiplicity = 1
  Electrons    = 24
  Nalpha       = 12
  Nbeta        = 12

  ==> Algorithm <==

  SCF Algorithm Type is PK.
  DIIS enabled.
  MOM disabled.
  Fractional occupation disabled.
  Guess Type is SAD.
  Energy threshold   = 1.00e-10
  Density threshold  = 1.00e-10
  Integral threshold = 0.00e+00

  ==> Primary Basis <==

  Basis Set: 6-31+G*
    Blend: 6-31+G*
    Number of shells: 36
    Number of basis function: 69
    Number of Cartesian functions: 69
    Spherical Harmonics?: false
    Max angular momentum: 2

  ==> Pre-Iterations <==

   -------------------------------------------------------
    Irrep   Nso     Nmo     Nalpha   Nbeta   Ndocc  Nsocc
   -------------------------------------------------------
     A'        48      48       0       0       0       0
     A"        21      21       0       0       0       0
   -------------------------------------------------------
    Total      69      69      12      12      12       0
   -------------------------------------------------------

  ==> Integral Setup <==

  Using in-core PK algorithm.
   Calculation information:
      Number of atoms:                   9
      Number of AO shells:              36
      Number of primitives:             75
      Number of atomic orbitals:        69
      Number of basis functions:        69

      Integral cutoff                 1.00e-12
      Number of threads:                 1

  Performing in-core PK
  Using 5834640 doubles for integral storage.
  We computed 222105 shell quartets total.
  Whereas there are 222111 unique shell quartets.

  ==> DiskJK: Disk-Based J/K Matrices <==

    J tasked:                  Yes
    K tasked:                  Yes
    wK tasked:                  No
    Memory [MiB]:              375
    Schwarz Cutoff:          1E-12

    OpenMP threads:              1

  Minimum eigenvalue in the overlap matrix is 1.9505761385E-04.
  Using Symmetric Orthogonalization.

  SCF Guess: Superposition of Atomic Densities via on-the-fly atomic UHF.

  ==> Iterations <==

                        Total Energy        Delta E     RMS |[F,P]|

   @RHF iter SAD:  -116.53055562369207   -1.16531e+02   0.00000e+00 
   @RHF iter   1:  -116.95642029481289   -4.25865e-01   7.97537e-03 DIIS
   @RHF iter   2:  -117.03749524404263   -8.10749e-02   3.88534e-03 DIIS
   @RHF iter   3:  -117.05855291028811   -2.10577e-02   5.35664e-04 DIIS
   @RHF iter   4:  -117.05930201369172   -7.49103e-04   6.19963e-05 DIIS
   @RHF iter   5:  -117.05931777576838   -1.57621e-05   1.30736e-05 DIIS
   @RHF iter   6:  -117.05931854554542   -7.69777e-07   2.43859e-06 DIIS
   @RHF iter   7:  -117.05931857400942   -2.84640e-08   2.73977e-07 DIIS
   @RHF iter   8:  -117.05931857431014   -3.00716e-10   3.13926e-08 DIIS
   @RHF iter   9:  -117.05931857431376   -3.62377e-12   6.04133e-09 DIIS
   @RHF iter  10:  -117.05931857431375    1.42109e-14   1.15737e-09 DIIS
   @RHF iter  11:  -117.05931857431364    1.13687e-13   3.87042e-10 DIIS
   @RHF iter  12:  -117.05931857431376   -1.27898e-13   2.80586e-11 DIIS
  Energy and wave function converged.


  ==> Post-Iterations <==

    Orbital Energies [Eh]
    ---------------------

    Doubly Occupied:                                                      

       1Ap   -11.230189     2Ap   -11.229239     3Ap   -11.229234  
       4Ap    -1.127188     5Ap    -0.815254     6Ap    -0.815248  
       1App   -0.664527     7Ap    -0.623530     2App   -0.511976  
       3App   -0.511960     8Ap    -0.417259     9Ap    -0.417252  

    Virtual:                                                              

      10Ap     0.086306    11Ap     0.086307    12Ap     0.096014  
       4App    0.114103     5App    0.146696     6App    0.146699  
      13Ap     0.152215    14Ap     0.152215    15Ap     0.172028  
      16Ap     0.175910    17Ap     0.233723    18Ap     0.233725  
       7App    0.323457    19Ap     0.352446    20Ap     0.367500  
      21Ap     0.435509    22Ap     0.435524     8App    0.449175  
       9App    0.449189    23Ap     0.493066    24Ap     0.493071  
      25Ap     0.779216    10App    0.856764    26Ap     0.861851  
      27Ap     0.861869    28Ap     0.988758    29Ap     0.988764  
      30Ap     1.015492    11App    1.028210    12App    1.028268  
      31Ap     1.050194    13App    1.180346    32Ap     1.275733  
      14App    1.289784    15App    1.289804    33Ap     1.348495  
      34Ap     1.348514    35Ap     1.530746    36Ap     1.530753  
      37Ap     1.836191    16App    2.107557    17App    2.107583  
      38Ap     2.198585    39Ap     2.198628    18App    2.240406  
      19App    2.315529    40Ap     2.480226    41Ap     2.615044  
      42Ap     2.615060    20App    2.852012    21App    2.852056  
      43Ap     2.879740    44Ap     2.879744    45Ap     3.144852  
      46Ap     4.536857    47Ap     4.824850    48Ap     4.824854  

    Final Occupation by Irrep:
             Ap   App 
    DOCC [     9,    3 ]

  @RHF Final Energy:  -117.05931857431376

   => Energetics <=

    Nuclear Repulsion Energy =             75.2814648090140253
    One-Electron Energy =                -305.4958535906278030
    Two-Electron Energy =                 113.1550702072999997
    Total Energy =                       -117.0593185743137639

Computation Completed


Properties will be evaluated at   0.000000,   0.000000,   0.000000 [a0]

Properties computed using the SCF density matrix

  Nuclear Dipole Moment: [e a0]
     X:    -0.0002      Y:    -0.0002      Z:     0.0000

  Electronic Dipole Moment: [e a0]
     X:     0.0002      Y:     0.0001      Z:     0.0000

  Dipole Moment: [e a0]
     X:    -0.0000      Y:    -0.0000      Z:     0.0000     Total:     0.0000

  Dipole Moment: [D]
     X:    -0.0001      Y:    -0.0001      Z:     0.0000     Total:     0.0001


*** tstop() called on atlantis at Tue Apr 19 15:41:56 2022
Module time:
	user time   =       0.66 seconds =       0.01 minutes
	system time =       0.00 seconds =       0.00 minutes
	total time  =          1 seconds =       0.02 minutes
Total time:
	user time   =       7.91 seconds =       0.13 minutes
	system time =       1.88 seconds =       0.03 minutes
	total time  =         10 seconds =       0.17 minutes
 MINTS: Wrapper to libmints.
   by Justin Turney

   Calculation information:
      Number of threads:                 1
      Number of atoms:                   9
      Number of AO shells:              36
      Number of SO shells:              30
      Number of primitives:             75
      Number of atomic orbitals:        69
      Number of basis functions:        69

      Number of irreps:                  2
      Integral cutoff                 0.00e+00
      Number of functions per irrep: [  48   21 ]

 OEINTS: Overlap, kinetic, potential, dipole, and quadrupole integrals
         stored in file 35.

      Computing two-electron integrals...done
      Computed 1482464 non-zero two-electron integrals.
        Stored in file 33.


*** tstart() called on atlantis
*** at Tue Apr 19 15:41:56 2022


	Wfn Parameters:
	--------------------
	Wavefunction         = CCSD
	Number of irreps     = 2
	Number of MOs        = 69
	Number of active MOs = 69
	AO-Basis             = NONE
	Semicanonical        = false
	Reference            = RHF
	Print Level          = 1

	IRREP	# MOs	# FZDC	# DOCC	# SOCC	# VIRT	# FZVR
	-----	-----	------	------	------	------	------
	 Ap	   48	    0	    9	    0	    39	    0
	 App	   21	    0	    3	    0	    18	    0
	Transforming integrals...
	IWL integrals will be deleted.
	(OO|OO)...
	Presorting SO-basis two-electron integrals.
	Sorting File: SO Ints (nn|nn) nbuckets = 1
	Transforming the one-electron integrals and constructing Fock matrices
	Starting first half-transformation.
	Sorting half-transformed integrals.
	First half integral transformation complete.
	Starting second half-transformation.
	Two-electron integral transformation complete.
	(OO|OV)...
	Starting second half-transformation.
	Two-electron integral transformation complete.
	(OO|VV)...
	Starting second half-transformation.
	Two-electron integral transformation complete.
	(OV|OO)...
	Starting first half-transformation.
	Sorting half-transformed integrals.
	First half integral transformation complete.
	Starting second half-transformation.
	Two-electron integral transformation complete.
	(OV|OV)...
	Starting second half-transformation.
	Two-electron integral transformation complete.
	(OV|VV)...
	Starting second half-transformation.
	Two-electron integral transformation complete.
	(VV|OO)...
	Starting first half-transformation.
	Sorting half-transformed integrals.
	First half integral transformation complete.
	Starting second half-transformation.
	Two-electron integral transformation complete.
	(VV|OV)...
	Starting second half-transformation.
	Two-electron integral transformation complete.
	(VV|VV)...
	Starting second half-transformation.
	Two-electron integral transformation complete.
	Frozen core energy     =      0.00000000000000

	Size of irrep 0 of <ab|cd> integrals:      3.404 (MW) /     27.232 (MB)
	Size of irrep 1 of <ab|cd> integrals:      1.971 (MW) /     15.770 (MB)
	Total:                                     5.375 (MW) /     43.002 (MB)

	Size of irrep 0 of <ia|bc> integrals:      0.747 (MW) /      5.978 (MB)
	Size of irrep 1 of <ia|bc> integrals:      0.392 (MW) /      3.134 (MB)
	Total:                                     1.139 (MW) /      9.112 (MB)

	Size of irrep 0 of tijab amplitudes:       0.166 (MW) /      1.328 (MB)
	Size of irrep 1 of tijab amplitudes:       0.076 (MW) /      0.607 (MB)
	Total:                                     0.242 (MW) /      1.935 (MB)

	Nuclear Rep. energy          =     75.28146480901403
	SCF energy                   =   -117.05931857431376
	One-electron energy          =   -305.49585359328626
	Two-electron energy          =    113.15507020995726
	Reference energy             =   -117.05931857431496

*** tstop() called on atlantis at Tue Apr 19 15:41:57 2022
Module time:
	user time   =       0.40 seconds =       0.01 minutes
	system time =       0.15 seconds =       0.00 minutes
	total time  =          1 seconds =       0.02 minutes
Total time:
	user time   =       8.52 seconds =       0.14 minutes
	system time =       2.04 seconds =       0.03 minutes
	total time  =         11 seconds =       0.18 minutes
            **************************
            *                        *
            *        CCENERGY        *
            *                        *
            **************************

    Nuclear Rep. energy (wfn)     =   75.281464809014025
    SCF energy          (wfn)     = -117.059318574313764
    Reference energy    (file100) = -117.059318574314958

    Input parameters:
    -----------------
    Wave function   =     CCSD
    Reference wfn   =     RHF
    Brueckner       =     No
    Memory (Mbytes) =     524.3
    Maxiter         =     50
    R_Convergence   =     1.0e-07
    E_Convergence   =     1.0e-08
    Restart         =     Yes
    DIIS            =     Yes
    AO Basis        =     NONE
    ABCD            =     NEW
    Cache Level     =     2
    Cache Type      =     LOW
    Print Level     =     1
    Num. of threads =     1
    # Amps to Print =     10
    Print MP2 Amps? =     No
    Analyze T2 Amps =     No
    Print Pair Ener =     No
    Local CC        =     No
    SCS-MP2         =     False
    SCSN-MP2        =     False
    SCS-CCSD        =     False

MP2 correlation energy -0.4098385068157183
                Solving CC Amplitude Equations
                ------------------------------
  Iter             Energy              RMS        T1Diag      D1Diag    New D1Diag    D2Diag
  ----     ---------------------    ---------   ----------  ----------  ----------   --------
     0        -0.409838506815718    0.000e+00    0.000000    0.000000    0.000000    0.130405
     1        -0.430021864126343    5.890e-02    0.006313    0.014546    0.014546    0.137862
     2        -0.442887772136914    1.932e-02    0.007057    0.015702    0.015702    0.144926
     3        -0.444106753625184    5.193e-03    0.007532    0.016831    0.016831    0.146387
     4        -0.444163448983089    1.350e-03    0.007529    0.016793    0.016793    0.146793
     5        -0.444192975265991    3.471e-04    0.007525    0.016773    0.016773    0.146873
     6        -0.444195887462382    1.068e-04    0.007524    0.016768    0.016768    0.146886
     7        -0.444195536531158    2.078e-05    0.007524    0.016765    0.016765    0.146886
     8        -0.444195896106986    5.945e-06    0.007524    0.016765    0.016765    0.146886
     9        -0.444195926736842    1.691e-06    0.007524    0.016765    0.016765    0.146886
    10        -0.444195897641873    4.419e-07    0.007524    0.016765    0.016765    0.146886
    11        -0.444195907759252    1.153e-07    0.007524    0.016765    0.016765    0.146886
    12        -0.444195907639981    2.816e-08    0.007524    0.016765    0.016765    0.146886
    13        -0.444195908754324    8.367e-09    0.007524    0.016765    0.016765    0.146886

    Iterations converged.


    Largest TIA Amplitudes:
              9  42         0.0138432288
              9  48         0.0089932627
             10  47         0.0079867637
             11  46         0.0079865789
              7  28        -0.0076564108
              8  29         0.0076562109
              6  10         0.0068584457
              8  16        -0.0065011168
              7  17         0.0065010158
              6  22         0.0060841818

    Largest TIjAb Amplitudes:
      7   7   9   9        -0.0440313343
      8   8   9   9        -0.0440298912
     11  11  43  43        -0.0200309737
     10  10  44  44        -0.0200299652
     11  11  42  42        -0.0188248416
     10  10  42  42        -0.0188232645
      9   9  42  42        -0.0178465011
      8   8   9  20        -0.0174761131
      8   8  20   9        -0.0174761131
      7   7   9  20        -0.0174723699

    SCF energy       (wfn)                    = -117.059318574313764
    Reference energy (file100)                = -117.059318574314958

    Opposite-spin MP2 correlation energy      =   -0.312595246200536
    Same-spin MP2 correlation energy          =   -0.097243260615182
    MP2 correlation energy                    =   -0.409838506815718
      * MP2 total energy                      = -117.469157081130675

    Opposite-spin CCSD correlation energy     =   -0.354535815417988
    Same-spin CCSD correlation energy         =   -0.089660093336335
    CCSD correlation energy                   =   -0.444195908754324
      * CCSD total energy                     = -117.503514483069281


			**************************
			*                        *
			*         CCHBAR         *
			*                        *
			**************************


			**************************
			*        CCLAMBDA        *
			**************************


	Nuclear Rep. energy (wfn)     =   75.281464809014025
	Reference           (wfn)     =                    0
	SCF energy          (wfn)     = -117.059318574313764
	Reference energy    (CC_INFO) = -117.059318574314958
	CCSD energy         (CC_INFO) =   -0.444195908754324
	Total CCSD energy   (CC_INFO) = -117.503514483069281

	Input parameters:
	-----------------
	Maxiter           =     50
	Convergence       = 1.0e-07
	Restart           =     No
	Cache Level       =     2
	Model III         =     No
	DIIS              =     Yes
	AO Basis          =     No
	ABCD              =     NEW
	Local CC          =     No
	Parameters for left-handed eigenvectors:
	    Irr   Root  Ground-State?    EOM energy        R0
	  1   0     0        Yes       0.0000000000   1.0000000000
	Labels for eigenvector 1:
	LIA 0 -1, Lia 0 -1, LIJAB 0 -1, Lijab 0 -1, LIjAb 0 -1, 2LIjAb - LIjbA 0 -1
	Symmetry of left-hand state: Ap
	Symmetry of left-hand eigenvector: Ap

	          Solving Lambda Equations
	          ------------------------
	Iter     PseudoEnergy or Norm         RMS  
	----     ---------------------     --------
	   0        -0.444381593956680    3.417e-08
	   1        -0.434558088051306    1.732e-02
	   2        -0.432819904958886    3.029e-03
	   3        -0.432552444335419    8.069e-04
	   4        -0.432522314918255    2.115e-04
	   5        -0.432523819907403    5.028e-05
	   6        -0.432523031085677    1.310e-05
	   7        -0.432522724373986    3.835e-06
	   8        -0.432522781878390    1.025e-06
	   9        -0.432522780776648    3.520e-07
	  10        -0.432522779207944    1.288e-07
	  11        -0.432522778063498    3.417e-08

	Largest LIA Amplitudes:
	          9  42         0.0093961888
	          7  28        -0.0067669113
	          8  29         0.0067667086
	          9  48         0.0061864876
	          6   2        -0.0058861901
	          8   4        -0.0057977238
	          7   3        -0.0057974437
	         10  47         0.0054345874
	         11  46         0.0054345437
	         11  41        -0.0045158438

	Largest LIjAb Amplitudes:
	  7   7   9   9        -0.0420043873
	  8   8   9   9        -0.0420029916
	 11  11  43  43        -0.0196465767
	 10  10  44  44        -0.0196456191
	 11  11  42  42        -0.0182382341
	 10  10  42  42        -0.0182367173
	  9   9  42  42        -0.0175522956
	  8   8   9  20        -0.0166289637
	  8   8  20   9        -0.0166289637
	  7   7   9  20        -0.0166253748

	Iterations converged.

	Overlap <L|e^T> =        0.83404011326

			**************************
			*                        *
			*        CCDENSITY       *
			*                        *
			**************************


	Input parameters:
	-----------------
	Wave function    =   CCSD
	Reference wfn    =   RHF
	Dertype          = 1
	Tolerance        = 1.0e-14
	Cache Level      = 2
	AO Basis         = No
	OPDM Only        = No
	Relax OPDM       = Yes
	Compute Xi       = No
	Use Zeta         = No
	Xi connected     = Yes
	Compute NO       = No

	Nuclear Rep. energy (wfn)     =   75.281464809014025
	SCF energy          (wfn)     = -117.059318574313764
	Reference energy    (file100) = -117.059318574314958
	CCSD energy         (CC_INFO) =   -0.444195908754324
	Total CCSD energy   (CC_INFO) = -117.503514483069281
	Number of States = 1

	Ground?  State     EOM Energy       R0
	  Yes     0 Ap    0.0000000000   1.00000000

	Virial Theorem Data:
	--------------------
	Kinetic energy (ref)   =  116.771359902879453
	Kinetic energy (corr)  =    0.523274533329317
	Kinetic energy (total) =  117.294634436208767
	-V/T (ref)             =    2.002466004264016
	-V/T (corr)            =    1.848877368306351
	-V/T (total)           =    2.001780815020777
  Cartesian Displacement SALCs
  By SALC:
  Number of SALCs: 15, nirreps: A'
  Project out translations: False
  Project out rotations: False
	irrep = 0, ncomponent = 1
		0: atom 0, direction x, coef 1.000000
	irrep = 0, ncomponent = 1
		0: atom 0, direction y, coef 1.000000
	irrep = 0, ncomponent = 1
		0: atom 1, direction x, coef 1.000000
	irrep = 0, ncomponent = 1
		0: atom 1, direction y, coef 1.000000
	irrep = 0, ncomponent = 1
		0: atom 2, direction x, coef 1.000000
	irrep = 0, ncomponent = 1
		0: atom 2, direction y, coef 1.000000
	irrep = 0, ncomponent = 2
		0: atom 3, direction x, coef 0.707107
		1: atom 4, direction x, coef 0.707107
	irrep = 0, ncomponent = 2
		0: atom 3, direction y, coef 0.707107
		1: atom 4, direction y, coef 0.707107
	irrep = 0, ncomponent = 2
		0: atom 3, direction z, coef 0.707107
		1: atom 4, direction z, coef -0.707107
	irrep = 0, ncomponent = 2
		0: atom 5, direction x, coef 0.707107
		1: atom 6, direction x, coef 0.707107
	irrep = 0, ncomponent = 2
		0: atom 5, direction y, coef 0.707107
		1: atom 6, direction y, coef 0.707107
	irrep = 0, ncomponent = 2
		0: atom 5, direction z, coef 0.707107
		1: atom 6, direction z, coef -0.707107
	irrep = 0, ncomponent = 2
		0: atom 7, direction x, coef 0.707107
		1: atom 8, direction x, coef 0.707107
	irrep = 0, ncomponent = 2
		0: atom 7, direction y, coef 0.707107
		1: atom 8, direction y, coef 0.707107
	irrep = 0, ncomponent = 2
		0: atom 7, direction z, coef 0.707107
		1: atom 8, direction z, coef -0.707107

  By Atomic Center:
  Number of atomic centers: 9
   Atomic Center 0:
	x component, size = 1
		0: salc 0, irrep 0, coef 1.000000
	y component, size = 1
		0: salc 1, irrep 0, coef 1.000000
	z component, size = 0
   Atomic Center 1:
	x component, size = 1
		0: salc 2, irrep 0, coef 1.000000
	y component, size = 1
		0: salc 3, irrep 0, coef 1.000000
	z component, size = 0
   Atomic Center 2:
	x component, size = 1
		0: salc 4, irrep 0, coef 1.000000
	y component, size = 1
		0: salc 5, irrep 0, coef 1.000000
	z component, size = 0
   Atomic Center 3:
	x component, size = 1
		0: salc 6, irrep 0, coef 0.707107
	y component, size = 1
		0: salc 7, irrep 0, coef 0.707107
	z component, size = 1
		0: salc 8, irrep 0, coef 0.707107
   Atomic Center 4:
	x component, size = 1
		0: salc 6, irrep 0, coef 0.707107
	y component, size = 1
		0: salc 7, irrep 0, coef 0.707107
	z component, size = 1
		0: salc 8, irrep 0, coef -0.707107
   Atomic Center 5:
	x component, size = 1
		0: salc 9, irrep 0, coef 0.707107
	y component, size = 1
		0: salc 10, irrep 0, coef 0.707107
	z component, size = 1
		0: salc 11, irrep 0, coef 0.707107
   Atomic Center 6:
	x component, size = 1
		0: salc 9, irrep 0, coef 0.707107
	y component, size = 1
		0: salc 10, irrep 0, coef 0.707107
	z component, size = 1
		0: salc 11, irrep 0, coef -0.707107
   Atomic Center 7:
	x component, size = 1
		0: salc 12, irrep 0, coef 0.707107
	y component, size = 1
		0: salc 13, irrep 0, coef 0.707107
	z component, size = 1
		0: salc 14, irrep 0, coef 0.707107
   Atomic Center 8:
	x component, size = 1
		0: salc 12, irrep 0, coef 0.707107
	y component, size = 1
		0: salc 13, irrep 0, coef 0.707107
	z component, size = 1
		0: salc 14, irrep 0, coef -0.707107

    Molecular point group: cs
    Full point group: Cs

    Geometry (in Bohr), charge = 0, multiplicity = 1:

       Center              X                  Y                   Z       
    ------------   -----------------  -----------------  -----------------
         C            0.607607306914     1.536841428687     0.000000000000
         C           -1.634703919032    -0.242203437603     0.000000000000
         C            1.027126506766    -1.294610814132     0.000000000000
         H            1.016581834986     2.571334201546    -1.739285028610
         H            1.016581834986     2.571334201546     1.739285028610
         H           -2.735223722715    -0.405324596752     1.739190542304
         H           -2.735223722715    -0.405324596752    -1.739190542304
         H            1.718463912503    -2.166171400454    -1.739247234088
         H            1.718463912503    -2.166171400454     1.739247234088

	Presorting MO-basis TPDM.
	Sorting File: MO TPDM (AA|AA) nbuckets = 1
	Starting first half-transformation.
	Sorting half-transformed TPDM.
	First half integral transformation complete.


  -Nuclear Repulsion Energy 1st Derivatives:
     Atom            X                  Y                   Z
    ------   -----------------  -----------------  -----------------
       1       -2.592111453938    -6.556100075531     0.000000000000
       2        6.973669949172     1.033154087036     0.000000000000
       3       -4.381860927033     5.522668221185     0.000000000000
       4       -0.529292910653    -1.338801441551     1.575980406544
       5       -0.529292910653    -1.338801441551    -1.575980406544
       6        1.424171732267     0.211061483034    -1.575901173652
       7        1.424171732267     0.211061483034     1.575901173652
       8       -0.894727605715     1.127878842172     1.575946927528
       9       -0.894727605715     1.127878842172    -1.575946927528


  -Core Hamiltonian Gradient:
     Atom            X                  Y                   Z
    ------   -----------------  -----------------  -----------------
       1        4.706312702780    11.903465472244     0.000000000000
       2      -12.660786226814    -1.875578898851     0.000000000000
       3        7.955815898760   -10.026686409525     0.000000000000
       4        1.208332289947     3.056479310341    -4.147269015530
       5        1.208332289947     3.056479310341     4.147269015530
       6       -3.251590556851    -0.481972307893     4.146842396967
       7       -3.251590556851    -0.481972307893    -4.146842396967
       8        2.042587079541    -2.575107084382    -4.147092048917
       9        2.042587079541    -2.575107084382     4.147092048917


  -Lagrangian contribution to gradient:
     Atom            X                  Y                   Z
    ------   -----------------  -----------------  -----------------
       1       -0.006148759066    -0.015544354086     0.000000000000
       2        0.016482312827     0.002429875300     0.000000000000
       3       -0.010394751379     0.013060341396     0.000000000000
       4       -0.035130493623    -0.088866453240     0.165345272092
       5       -0.035130493623    -0.088866453240    -0.165345272092
       6        0.094545565617     0.014017429997    -0.165323598167
       7        0.094545565617     0.014017429997     0.165323598167
       8       -0.059384473185     0.074876091937     0.165336135364
       9       -0.059384473185     0.074876091937    -0.165336135364


  -Two-electron contribution to gradient:
     Atom            X                  Y                   Z
    ------   -----------------  -----------------  -----------------
       1       -2.106669890623    -5.328322306747     0.000000000000
       2        5.666938090523     0.839450572914     0.000000000000
       3       -3.561224248555     4.488022911223     0.000000000000
       4       -0.643447009921    -1.627639723528     2.402541701084
       5       -0.643447009921    -1.627639723528    -2.402541701084
       6        1.731618656783     0.256704794657    -2.402225670358
       7        1.731618656783     0.256704794657     2.402225670358
       8       -1.087693622535     1.371359340176     2.402411084117
       9       -1.087693622535     1.371359340176    -2.402411084117


  -Total gradient:
     Atom            X                  Y                   Z
    ------   -----------------  -----------------  -----------------
       1        0.001382599153     0.003498735880     0.000000000000
       2       -0.003695874292    -0.000544363600     0.000000000000
       3        0.002335971794    -0.002934935721     0.000000000000
       4        0.000461875751     0.001171692022    -0.003401635811
       5        0.000461875751     0.001171692022     0.003401635811
       6       -0.001254602184    -0.000188600205     0.003391954790
       7       -0.001254602184    -0.000188600205    -0.003391954790
       8        0.000781378106    -0.000992810096    -0.003397901908
       9        0.000781378106    -0.000992810096     0.003397901908


  //>>>>>>>>>>>>>>>>>>>>>>>>>>>>>>>>>>>//
  //    Loading displacement 2 of 34   //
  //<<<<<<<<<<<<<<<<<<<<<<<<<<<<<<<<<<<//
gradient() will perform analytic gradient computation.

*** tstart() called on atlantis
*** at Tue Apr 19 15:42:02 2022

   => Loading Basis Set <=

    Name: 6-31+G*
    Role: ORBITAL
    Keyword: BASIS
    atoms 1-3 entry C          line   119 file /home/akrom/software/anaconda3/envs/ffpenv/share/psi4/basis/6-31pgs.gbs 
    atoms 4-9 entry H          line    46 file /home/akrom/software/anaconda3/envs/ffpenv/share/psi4/basis/6-31pgs.gbs 


         ---------------------------------------------------------
                                   SCF
               by Justin Turney, Rob Parrish, Andy Simmonett
                          and Daniel G. A. Smith
                              RHF Reference
                        1 Threads,    500 MiB Core
         ---------------------------------------------------------

  ==> Geometry <==

    Molecular point group: cs
    Full point group: Cs

    Geometry (in Angstrom), charge = 0, multiplicity = 1:

       Center              X                  Y                   Z               Mass       
    ------------   -----------------  -----------------  -----------------  -----------------
         C            0.320981935461     0.813179232929     0.000000000000    12.000000000000
         C           -0.864778117207    -0.127947314912     0.000000000000    12.000000000000
         C            0.543659460418    -0.685217540638     0.000000000000    12.000000000000
         H            0.538602639069     1.360553886373    -0.920390000000     1.007825032230
         H            0.538602639069     1.360553886373     0.920390000000     1.007825032230
         H           -1.447170192407    -0.214118381478     0.920340000000     1.007825032230
         H           -1.447170192407    -0.214118381478    -0.920340000000     1.007825032230
[...]
       4       -0.035127454117    -0.088852226092     0.165339027612
       5       -0.035133541080    -0.088880686239    -0.165351557775
       6        0.094641669291     0.014047877834    -0.165398320590
       7        0.094449448431     0.013987023018     0.165248751455
       8       -0.059152354215     0.074909513504     0.165639609112
       9       -0.059614686217     0.074841791576    -0.165032535907


  -Two-electron contribution to gradient:
     Atom            X                  Y                   Z
    ------   -----------------  -----------------  -----------------
       1       -2.106667021196    -5.328329200356    -0.000277529349
       2        5.666943160098     0.839444915545     0.002984449746
       3       -3.561256767966     4.488046017556    -0.007902120573
       4       -0.643400547326    -1.627403513509     2.402494236137
       5       -0.643493420536    -1.627875909669    -2.402589320262
       6        1.732537687155     0.257279154631    -2.402399118853
       7        1.730699381273     0.256130946283     2.402050561172
       8       -1.083909192250     1.371816991344     2.405229396911
       9       -1.091453279251     1.370890598175    -2.399590554929


  -Total gradient:
     Atom            X                  Y                   Z
    ------   -----------------  -----------------  -----------------
       1        0.001382605107     0.003498809998     0.000004233805
       2       -0.003696422408    -0.000544563858     0.000446690979
       3        0.002336639505    -0.002937426175    -0.001256382241
       4        0.000459424861     0.001165735636    -0.003402825094
       5        0.000464318395     0.001177651866     0.003400444454
       6       -0.001075657419    -0.000185162342     0.003107303623
       7       -0.001432864407    -0.000191966522    -0.003675876505
       8        0.000411462555    -0.000626174799    -0.002707119469
       9        0.001150493811    -0.001356903804     0.004083530448


         ----------------------------------------------------------
                                   FINDIF
                     R. A. King and Jonathon Misiewicz
         ---------------------------------------------------------

  Computing second-derivative from gradients using projected, 
  symmetry-adapted, cartesian coordinates.

  34 gradients passed in, including the reference geometry.
  Generating complete list of displacements from unique ones.

    Operation 2 takes plus displacements of irrep A" to minus ones.

-------------------------------------------------------------


  ==> Harmonic Vibrational Analysis <==

  non-mass-weighted Hessian:       Symmetric? True   Hermitian? True   Lin Dep Dim?  6 (0)
  projection of translations (True) and rotations (True) removed 6 degrees of freedom (6)
  total projector:                 Symmetric? True   Hermitian? True   Lin Dep Dim?  6 (6)
  mass-weighted Hessian:           Symmetric? True   Hermitian? True   Lin Dep Dim?  6 (0)
  pre-proj  low-frequency mode:    0.0000i [cm^-1]
  pre-proj  low-frequency mode:    0.0000i [cm^-1]
  pre-proj  low-frequency mode:    0.0000  [cm^-1]
  pre-proj  low-frequency mode:    0.0000  [cm^-1]
  pre-proj  low-frequency mode:    0.0000  [cm^-1]
  pre-proj  low-frequency mode:    0.0000  [cm^-1]
  pre-proj  all modes:['0.0000i' '0.0000i' '0.0000' '0.0000' '0.0000' '0.0000' '797.6205'
 '797.6364' '899.6899' '899.7258' '902.5226' '1118.5574' '1118.5683'
 '1131.9896' '1193.9156' '1228.5478' '1250.9443' '1250.9454' '1515.6922'
 '1515.7123' '1570.2692' '3119.3397' '3119.3591' '3130.4802' '3198.2538'
 '3198.2635' '3217.6610']
  projected mass-weighted Hessian: Symmetric? True   Hermitian? True   Lin Dep Dim?  6 (6)
  post-proj low-frequency mode:    0.0000i [cm^-1] (TR)
  post-proj low-frequency mode:    0.0000i [cm^-1] (TR)
  post-proj low-frequency mode:    0.0000  [cm^-1] (TR)
  post-proj low-frequency mode:    0.0000  [cm^-1] (TR)
  post-proj low-frequency mode:    0.0000  [cm^-1] (TR)
  post-proj low-frequency mode:    0.0000  [cm^-1] (TR)
  post-proj  all modes:['0.0000i' '0.0000i' '0.0000' '0.0000' '0.0000' '0.0000' '797.6205'
 '797.6364' '899.6899' '899.7258' '902.5226' '1118.5574' '1118.5683'
 '1131.9896' '1193.9156' '1228.5478' '1250.9443' '1250.9454' '1515.6922'
 '1515.7123' '1570.2692' '3119.3397' '3119.3591' '3130.4802' '3198.2538'
 '3198.2635' '3217.6610']

  Vibration                       7                   8                   9           
  Freq [cm^-1]                 797.6205            797.6364            899.6899       
  Irrep                          App                 App                  Ap          
  Reduced mass [u]              1.0213              1.0213              3.7974        
  Force const [mDyne/A]         0.3828              0.3828              1.8110        
  Turning point v=0 [a0]        0.3844              0.3844              0.1877        
  RMS dev v=0 [a0 u^1/2]        0.2747              0.2747              0.2587        
  Char temp [K]               1147.5983           1147.6212           1294.4534       
  ----------------------------------------------------------------------------------
      1   C               -0.00 -0.00  0.03    0.00 -0.00 -0.01   -0.21  0.19  0.00   
      2   C                0.00 -0.00 -0.02   -0.00 -0.00 -0.02    0.29  0.09  0.00   
      3   C                0.00 -0.00 -0.01    0.00  0.00  0.03   -0.04 -0.29  0.00   
      4   H               -0.00 -0.33 -0.17    0.43 -0.08  0.05   -0.34  0.23 -0.01   
      5   H                0.00  0.33 -0.17   -0.43  0.08  0.05   -0.34  0.23  0.01   
      6   H                0.27 -0.27  0.13    0.17  0.35  0.13    0.24  0.11 -0.03   
      7   H               -0.27  0.27  0.13   -0.17 -0.35  0.13    0.24  0.11  0.03   
      8   H                0.39  0.21  0.04   -0.11  0.31 -0.17   -0.15 -0.33 -0.02   
      9   H               -0.39 -0.21  0.04    0.11 -0.31 -0.17   -0.15 -0.33  0.02   

  Vibration                       10                  11                  12          
  Freq [cm^-1]                 899.7258            902.5226           1118.5574       
  Irrep                           Ap                 App                  Ap          
  Reduced mass [u]              3.7975              1.0442              1.2540        
  Force const [mDyne/A]         1.8112              0.5011              0.9244        
  Turning point v=0 [a0]        0.1877              0.3574              0.2930        
  RMS dev v=0 [a0 u^1/2]        0.2587              0.2583              0.2320        
  Char temp [K]               1294.5051           1298.5290           1609.3550       
  ----------------------------------------------------------------------------------
      1   C               -0.19 -0.23 -0.00   -0.00  0.00 -0.03   -0.07  0.05  0.00   
      2   C               -0.09  0.26 -0.00    0.00 -0.00 -0.03    0.03 -0.03  0.00   
      3   C                0.28 -0.07 -0.00   -0.00 -0.00 -0.03   -0.09 -0.08 -0.00   
      4   H               -0.22 -0.18  0.03    0.13  0.33  0.20    0.35 -0.14 -0.01   
      5   H               -0.22 -0.18 -0.03   -0.13 -0.33  0.20    0.35 -0.14  0.01   
      6   H               -0.11  0.40  0.01    0.35  0.05  0.20   -0.03  0.18 -0.02   
      7   H               -0.11  0.40 -0.01   -0.35 -0.05  0.20   -0.03  0.18  0.02   
      8   H                0.34  0.01 -0.02    0.22 -0.28  0.20    0.44  0.35 -0.00   
      9   H                0.34  0.01  0.02   -0.22  0.28  0.20    0.44  0.35  0.00   

  Vibration                       13                  14                  15          
  Freq [cm^-1]                1118.5683           1131.9896           1193.9156       
  Irrep                           Ap                  Ap                 App          
  Reduced mass [u]              1.2541              1.4254              1.0078        
  Force const [mDyne/A]         0.9245              1.0762              0.8464        
  Turning point v=0 [a0]        0.2930              0.2732              0.3163        
  RMS dev v=0 [a0 u^1/2]        0.2320              0.2306              0.2245        
  Char temp [K]               1609.3707           1628.6810           1717.7788       
  ----------------------------------------------------------------------------------
      1   C                0.09 -0.02  0.00   -0.10  0.04 -0.00   -0.00 -0.00 -0.00   
      2   C                0.01 -0.11  0.00    0.02 -0.11  0.00    0.00 -0.00  0.00   
      3   C               -0.03  0.00  0.00    0.09  0.07 -0.00   -0.00  0.00  0.00   
      4   H               -0.40  0.16 -0.01    0.37 -0.15 -0.00   -0.38  0.15 -0.00   
      5   H               -0.40  0.16  0.01    0.37 -0.15  0.00    0.38 -0.15 -0.00   
      6   H               -0.08  0.54  0.01   -0.06  0.40  0.00   -0.06  0.40  0.00   
      7   H               -0.08  0.54 -0.01   -0.06  0.40 -0.00    0.06 -0.40  0.00   
      8   H                0.09  0.07  0.02   -0.31 -0.25  0.00    0.32  0.25 -0.00   
      9   H                0.09  0.07 -0.02   -0.31 -0.25 -0.00   -0.32 -0.25 -0.00   

  Vibration                       16                  17                  18          
  Freq [cm^-1]                1228.5478           1250.9443           1250.9454       
  Irrep                           Ap                 App                 App          
  Reduced mass [u]              2.7563              1.4512              1.4512        
  Force const [mDyne/A]         2.4511              1.3380              1.3380        
  Turning point v=0 [a0]        0.1886              0.2575              0.2575        
  RMS dev v=0 [a0 u^1/2]        0.2214              0.2194              0.2194        
  Char temp [K]               1767.6067           1799.8303           1799.8318       
  ----------------------------------------------------------------------------------
      1   C               -0.08 -0.21  0.00    0.00  0.00  0.16    0.00  0.00 -0.05   
      2   C                0.23  0.03  0.00   -0.00 -0.00 -0.04   -0.00  0.00  0.16   
      3   C               -0.14  0.18 -0.00    0.00 -0.00 -0.12    0.00 -0.00 -0.11   
      4   H               -0.14 -0.34 -0.06   -0.04 -0.40 -0.08    0.39 -0.03  0.03   
      5   H               -0.14 -0.34  0.06    0.04  0.40 -0.08   -0.39  0.03  0.03   
      6   H                0.37  0.05  0.06    0.03  0.39  0.02   -0.40  0.03 -0.08   
      7   H                0.37  0.05 -0.06   -0.03 -0.39  0.02    0.40 -0.03 -0.08   
      8   H               -0.23  0.29 -0.06   -0.02 -0.39  0.06    0.39 -0.04  0.06   
      9   H               -0.23  0.29  0.06    0.02  0.39  0.06   -0.39  0.04  0.06   

  Vibration                       19                  20                  21          
  Freq [cm^-1]                1515.6922           1515.7123           1570.2692       
  Irrep                           Ap                  Ap                  Ap          
  Reduced mass [u]              1.0910              1.0910              1.3061        
  Force const [mDyne/A]         1.4767              1.4768              1.8975        
  Turning point v=0 [a0]        0.2698              0.2698              0.2423        
  RMS dev v=0 [a0 u^1/2]        0.1993              0.1993              0.1958        
  Char temp [K]               2180.7436           2180.7725           2259.2678       
  ----------------------------------------------------------------------------------
      1   C               -0.02 -0.06  0.00   -0.02 -0.02 -0.00   -0.03 -0.09 -0.00   
      2   C               -0.01 -0.01  0.00   -0.07 -0.01 -0.00    0.09  0.01  0.00   
      3   C                0.03 -0.05 -0.00   -0.04  0.03  0.00   -0.06  0.07 -0.00   
      4   H                0.16  0.42  0.31    0.07  0.13  0.10    0.11  0.29  0.25   
      5   H                0.16  0.42 -0.31    0.07  0.13 -0.10    0.11  0.29 -0.25   
      6   H                0.10  0.03  0.07    0.46  0.06  0.32   -0.31 -0.05 -0.25   
      7   H                0.10  0.03 -0.07    0.46  0.06 -0.32   -0.31 -0.05  0.25   
      8   H               -0.21  0.28 -0.24    0.21 -0.24  0.22    0.19 -0.24  0.25   
      9   H               -0.21  0.28  0.24    0.21 -0.24 -0.22    0.19 -0.24 -0.25   

  Vibration                       22                  23                  24          
  Freq [cm^-1]                3119.3397           3119.3591           3130.4802       
  Irrep                           Ap                  Ap                  Ap          
  Reduced mass [u]              1.0504              1.0504              1.0645        
  Force const [mDyne/A]         6.0220              6.0221              6.1466        
  Turning point v=0 [a0]        0.1917              0.1917              0.1901        
  RMS dev v=0 [a0 u^1/2]        0.1389              0.1389              0.1387        
  Char temp [K]               4488.0353           4488.0632           4504.0640       
  ----------------------------------------------------------------------------------
      1   C                0.02  0.04  0.00    0.01  0.02  0.00    0.02  0.04  0.00   
      2   C                0.01  0.00  0.00    0.05  0.01 -0.00   -0.04 -0.01 -0.00   
      3   C               -0.03  0.03 -0.00    0.02 -0.02  0.00    0.03 -0.03  0.00   
      4   H               -0.10 -0.26  0.45   -0.04 -0.11  0.19   -0.08 -0.19  0.35   
      5   H               -0.10 -0.26 -0.45   -0.04 -0.11 -0.19   -0.08 -0.19 -0.35   
      6   H               -0.04 -0.01  0.06   -0.29 -0.04  0.49    0.21  0.03 -0.35   
      7   H               -0.04 -0.01 -0.06   -0.29 -0.04 -0.49    0.21  0.03  0.35   
      8   H                0.15 -0.19 -0.39   -0.11  0.14  0.30   -0.13  0.16  0.35   
      9   H                0.15 -0.19  0.39   -0.11  0.14 -0.30   -0.13  0.16 -0.35   

  Vibration                       25                  26                  27          
  Freq [cm^-1]                3198.2538           3198.2635           3217.6610       
  Irrep                          App                 App                 App          
  Reduced mass [u]              1.1199              1.1199              1.1160        
  Force const [mDyne/A]         6.7493              6.7493              6.8075        
  Turning point v=0 [a0]        0.1833              0.1833              0.1831        
  RMS dev v=0 [a0 u^1/2]        0.1372              0.1372              0.1368        
  Char temp [K]               4601.5751           4601.5891           4629.4978       
  ----------------------------------------------------------------------------------
      1   C               -0.00 -0.00  0.02    0.00  0.00 -0.08    0.00  0.00 -0.06   
      2   C                0.00 -0.00 -0.08    0.00 -0.00  0.02   -0.00 -0.00 -0.06   
      3   C               -0.00  0.00  0.06   -0.00  0.00  0.06    0.00 -0.00 -0.06   
      4   H                0.03  0.08 -0.13   -0.11 -0.28  0.47   -0.08 -0.21  0.34   
      5   H               -0.03 -0.08 -0.13    0.11  0.28  0.47    0.08  0.21  0.34   
      6   H               -0.30 -0.04  0.47    0.08  0.01 -0.12   -0.22 -0.03  0.34   
      7   H                0.30  0.04  0.47   -0.08 -0.01 -0.12    0.22  0.03  0.34   
      8   H                0.13 -0.17 -0.34    0.14 -0.17 -0.35   -0.14  0.17  0.34   
      9   H               -0.13  0.17 -0.34   -0.14  0.17 -0.35    0.14 -0.17  0.34   

  ==> Thermochemistry Components <==

  Entropy, S
    Electronic S            0.000 [cal/(mol K)]        0.000 [J/(mol K)]       0.00000000 [mEh/K] (multiplicity = 1)
    Translational S        37.135 [cal/(mol K)]      155.375 [J/(mol K)]       0.05917914 [mEh/K] (mol. weight = 42.0470 [u], P = 101325.00 [Pa])
    Rotational S           21.699 [cal/(mol K)]       90.789 [J/(mol K)]       0.03457982 [mEh/K] (symmetry no. = 1)
    Vibrational S           1.184 [cal/(mol K)]        4.952 [J/(mol K)]       0.00188605 [mEh/K]
  Total S                  60.018 [cal/(mol K)]      251.116 [J/(mol K)]       0.09564501 [mEh/K]
  Correction S              0.000 [cal/(mol K)]        0.000 [J/(mol K)]       0.00000000 [mEh/K]

  Constant volume heat capacity, Cv
    Electronic Cv           0.000 [cal/(mol K)]        0.000 [J/(mol K)]       0.00000000 [mEh/K]
    Translational Cv        2.981 [cal/(mol K)]       12.472 [J/(mol K)]       0.00475022 [mEh/K]
    Rotational Cv           2.981 [cal/(mol K)]       12.472 [J/(mol K)]       0.00475022 [mEh/K]
    Vibrational Cv          4.534 [cal/(mol K)]       18.970 [J/(mol K)]       0.00722532 [mEh/K]
  Total Cv                 10.496 [cal/(mol K)]       43.913 [J/(mol K)]       0.01672575 [mEh/K]
  Correction Cv             0.000 [cal/(mol K)]        0.000 [J/(mol K)]       0.00000000 [mEh/K]

  Constant pressure heat capacity, Cp
    Electronic Cp           0.000 [cal/(mol K)]        0.000 [J/(mol K)]       0.00000000 [mEh/K]
    Translational Cp        4.968 [cal/(mol K)]       20.786 [J/(mol K)]       0.00791703 [mEh/K]
    Rotational Cp           2.981 [cal/(mol K)]       12.472 [J/(mol K)]       0.00475022 [mEh/K]
    Vibrational Cp          4.534 [cal/(mol K)]       18.970 [J/(mol K)]       0.00722532 [mEh/K]
  Total Cp                 12.483 [cal/(mol K)]       52.228 [J/(mol K)]       0.01989256 [mEh/K]
  Correction Cp             0.000 [cal/(mol K)]        0.000 [J/(mol K)]       0.00000000 [mEh/K]

  ==> Thermochemistry Energy Analysis <==

  Raw electronic energy, E0
  Total E0, Electronic energy at well bottom at 0 [K]                 -117.50351448 [Eh]

  Zero-point energy, ZPE_vib = Sum_i nu_i / 2
    Electronic ZPE          0.000 [kcal/mol]        0.000 [kJ/mol]       0.00000000 [Eh]
    Translational ZPE       0.000 [kcal/mol]        0.000 [kJ/mol]       0.00000000 [Eh]
    Rotational ZPE          0.000 [kcal/mol]        0.000 [kJ/mol]       0.00000000 [Eh]
    Vibrational ZPE        51.716 [kcal/mol]      216.379 [kJ/mol]       0.08241429 [Eh]       18087.847 [cm^-1]
  Correction ZPE           51.716 [kcal/mol]      216.379 [kJ/mol]       0.08241429 [Eh]       18087.847 [cm^-1]
  Total ZPE, Electronic energy at 0 [K]                               -117.42110019 [Eh]

  Thermal Energy, E (includes ZPE)
    Electronic E            0.000 [kcal/mol]        0.000 [kJ/mol]       0.00000000 [Eh]
    Translational E         0.889 [kcal/mol]        3.718 [kJ/mol]       0.00141628 [Eh]
    Rotational E            0.889 [kcal/mol]        3.718 [kJ/mol]       0.00141628 [Eh]
    Vibrational E          52.005 [kcal/mol]      217.587 [kJ/mol]       0.08287469 [Eh]
  Correction E             53.782 [kcal/mol]      225.024 [kJ/mol]       0.08570725 [Eh]
  Total E, Electronic energy at  298.15 [K]                           -117.41780724 [Eh]

  Enthalpy, H_trans = E_trans + k_B * T
    Electronic H            0.000 [kcal/mol]        0.000 [kJ/mol]       0.00000000 [Eh]
    Translational H         1.481 [kcal/mol]        6.197 [kJ/mol]       0.00236046 [Eh]
    Rotational H            0.889 [kcal/mol]        3.718 [kJ/mol]       0.00141628 [Eh]
    Vibrational H          52.005 [kcal/mol]      217.587 [kJ/mol]       0.08287469 [Eh]
  Correction H             54.375 [kcal/mol]      227.503 [kJ/mol]       0.08665143 [Eh]
  Total H, Enthalpy at  298.15 [K]                                    -117.41686305 [Eh]

  Gibbs free energy, G = H - T * S
    Electronic G            0.000 [kcal/mol]        0.000 [kJ/mol]       0.00000000 [Eh]
    Translational G        -9.591 [kcal/mol]      -40.128 [kJ/mol]      -0.01528380 [Eh]
    Rotational G           -5.581 [kcal/mol]      -23.350 [kJ/mol]      -0.00889370 [Eh]
    Vibrational G          51.652 [kcal/mol]      216.111 [kJ/mol]       0.08231237 [Eh]
  Correction G             36.480 [kcal/mol]      152.633 [kJ/mol]       0.05813487 [Eh]
  Total G, Free enthalpy at  298.15 [K]                               -117.44537961 [Eh]

    Psi4 stopped on: Tuesday, 19 April 2022 03:46PM
    Psi4 wall time for execution: 0:04:55.32

*** Psi4 exiting successfully. Buy a developer a beer!
