
    -----------------------------------------------------------------------
          Psi4: An Open-Source Ab Initio Electronic Structure Package
                               Psi4 1.3.2 release

                         Git: Rev {HEAD} ecbda83 


    R. M. Parrish, L. A. Burns, D. G. A. Smith, A. C. Simmonett,
    A. E. DePrince III, E. G. Hohenstein, U. Bozkaya, A. Yu. Sokolov,
    R. Di Remigio, R. M. Richard, J. F. Gonthier, A. M. James,
    H. R. McAlexander, A. Kumar, M. Saitow, X. Wang, B. P. Pritchard,
    P. Verma, H. F. Schaefer III, K. Patkowski, R. A. King, E. F. Valeev,
    F. A. Evangelista, J. M. Turney, T. D. Crawford, and C. D. Sherrill,
    J. Chem. Theory Comput. 13(7) pp 3185--3197 (2017).
    (doi: 10.1021/acs.jctc.7b00174)


                         Additional Contributions by
    P. Kraus, H. Kruse, M. H. Lechner, M. C. Schieber, R. A. Shaw,
    A. Alenaizan, R. Galvelis, Z. L. Glick, S. Lehtola, and J. P. Misiewicz

    -----------------------------------------------------------------------


    Psi4 started on: Tuesday, 19 April 2022 10:42PM

    Process ID: 10353
    Host:       atlantis
    PSIDATADIR: /home/akrom/software/anaconda3/envs/ffpenv/share/psi4
    Memory:     500.0 MiB
    Threads:    1
    
  ==> Input File <==

--------------------------------------------------------------------------
set basis  cc-pVTZ
molecule {
0 1
   C       -1.22151       -0.69325        0.00000
   C       -1.21114        0.71122        0.00000
   C       -0.01037       -1.40452        0.00000
   C        0.01037        1.40452        0.00000
   C        1.21114       -0.71122        0.00000
   C        1.22151        0.69325        0.00000
   H       -2.17311       -1.23332        0.00000
   H       -2.15464        1.26533        0.00000
   H       -0.01848       -2.49865        0.00000
   H        0.01848        2.49865        0.00000
   H        2.15464       -1.26533        0.00000
   H        2.17311        1.23332        0.00000
}
energy('MP2')
frequencies('MP2')
--------------------------------------------------------------------------
    SCF Algorithm Type (re)set to DF.

*** tstart() called on atlantis
*** at Tue Apr 19 22:42:50 2022

   => Loading Basis Set <=

    Name: CC-PVTZ
    Role: ORBITAL
    Keyword: BASIS
    atoms 1-6  entry C          line   186 file /home/akrom/software/anaconda3/envs/ffpenv/share/psi4/basis/cc-pvtz.gbs 
    atoms 7-12 entry H          line    23 file /home/akrom/software/anaconda3/envs/ffpenv/share/psi4/basis/cc-pvtz.gbs 


         ---------------------------------------------------------
                                   SCF
               by Justin Turney, Rob Parrish, Andy Simmonett
                          and Daniel G. A. Smith
                              RHF Reference
                        1 Threads,    500 MiB Core
         ---------------------------------------------------------

  ==> Geometry <==

    Molecular point group: c2h
    Full point group: C2h

    Geometry (in Angstrom), charge = 0, multiplicity = 1:

       Center              X                  Y                   Z               Mass       
    ------------   -----------------  -----------------  -----------------  -----------------
         C           -1.221510000000    -0.693250000000     0.000000000000    12.000000000000
         C           -1.211140000000     0.711220000000     0.000000000000    12.000000000000
         C           -0.010370000000    -1.404520000000     0.000000000000    12.000000000000
         C            0.010370000000     1.404520000000     0.000000000000    12.000000000000
         C            1.211140000000    -0.711220000000     0.000000000000    12.000000000000
         C            1.221510000000     0.693250000000     0.000000000000    12.000000000000
         H           -2.173110000000    -1.233320000000     0.000000000000     1.007825032230
         H           -2.154640000000     1.265330000000     0.000000000000     1.007825032230
         H           -0.018480000000    -2.498650000000     0.000000000000     1.007825032230
         H            0.018480000000     2.498650000000     0.000000000000     1.007825032230
         H            2.154640000000    -1.265330000000     0.000000000000     1.007825032230
         H            2.173110000000     1.233320000000     0.000000000000     1.007825032230

  Running in c2h symmetry.

  Rotational constants: A =      0.18753  B =      0.18752  C =      0.09376 [cm^-1]
  Rotational constants: A =   5621.92707  B =   5621.82252  C =   2810.93740 [MHz]
  Nuclear repulsion =  202.013308935380167

  Charge       = 0
  Multiplicity = 1
  Electrons    = 42
  Nalpha       = 21
  Nbeta        = 21

  ==> Algorithm <==

  SCF Algorithm Type is DF.
  DIIS enabled.
  MOM disabled.
  Fractional occupation disabled.
  Guess Type is SAD.
  Energy threshold   = 1.00e-08
  Density threshold  = 1.00e-08
  Integral threshold = 0.00e+00

  ==> Primary Basis <==

  Basis Set: CC-PVTZ
    Blend: CC-PVTZ
    Number of shells: 96
    Number of basis function: 264
    Number of Cartesian functions: 300
    Spherical Harmonics?: true
    Max angular momentum: 3

   => Loading Basis Set <=

    Name: (CC-PVTZ AUX)
    Role: JKFIT
    Keyword: DF_BASIS_SCF
    atoms 1-6  entry C          line   125 file /home/akrom/software/anaconda3/envs/ffpenv/share/psi4/basis/cc-pvtz-jkfit.gbs 
    atoms 7-12 entry H          line    51 file /home/akrom/software/anaconda3/envs/ffpenv/share/psi4/basis/cc-pvtz-jkfit.gbs 

  ==> Pre-Iterations <==

   -------------------------------------------------------
    Irrep   Nso     Nmo     Nalpha   Nbeta   Ndocc  Nsocc
   -------------------------------------------------------
     Ag        90      90       0       0       0       0
     Bg        42      42       0       0       0       0
     Au        42      42       0       0       0       0
     Bu        90      90       0       0       0       0
   -------------------------------------------------------
    Total     264     264      21      21      21       0
   -------------------------------------------------------

  ==> Integral Setup <==

  DFHelper Memory: AOs need 0.348 GiB; user supplied 0.366 GiB. Using in-core AOs.

  ==> MemDFJK: Density-Fitted J/K Matrices <==

    J tasked:                   Yes
    K tasked:                   Yes
    wK tasked:                   No
    OpenMP threads:               1
    Memory [MiB]:               375
    Algorithm:                 Core
    Schwarz Cutoff:           1E-12
    Mask sparsity (%):       2.7577
    Fitting Condition:        1E-10

   => Auxiliary Basis Set <=

  Basis Set: (CC-PVTZ AUX)
    Blend: CC-PVTZ-JKFIT
    Number of shells: 210
    Number of basis function: 654
    Number of Cartesian functions: 786
    Spherical Harmonics?: true
    Max angular momentum: 4

  Minimum eigenvalue in the overlap matrix is 4.0032826848E-05.
  Using Symmetric Orthogonalization.

  SCF Guess: Superposition of Atomic Densities via on-the-fly atomic UHF.

  ==> Iterations <==

                           Total Energy        Delta E     RMS |[F,P]|

   @DF-RHF iter SAD:  -230.10155286129032   -2.30102e+02   0.00000e+00 
   @DF-RHF iter   1:  -230.63721542821898   -5.35663e-01   3.34119e-03 DIIS
   @DF-RHF iter   2:  -230.74981604189199   -1.12601e-01   1.56656e-03 DIIS
   @DF-RHF iter   3:  -230.77430875874569   -2.44927e-02   2.93738e-04 DIIS
   @DF-RHF iter   4:  -230.77572681435913   -1.41806e-03   3.35971e-05 DIIS
   @DF-RHF iter   5:  -230.77574944241843   -2.26281e-05   6.14563e-06 DIIS
   @DF-RHF iter   6:  -230.77575021320737   -7.70789e-07   6.87579e-07 DIIS
   @DF-RHF iter   7:  -230.77575022410750   -1.09001e-08   7.83115e-08 DIIS
   @DF-RHF iter   8:  -230.77575022425430   -1.46798e-10   1.17999e-08 DIIS
   @DF-RHF iter   9:  -230.77575022425668   -2.38742e-12   4.43543e-09 DIIS
  Energy and wave function converged.


  ==> Post-Iterations <==

    Orbital Energies [Eh]
    ---------------------

    Doubly Occupied:                                                      

       1Ag   -11.239526     1Bu   -11.238982     2Bu   -11.238980  
       2Ag   -11.237804     3Ag   -11.237801     3Bu   -11.237226  
       4Ag    -1.141838     4Bu    -1.008630     5Bu    -1.008624  
       5Ag    -0.818796     6Ag    -0.818783     7Ag    -0.701609  
       6Bu    -0.640686     7Bu    -0.613390     8Bu    -0.582952  
       9Bu    -0.582949     1Au    -0.496847     8Ag    -0.491819  
       9Ag    -0.491790     1Bg    -0.333774     2Bg    -0.333764  

    Virtual:                                                              

       2Au     0.125720     3Au     0.125734    10Ag     0.145140  
      10Bu     0.169733    11Bu     0.169734    11Ag     0.200605  
      12Ag     0.200605    12Bu     0.220504     3Bg     0.325735  
      13Ag     0.357484    14Ag     0.357489    13Bu     0.394469  
      14Bu     0.414896    15Bu     0.414907    15Ag     0.417825  
       4Au     0.433401     4Bg     0.475649     5Bg     0.475651  
      16Ag     0.506054    16Bu     0.524830    17Bu     0.524836  
      18Bu     0.546395     5Au     0.573117     6Au     0.573123  
      17Ag     0.583922    18Ag     0.583930    19Bu     0.592216  
      20Bu     0.592221     7Au     0.623808    19Ag     0.638949  
      20Ag     0.640763    21Ag     0.640764    22Ag     0.642480  
       6Bg     0.665279    21Bu     0.699511    23Ag     0.722601  
      24Ag     0.722614    22Bu     0.746880    23Bu     0.746899  
       7Bg     0.840132     8Bg     0.856220     9Bg     0.856225  
      24Bu     0.898890    25Bu     0.898892    25Ag     0.940745  
       8Au     0.952035     9Au     0.952043    26Bu     0.986720  
      26Ag     0.998849    27Ag     1.025781    28Ag     1.025784  
      27Bu     1.085709    10Au     1.118383    28Bu     1.128034  
      10Bg     1.205755    11Au     1.213386    12Au     1.213399  
      29Ag     1.227480    30Ag     1.227488    11Bg     1.286675  
      12Bg     1.286678    29Bu     1.306270    30Bu     1.306283  
      31Ag     1.311758    31Bu     1.376000    32Bu     1.376003  
      33Bu     1.471104    32Ag     1.483637    34Bu     1.494873  
      35Bu     1.494887    13Bg     1.502409    14Bg     1.502415  
      33Ag     1.503658    34Ag     1.503659    13Au     1.582765  
      14Au     1.582785    36Bu     1.605372    35Ag     1.610402  
      36Ag     1.610417    37Bu     1.637362    38Bu     1.637386  
      37Ag     1.714442    38Ag     1.714453    39Ag     1.719977  
      15Bg     1.762340    15Au     1.803538    39Bu     1.887518  
      40Ag     2.078616    41Ag     2.178961    42Ag     2.178990  
      40Bu     2.215558    41Bu     2.284244    42Bu     2.284297  
      16Au     2.331835    43Ag     2.388999    16Bg     2.441655  
      17Bg     2.441668    43Bu     2.458362    44Bu     2.458420  
      45Bu     2.463687    17Au     2.531389    18Au     2.531393  
      18Bg     2.601657    44Ag     2.665699    45Ag     2.737957  
      46Ag     2.737985    46Bu     2.776445    47Bu     2.776451  
      19Au     2.788824    19Bg     2.831037    47Ag     2.893263  
      48Ag     2.893307    48Bu     2.927545    20Au     2.948762  
      21Au     2.948770    22Au     2.995308    20Bg     2.997226  
      21Bg     2.997227    49Bu     3.029832    50Bu     3.029849  
      22Bg     3.061691    23Bg     3.061696    49Ag     3.088951  
      51Bu     3.097126    50Ag     3.150928    51Ag     3.150934  
      23Au     3.225790    24Bg     3.236698    25Bg     3.236707  
      52Ag     3.291069    53Ag     3.291072    52Bu     3.311355  
      53Bu     3.311366    54Ag     3.339661    54Bu     3.361833  
      24Au     3.368888    25Au     3.368911    55Bu     3.383456  
      56Bu     3.383468    55Ag     3.389718    56Ag     3.389754  
      57Ag     3.406274    57Bu     3.447141    26Au     3.453175  
      27Au     3.453192    26Bg     3.461536    58Ag     3.501390  
      28Au     3.607640    29Au     3.607654    27Bg     3.623108  
      58Bu     3.645652    59Bu     3.645663    30Au     3.651425  
      59Ag     3.688599    60Ag     3.688616    60Bu     3.702784  
      61Bu     3.702808    28Bg     3.713142    29Bg     3.713160  
      62Bu     3.751760    61Ag     3.893007    62Ag     3.893030  
      30Bg     3.902145    31Bg     3.903253    63Ag     4.034109  
      31Au     4.050057    32Bg     4.070814    33Bg     4.070821  
      63Bu     4.096190    64Bu     4.096210    64Ag     4.103066  
      65Ag     4.103084    65Bu     4.105843    66Ag     4.110536  
      32Au     4.112873    66Bu     4.149621    33Au     4.156027  
      34Au     4.156033    34Bg     4.197899    35Bg     4.197902  
      67Bu     4.305936    68Bu     4.305941    69Bu     4.346310  
      35Au     4.405142    36Au     4.405145    67Ag     4.410086  
      68Ag     4.436528    69Ag     4.436557    70Ag     4.461735  
      70Bu     4.482709    36Bg     4.486394    71Ag     4.528807  
      72Ag     4.528817    71Bu     4.533578    37Au     4.643047  
      38Au     4.643118    72Bu     4.646208    73Bu     4.646250  
      37Bg     4.649184    38Bg     4.649272    73Ag     4.666654  
      74Ag     4.666670    75Ag     4.847001    76Ag     4.847056  
      77Ag     4.854486    39Au     4.971183    74Bu     5.032153  
      75Bu     5.032199    39Bg     5.032536    76Bu     5.071380  
      77Bu     5.071389    40Bg     5.081687    41Bg     5.081696  
      40Au     5.135401    78Bu     5.215949    78Ag     5.282082  
      79Ag     5.319590    79Bu     5.330720    41Au     5.335043  
      42Au     5.335053    80Ag     5.378863    81Ag     5.378876  
      80Bu     5.491893    81Bu     5.491938    82Bu     5.715332  
      83Bu     5.715385    42Bg     5.758825    82Ag     6.000746  
      83Ag     6.000791    84Bu     6.044494    84Ag     6.235637  
      85Ag     6.235673    86Ag     6.323549    85Bu     6.450765  
      86Bu     6.450811    87Bu     6.805950    87Ag     7.253161  
      88Ag     9.279211    88Bu    12.743196    89Bu    12.743605  
      89Ag    13.310306    90Ag    13.310721    90Bu    15.872710  

    Final Occupation by Irrep:
             Ag    Bg    Au    Bu 
    DOCC [     9,    2,    1,    9 ]

  @DF-RHF Final Energy:  -230.77575022425668

   => Energetics <=

    Nuclear Repulsion Energy =            202.0133089353801665
    One-Electron Energy =                -710.5849746487251650
    Two-Electron Energy =                 277.7959154890883156
    Total Energy =                       -230.7757502242566829

Computation Completed


Properties will be evaluated at   0.000000,   0.000000,   0.000000 [a0]

Properties computed using the SCF density matrix

  Nuclear Dipole Moment: [e a0]
     X:    -0.0000      Y:    -0.0000      Z:     0.0000

  Electronic Dipole Moment: [e a0]
     X:     0.0000      Y:     0.0000      Z:     0.0000

  Dipole Moment: [e a0]
     X:    -0.0000      Y:    -0.0000      Z:     0.0000     Total:     0.0000

  Dipole Moment: [D]
     X:    -0.0000      Y:    -0.0000      Z:     0.0000     Total:     0.0000


*** tstop() called on atlantis at Tue Apr 19 22:42:54 2022
Module time:
	user time   =       4.57 seconds =       0.08 minutes
	system time =       0.13 seconds =       0.00 minutes
	total time  =          4 seconds =       0.07 minutes
Total time:
	user time   =       4.57 seconds =       0.08 minutes
	system time =       0.13 seconds =       0.00 minutes
	total time  =          4 seconds =       0.07 minutes

*** tstart() called on atlantis
*** at Tue Apr 19 22:42:54 2022


  //>>>>>>>>>>>>>>>>>>>>>>>>>>>>>>>>>>>//
  //               DFMP2               //
  //<<<<<<<<<<<<<<<<<<<<<<<<<<<<<<<<<<<//

   => Loading Basis Set <=

    Name: (CC-PVTZ AUX)
    Role: RIFIT
    Keyword: DF_BASIS_MP2
    atoms 1-6  entry C          line   209 file /home/akrom/software/anaconda3/envs/ffpenv/share/psi4/basis/cc-pvtz-ri.gbs 
    atoms 7-12 entry H          line    19 file /home/akrom/software/anaconda3/envs/ffpenv/share/psi4/basis/cc-pvtz-ri.gbs 

	 --------------------------------------------------------
	                          DF-MP2                         
	      2nd-Order Density-Fitted Moller-Plesset Theory     
	              RMP2 Wavefunction,   1 Threads             
	                                                         
	        Rob Parrish, Justin Turney, Andy Simmonett,      
	           Ed Hohenstein, and C. David Sherrill          
	 --------------------------------------------------------

   => Auxiliary Basis Set <=

  Basis Set: (CC-PVTZ AUX)
    Blend: CC-PVTZ-RI
    Number of shells: 198
    Number of basis function: 666
    Number of Cartesian functions: 816
    Spherical Harmonics?: true
    Max angular momentum: 4

	 --------------------------------------------------------
	                 NBF =   264, NAUX =   666
	 --------------------------------------------------------
	   CLASS    FOCC     OCC    AOCC    AVIR     VIR    FVIR
	   PAIRS       0      21      21     243     243       0
	 --------------------------------------------------------

	-----------------------------------------------------------
	 ==================> DF-MP2 Energies <==================== 
	-----------------------------------------------------------
	 Reference Energy          =    -230.7757502242566829 [Eh]
	 Singles Energy            =      -0.0000000000000000 [Eh]
	 Same-Spin Energy          =      -0.2520366301011849 [Eh]
	 Opposite-Spin Energy      =      -0.7917741480163293 [Eh]
	 Correlation Energy        =      -1.0438107781175141 [Eh]
	 Total Energy              =    -231.8195610023742006 [Eh]
	-----------------------------------------------------------
	 ================> DF-SCS-MP2 Energies <================== 
	-----------------------------------------------------------
	 SCS Same-Spin Scale       =       0.3333333333333333 [-]
	 SCS Opposite-Spin Scale   =       1.2000000000000000 [-]
	 SCS Same-Spin Energy      =      -0.0840122100337283 [Eh]
	 SCS Opposite-Spin Energy  =      -0.9501289776195951 [Eh]
	 SCS Correlation Energy    =      -1.0341411876533235 [Eh]
	 SCS Total Energy          =    -231.8098914119100016 [Eh]
	-----------------------------------------------------------


*** tstop() called on atlantis at Tue Apr 19 22:42:56 2022
Module time:
	user time   =       1.94 seconds =       0.03 minutes
	system time =       0.12 seconds =       0.00 minutes
	total time  =          2 seconds =       0.03 minutes
Total time:
	user time   =       6.51 seconds =       0.11 minutes
	system time =       0.25 seconds =       0.00 minutes
	total time  =          6 seconds =       0.10 minutes
gradient() will perform analytic gradient computation.
    SCF Algorithm Type (re)set to DF.

*** tstart() called on atlantis
*** at Tue Apr 19 22:42:56 2022

   => Loading Basis Set <=

    Name: CC-PVTZ
    Role: ORBITAL
    Keyword: BASIS
    atoms 1-6  entry C          line   186 file /home/akrom/software/anaconda3/envs/ffpenv/share/psi4/basis/cc-pvtz.gbs 
    atoms 7-12 entry H          line    23 file /home/akrom/software/anaconda3/envs/ffpenv/share/psi4/basis/cc-pvtz.gbs 


         ---------------------------------------------------------
                                   SCF
               by Justin Turney, Rob Parrish, Andy Simmonett
                          and Daniel G. A. Smith
                              RHF Reference
                        1 Threads,    500 MiB Core
         ---------------------------------------------------------

  ==> Geometry <==

    Molecular point group: c2h
    Full point group: C2h

    Geometry (in Angstrom), charge = 0, multiplicity = 1:

       Center              X                  Y                   Z               Mass       
    ------------   -----------------  -----------------  -----------------  -----------------
         C           -1.221510000000    -0.693250000000     0.000000000000    12.000000000000
         C           -1.211140000000     0.711220000000     0.000000000000    12.000000000000
         C           -0.010370000000    -1.404520000000     0.000000000000    12.000000000000
         C            0.010370000000     1.404520000000     0.000000000000    12.000000000000
         C            1.211140000000    -0.711220000000     0.000000000000    12.000000000000
         C            1.221510000000     0.693250000000     0.000000000000    12.000000000000
         H           -2.173110000000    -1.233320000000     0.000000000000     1.007825032230
         H           -2.154640000000     1.265330000000     0.000000000000     1.007825032230
         H           -0.018480000000    -2.498650000000     0.000000000000     1.007825032230
         H            0.018480000000     2.498650000000     0.000000000000     1.007825032230
         H            2.154640000000    -1.265330000000     0.000000000000     1.007825032230
         H            2.173110000000     1.233320000000     0.000000000000     1.007825032230

  Running in c2h symmetry.

  Rotational constants: A =      0.18753  B =      0.18752  C =      0.09376 [cm^-1]
  Rotational constants: A =   5621.92707  B =   5621.82252  C =   2810.93740 [MHz]
  Nuclear repulsion =  202.013308935380167

  Charge       = 0
  Multiplicity = 1
  Electrons    = 42
  Nalpha       = 21
  Nbeta        = 21

  ==> Algorithm <==

  SCF Algorithm Type is DF.
  DIIS enabled.
  MOM disabled.
  Fractional occupation disabled.
  Guess Type is SAD.
  Energy threshold   = 1.00e-10
  Density threshold  = 1.00e-10
  Integral threshold = 0.00e+00

  ==> Primary Basis <==

  Basis Set: CC-PVTZ
    Blend: CC-PVTZ
    Number of shells: 96
    Number of basis function: 264
    Number of Cartesian functions: 300
    Spherical Harmonics?: true
    Max angular momentum: 3

   => Loading Basis Set <=

    Name: (CC-PVTZ AUX)
    Role: JKFIT
    Keyword: DF_BASIS_SCF
    atoms 1-6  entry C          line   125 file /home/akrom/software/anaconda3/envs/ffpenv/share/psi4/basis/cc-pvtz-jkfit.gbs 
    atoms 7-12 entry H          line    51 file /home/akrom/software/anaconda3/envs/ffpenv/share/psi4/basis/cc-pvtz-jkfit.gbs 

  ==> Pre-Iterations <==

   -------------------------------------------------------
    Irrep   Nso     Nmo     Nalpha   Nbeta   Ndocc  Nsocc
   -------------------------------------------------------
     Ag        90      90       0       0       0       0
     Bg        42      42       0       0       0       0
     Au        42      42       0       0       0       0
     Bu        90      90       0       0       0       0
   -------------------------------------------------------
    Total     264     264      21      21      21       0
   -------------------------------------------------------

  ==> Integral Setup <==

  DFHelper Memory: AOs need 0.348 GiB; user supplied 0.366 GiB. Using in-core AOs.

  ==> MemDFJK: Density-Fitted J/K Matrices <==

    J tasked:                   Yes
    K tasked:                   Yes
    wK tasked:                   No
    OpenMP threads:               1
    Memory [MiB]:               375
    Algorithm:                 Core
    Schwarz Cutoff:           1E-12
    Mask sparsity (%):       2.7577
    Fitting Condition:        1E-10

   => Auxiliary Basis Set <=

  Basis Set: (CC-PVTZ AUX)
    Blend: CC-PVTZ-JKFIT
    Number of shells: 210
    Number of basis function: 654
    Number of Cartesian functions: 786
    Spherical Harmonics?: true
    Max angular momentum: 4

  Minimum eigenvalue in the overlap matrix is 4.0032826849E-05.
  Using Symmetric Orthogonalization.

  SCF Guess: Superposition of Atomic Densities via on-the-fly atomic UHF.

  ==> Iterations <==

                           Total Energy        Delta E     RMS |[F,P]|

   @DF-RHF iter SAD:  -230.10155286123421   -2.30102e+02   0.00000e+00 
   @DF-RHF iter   1:  -230.63721542815870   -5.35663e-01   3.34119e-03 DIIS
   @DF-RHF iter   2:  -230.74981604183091   -1.12601e-01   1.56656e-03 DIIS
   @DF-RHF iter   3:  -230.77430875868484   -2.44927e-02   2.93738e-04 DIIS
   @DF-RHF iter   4:  -230.77572681429851   -1.41806e-03   3.35971e-05 DIIS
   @DF-RHF iter   5:  -230.77574944235681   -2.26281e-05   6.14563e-06 DIIS
   @DF-RHF iter   6:  -230.77575021314706   -7.70790e-07   6.87579e-07 DIIS
   @DF-RHF iter   7:  -230.77575022404613   -1.08991e-08   7.83115e-08 DIIS
   @DF-RHF iter   8:  -230.77575022419336   -1.47224e-10   1.17999e-08 DIIS
   @DF-RHF iter   9:  -230.77575022419626   -2.89901e-12   4.43543e-09 DIIS
   @DF-RHF iter  10:  -230.77575022419649   -2.27374e-13   9.31892e-10 DIIS
   @DF-RHF iter  11:  -230.77575022419597    5.11591e-13   1.35825e-10 DIIS
   @DF-RHF iter  12:  -230.77575022419640   -4.26326e-13   1.47728e-11 DIIS
  Energy and wave function converged.


  ==> Post-Iterations <==

    Orbital Energies [Eh]
    ---------------------

    Doubly Occupied:                                                      

       1Ag   -11.239526     1Bu   -11.238982     2Bu   -11.238980  
       2Ag   -11.237804     3Ag   -11.237802     3Bu   -11.237226  
       4Ag    -1.141838     4Bu    -1.008630     5Bu    -1.008624  
       5Ag    -0.818796     6Ag    -0.818783     7Ag    -0.701609  
       6Bu    -0.640686     7Bu    -0.613390     8Bu    -0.582952  
       9Bu    -0.582949     1Au    -0.496848     8Ag    -0.491819  
       9Ag    -0.491790     1Bg    -0.333774     2Bg    -0.333764  

    Virtual:                                                              

       2Au     0.125720     3Au     0.125734    10Ag     0.145140  
      10Bu     0.169733    11Bu     0.169734    11Ag     0.200605  
      12Ag     0.200605    12Bu     0.220504     3Bg     0.325735  
      13Ag     0.357484    14Ag     0.357489    13Bu     0.394469  
      14Bu     0.414896    15Bu     0.414907    15Ag     0.417825  
       4Au     0.433401     4Bg     0.475649     5Bg     0.475651  
      16Ag     0.506054    16Bu     0.524830    17Bu     0.524836  
      18Bu     0.546395     5Au     0.573117     6Au     0.573123  
      17Ag     0.583922    18Ag     0.583930    19Bu     0.592216  
      20Bu     0.592221     7Au     0.623808    19Ag     0.638949  
      20Ag     0.640763    21Ag     0.640764    22Ag     0.642480  
       6Bg     0.665279    21Bu     0.699511    23Ag     0.722601  
      24Ag     0.722614    22Bu     0.746880    23Bu     0.746899  
       7Bg     0.840132     8Bg     0.856220     9Bg     0.856225  
      24Bu     0.898890    25Bu     0.898892    25Ag     0.940745  
       8Au     0.952035     9Au     0.952043    26Bu     0.986720  
      26Ag     0.998849    27Ag     1.025781    28Ag     1.025784  
      27Bu     1.085709    10Au     1.118383    28Bu     1.128034  
      10Bg     1.205755    11Au     1.213386    12Au     1.213399  
      29Ag     1.227480    30Ag     1.227488    11Bg     1.286675  
      12Bg     1.286678    29Bu     1.306270    30Bu     1.306283  
      31Ag     1.311758    31Bu     1.376000    32Bu     1.376003  
      33Bu     1.471104    32Ag     1.483637    34Bu     1.494873  
      35Bu     1.494887    13Bg     1.502409    14Bg     1.502415  
      33Ag     1.503658    34Ag     1.503659    13Au     1.582765  
      14Au     1.582785    36Bu     1.605372    35Ag     1.610402  
      36Ag     1.610417    37Bu     1.637362    38Bu     1.637386  
      37Ag     1.714442    38Ag     1.714453    39Ag     1.719977  
      15Bg     1.762340    15Au     1.803538    39Bu     1.887518  
      40Ag     2.078616    41Ag     2.178961    42Ag     2.178990  
      40Bu     2.215558    41Bu     2.284244    42Bu     2.284297  
      16Au     2.331835    43Ag     2.388999    16Bg     2.441655  
      17Bg     2.441668    43Bu     2.458362    44Bu     2.458420  
      45Bu     2.463687    17Au     2.531389    18Au     2.531393  
      18Bg     2.601657    44Ag     2.665699    45Ag     2.737957  
      46Ag     2.737985    46Bu     2.776445    47Bu     2.776451  
      19Au     2.788824    19Bg     2.831037    47Ag     2.893263  
      48Ag     2.893307    48Bu     2.927545    20Au     2.948762  
      21Au     2.948770    22Au     2.995308    20Bg     2.997226  
      21Bg     2.997227    49Bu     3.029832    50Bu     3.029849  
      22Bg     3.061691    23Bg     3.061696    49Ag     3.088951  
      51Bu     3.097126    50Ag     3.150928    51Ag     3.150934  
      23Au     3.225790    24Bg     3.236698    25Bg     3.236707  
      52Ag     3.291069    53Ag     3.291072    52Bu     3.311355  
      53Bu     3.311366    54Ag     3.339661    54Bu     3.361833  
      24Au     3.368888    25Au     3.368911    55Bu     3.383456  
      56Bu     3.383468    55Ag     3.389718    56Ag     3.389754  
      57Ag     3.406274    57Bu     3.447140    26Au     3.453175  
      27Au     3.453192    26Bg     3.461536    58Ag     3.501390  
      28Au     3.607640    29Au     3.607654    27Bg     3.623108  
      58Bu     3.645652    59Bu     3.645663    30Au     3.651425  
      59Ag     3.688599    60Ag     3.688616    60Bu     3.702784  
      61Bu     3.702808    28Bg     3.713142    29Bg     3.713160  
      62Bu     3.751759    61Ag     3.893007    62Ag     3.893030  
      30Bg     3.902145    31Bg     3.903253    63Ag     4.034109  
      31Au     4.050057    32Bg     4.070814    33Bg     4.070821  
      63Bu     4.096190    64Bu     4.096210    64Ag     4.103066  
      65Ag     4.103084    65Bu     4.105843    66Ag     4.110536  
      32Au     4.112873    66Bu     4.149621    33Au     4.156027  
      34Au     4.156033    34Bg     4.197899    35Bg     4.197902  
      67Bu     4.305936    68Bu     4.305941    69Bu     4.346310  
      35Au     4.405142    36Au     4.405145    67Ag     4.410086  
      68Ag     4.436528    69Ag     4.436556    70Ag     4.461735  
      70Bu     4.482709    36Bg     4.486394    71Ag     4.528807  
      72Ag     4.528817    71Bu     4.533578    37Au     4.643047  
      38Au     4.643118    72Bu     4.646208    73Bu     4.646250  
      37Bg     4.649184    38Bg     4.649272    73Ag     4.666654  
      74Ag     4.666670    75Ag     4.847001    76Ag     4.847056  
      77Ag     4.854486    39Au     4.971183    74Bu     5.032153  
      75Bu     5.032199    39Bg     5.032536    76Bu     5.071380  
      77Bu     5.071389    40Bg     5.081687    41Bg     5.081696  
      40Au     5.135401    78Bu     5.215949    78Ag     5.282082  
      79Ag     5.319590    79Bu     5.330720    41Au     5.335043  
      42Au     5.335053    80Ag     5.378863    81Ag     5.378876  
      80Bu     5.491893    81Bu     5.491938    82Bu     5.715332  
      83Bu     5.715385    42Bg     5.758825    82Ag     6.000746  
      83Ag     6.000791    84Bu     6.044494    84Ag     6.235637  
      85Ag     6.235673    86Ag     6.323549    85Bu     6.450765  
      86Bu     6.450811    87Bu     6.805950    87Ag     7.253161  
      88Ag     9.279211    88Bu    12.743196    89Bu    12.743605  
      89Ag    13.310306    90Ag    13.310721    90Bu    15.872710  

    Final Occupation by Irrep:
             Ag    Bg    Au    Bu 
    DOCC [     9,    2,    1,    9 ]

  @DF-RHF Final Energy:  -230.77575022419640

   => Energetics <=

    Nuclear Repulsion Energy =            202.0133089353801665
    One-Electron Energy =                -710.5849745605362386
    Two-Electron Energy =                 277.7959154009596432
    Total Energy =                       -230.7757502241964289

Computation Completed


Properties will be evaluated at   0.000000,   0.000000,   0.000000 [a0]

Properties computed using the SCF density matrix

  Nuclear Dipole Moment: [e a0]
     X:    -0.0000      Y:    -0.0000      Z:     0.0000

  Electronic Dipole Moment: [e a0]
     X:     0.0000      Y:     0.0000      Z:     0.0000

  Dipole Moment: [e a0]
     X:    -0.0000      Y:    -0.0000      Z:     0.0000     Total:     0.0000

  Dipole Moment: [D]
     X:    -0.0000      Y:    -0.0000      Z:     0.0000     Total:     0.0000


*** tstop() called on atlantis at Tue Apr 19 22:43:02 2022
Module time:
	user time   =       5.19 seconds =       0.09 minutes
	system time =       0.08 seconds =       0.00 minutes
	total time  =          6 seconds =       0.10 minutes
Total time:
	user time   =      11.71 seconds =       0.20 minutes
	system time =       0.33 seconds =       0.01 minutes
	total time  =         12 seconds =       0.20 minutes

*** tstart() called on atlantis
*** at Tue Apr 19 22:43:02 2022


  //>>>>>>>>>>>>>>>>>>>>>>>>>>>>>>>>>>>//
  //               DFMP2               //
  //<<<<<<<<<<<<<<<<<<<<<<<<<<<<<<<<<<<//

   => Loading Basis Set <=

    Name: (CC-PVTZ AUX)
    Role: RIFIT
    Keyword: DF_BASIS_MP2
    atoms 1-6  entry C          line   209 file /home/akrom/software/anaconda3/envs/ffpenv/share/psi4/basis/cc-pvtz-ri.gbs 
    atoms 7-12 entry H          line    19 file /home/akrom/software/anaconda3/envs/ffpenv/share/psi4/basis/cc-pvtz-ri.gbs 

	 --------------------------------------------------------
	                          DF-MP2                         
	      2nd-Order Density-Fitted Moller-Plesset Theory     
	              RMP2 Wavefunction,   1 Threads             
	                                                         
	        Rob Parrish, Justin Turney, Andy Simmonett,      
	           Ed Hohenstein, and C. David Sherrill          
	 --------------------------------------------------------

   => Auxiliary Basis Set <=

  Basis Set: (CC-PVTZ AUX)
    Blend: CC-PVTZ-RI
    Number of shells: 198
    Number of basis function: 666
    Number of Cartesian functions: 816
    Spherical Harmonics?: true
    Max angular momentum: 4

	 --------------------------------------------------------
	                 NBF =   264, NAUX =   666
	 --------------------------------------------------------
	   CLASS    FOCC     OCC    AOCC    AVIR     VIR    FVIR
	   PAIRS       0      21      21     243     243       0
	 --------------------------------------------------------

  DFHelper Memory: AOs need 0.348 GiB; user supplied 0.366 GiB. Using in-core AOs.


         ------------------------------------------------------------
                                     CPHF                           
                                  Rob Parrish                       
         ------------------------------------------------------------

  ==> Geometry <==

    Molecular point group: c2h
    Full point group: C2h

    Geometry (in Angstrom), charge = 0, multiplicity = 1:

       Center              X                  Y                   Z               Mass       
    ------------   -----------------  -----------------  -----------------  -----------------
         C           -1.221510000000    -0.693250000000     0.000000000000    12.000000000000
         C           -1.211140000000     0.711220000000     0.000000000000    12.000000000000
         C           -0.010370000000    -1.404520000000     0.000000000000    12.000000000000
         C            0.010370000000     1.404520000000     0.000000000000    12.000000000000
         C            1.211140000000    -0.711220000000     0.000000000000    12.000000000000
         C            1.221510000000     0.693250000000     0.000000000000    12.000000000000
         H           -2.173110000000    -1.233320000000     0.000000000000     1.007825032230
         H           -2.154640000000     1.265330000000     0.000000000000     1.007825032230
         H           -0.018480000000    -2.498650000000     0.000000000000     1.007825032230
         H            0.018480000000     2.498650000000     0.000000000000     1.007825032230
         H            2.154640000000    -1.265330000000     0.000000000000     1.007825032230
         H            2.173110000000     1.233320000000     0.000000000000     1.007825032230

  Nuclear repulsion =  202.013308935380167
  Reference energy  = -230.775750224196400

  ==> Basis Set <==

  Basis Set: CC-PVTZ
    Blend: CC-PVTZ
    Number of shells: 96
    Number of basis function: 264
    Number of Cartesian functions: 300
    Spherical Harmonics?: true
    Max angular momentum: 3

  ==> CGRSolver (by Rob Parrish) <==

   Number of roots    =         1
   Preconditioning    =    JACOBI
   Convergence cutoff =     1E-06
   Maximum iterations =       100

  ==> CPHFRHamiltonian (by Rob Parrish) <== 

  ==> MemDFJK: Density-Fitted J/K Matrices <==

    J tasked:                   Yes
    K tasked:                   Yes
    wK tasked:                   No
    OpenMP threads:               1
    Memory [MiB]:               375
    Algorithm:                 Core
    Schwarz Cutoff:           1E-12
    Mask sparsity (%):       2.7577
    Fitting Condition:        1E-10

   => Auxiliary Basis Set <=

  Basis Set: (CC-PVTZ AUX)
    Blend: CC-PVTZ-JKFIT
    Number of shells: 210
    Number of basis function: 654
    Number of Cartesian functions: 786
    Spherical Harmonics?: true
    Max angular momentum: 4

  ==> CPHF Iterations <==

  => Iterations <=

             Iter  Converged  Remaining    Residual
  CGR           1          0          1   7.663E-02
  CGR           2          0          1   1.271E-02
  CGR           3          0          1   2.268E-03
  CGR           4          0          1   3.885E-04
  CGR           5          0          1   4.799E-05
  CGR           6          0          1   4.517E-06
  CGR           7          1          0   7.196E-07

    CGRSolver converged.

  ==> DFCorrGrad: Density-Fitted Correlated Gradients <==

    OpenMP threads:              1
    Integrals threads:           1
    Memory [GiB]:            0.366
    Schwarz Cutoff:          0E+00
    Fitting Condition:       1E-10

   => Auxiliary Basis Set <=

  Basis Set: (CC-PVTZ AUX)
    Blend: CC-PVTZ-JKFIT
    Number of shells: 210
    Number of basis function: 654
    Number of Cartesian functions: 786
    Spherical Harmonics?: true
    Max angular momentum: 4

	-----------------------------------------------------------
	 ==================> DF-MP2 Energies <==================== 
	-----------------------------------------------------------
	 Reference Energy          =    -230.7757502241964005 [Eh]
	 Singles Energy            =      -0.0000000000000000 [Eh]
	 Same-Spin Energy          =      -0.2520366332956120 [Eh]
	 Opposite-Spin Energy      =      -0.7917741606530121 [Eh]
	 Correlation Energy        =      -1.0438107939486241 [Eh]
	 Total Energy              =    -231.8195610181450377 [Eh]
	-----------------------------------------------------------
	 ================> DF-SCS-MP2 Energies <================== 
	-----------------------------------------------------------
	 SCS Same-Spin Scale       =       0.3333333333333333 [-]
	 SCS Opposite-Spin Scale   =       1.2000000000000000 [-]
	 SCS Same-Spin Energy      =      -0.0840122110985373 [Eh]
	 SCS Opposite-Spin Energy  =      -0.9501289927836145 [Eh]
	 SCS Correlation Energy    =      -1.0341412038821518 [Eh]
	 SCS Total Energy          =    -231.8098914280785436 [Eh]
	-----------------------------------------------------------


  -Total Gradient:
     Atom            X                  Y                   Z
    ------   -----------------  -----------------  -----------------
       1       -0.003246896104    -0.001812373106     0.000000000000
       2       -0.003220151771     0.001852375345     0.000000000000
       3       -0.000019711820    -0.003760045109     0.000000000000
       4        0.000019711820     0.003760045109     0.000000000000
       5        0.003220151771    -0.001852375345     0.000000000000
       6        0.003246896104     0.001812373106     0.000000000000
       7       -0.010440994053    -0.005926257256     0.000000000000
       8       -0.010352416752     0.006086512903     0.000000000000
       9       -0.000091651446    -0.011998149259     0.000000000000
      10        0.000091651446     0.011998149259     0.000000000000
      11        0.010352416752    -0.006086512903     0.000000000000
      12        0.010440994053     0.005926257256     0.000000000000


*** tstop() called on atlantis at Tue Apr 19 22:43:28 2022
Module time:
	user time   =      25.88 seconds =       0.43 minutes
	system time =       0.93 seconds =       0.02 minutes
	total time  =         26 seconds =       0.43 minutes
Total time:
	user time   =      37.59 seconds =       0.63 minutes
	system time =       1.26 seconds =       0.02 minutes
	total time  =         38 seconds =       0.63 minutes

  Based on options and gradient (rms=5.13E-03), recommend projecting translations and projecting rotations.
hessian() will perform frequency computation by finite difference of analytic gradients.

         ----------------------------------------------------------
                                   FINDIF
                     R. A. King and Jonathon Misiewicz
         ---------------------------------------------------------

  Using finite-differences of gradients to determine vibrational frequencies and 
  normal modes.  Resulting frequencies are only valid at stationary points.
    Generating geometries for use with 3-point formula.
    Displacement size will be 5.00e-03.
    Number of atoms is 12.
    Number of irreps is 4.
    Number of SALCs is 30.
    Translations projected? 1. Rotations projected? 1.
    Index of SALCs per irrep:
     1 :  0  1  2  3  4  5  6  7  8  9  10 
     2 :  11  12  13  14 
     3 :  15  16  17  18  19 
     4 :  20  21  22  23  24  25  26  27  28  29 
    Number of SALCs per irrep:
     Irrep 1: 11
     Irrep 2: 4
     Irrep 3: 5
     Irrep 4: 10
    Number of geometries (including reference) is 42.
    Number of displacements per irrep:
      Irrep 1: 22
      Irrep 2: 4
      Irrep 3: 5
      Irrep 4: 10

  //>>>>>>>>>>>>>>>>>>>>>>>>>>>>>>>>>>>//
  //    Loading displacement 1 of 42   //
  //<<<<<<<<<<<<<<<<<<<<<<<<<<<<<<<<<<<//
gradient() will perform analytic gradient computation.
    SCF Algorithm Type (re)set to DF.

*** tstart() called on atlantis
*** at Tue Apr 19 22:43:29 2022

   => Loading Basis Set <=

    Name: CC-PVTZ
    Role: ORBITAL
    Keyword: BASIS
    atoms 1-6  entry C          line   186 file /home/akrom/software/anaconda3/envs/ffpenv/share/psi4/basis/cc-pvtz.gbs 
    atoms 7-12 entry H          line    23 file /home/akrom/software/anaconda3/envs/ffpenv/share/psi4/basis/cc-pvtz.gbs 


         ---------------------------------------------------------
                                   SCF
               by Justin Turney, Rob Parrish, Andy Simmonett
                          and Daniel G. A. Smith
                              RHF Reference
                        1 Threads,    500 MiB Core
         ---------------------------------------------------------

  ==> Geometry <==

    Molecular point group: c2h
    Full point group: C2h

    Geometry (in Angstrom), charge = 0, multiplicity = 1:

       Center              X                  Y                   Z               Mass       
    ------------   -----------------  -----------------  -----------------  -----------------
         C           -1.221510000000    -0.693250000000     0.000000000000    12.000000000000
         C           -1.211140000000     0.711220000000     0.000000000000    12.000000000000
         C           -0.010370000000    -1.404520000000     0.000000000000    12.000000000000
         C            0.010370000000     1.404520000000     0.000000000000    12.000000000000
         C            1.211140000000    -0.711220000000     0.000000000000    12.000000000000
         C            1.221510000000     0.693250000000     0.000000000000    12.000000000000
         H           -2.173110000000    -1.233320000000     0.000000000000     1.007825032230
         H           -2.154640000000     1.265330000000     0.000000000000     1.007825032230
         H           -0.018480000000    -2.498650000000     0.000000000000     1.007825032230
         H            0.018480000000     2.498650000000     0.000000000000     1.007825032230
         H            2.154640000000    -1.265330000000     0.000000000000     1.007825032230
         H            2.173110000000     1.233320000000     0.000000000000     1.007825032230

  Running in c2h symmetry.

  Rotational constants: A =      0.18753  B =      0.18752  C =      0.09376 [cm^-1]
  Rotational constants: A =   5621.92707  B =   5621.82252  C =   2810.93740 [MHz]
  Nuclear repulsion =  202.013308935380167

  Charge       = 0
  Multiplicity = 1
  Electrons    = 42
  Nalpha       = 21
  Nbeta        = 21

  ==> Algorithm <==

  SCF Algorithm Type is DF.
  DIIS enabled.
  MOM disabled.
  Fractional occupation disabled.
  Guess Type is SAD.
  Energy threshold   = 1.00e-10
  Density threshold  = 1.00e-10
  Integral threshold = 0.00e+00

  ==> Primary Basis <==

  Basis Set: CC-PVTZ
    Blend: CC-PVTZ
    Number of shells: 96
    Number of basis function: 264
    Number of Cartesian functions: 300
    Spherical Harmonics?: true
    Max angular momentum: 3

   => Loading Basis Set <=

    Name: (CC-PVTZ AUX)
    Role: JKFIT
    Keyword: DF_BASIS_SCF
    atoms 1-6  entry C          line   125 file /home/akrom/software/anaconda3/envs/ffpenv/share/psi4/basis/cc-pvtz-jkfit.gbs 
    atoms 7-12 entry H          line    51 file /home/akrom/software/anaconda3/envs/ffpenv/share/psi4/basis/cc-pvtz-jkfit.gbs 

  ==> Pre-Iterations <==

   -------------------------------------------------------
    Irrep   Nso     Nmo     Nalpha   Nbeta   Ndocc  Nsocc
   -------------------------------------------------------
     Ag        90      90       0       0       0       0
     Bg        42      42       0       0       0       0
     Au        42      42       0       0       0       0
     Bu        90      90       0       0       0       0
   -------------------------------------------------------
    Total     264     264      21      21      21       0
   -------------------------------------------------------

  ==> Integral Setup <==

  DFHelper Memory: AOs need 0.348 GiB; user supplied 0.366 GiB. Using in-core AOs.

  ==> MemDFJK: Density-Fitted J/K Matrices <==

    J tasked:                   Yes
    K tasked:                   Yes
    wK tasked:                   No
    OpenMP threads:               1
    Memory [MiB]:               375
    Algorithm:                 Core
    Schwarz Cutoff:           1E-12
    Mask sparsity (%):       2.7577
    Fitting Condition:        1E-10

   => Auxiliary Basis Set <=

  Basis Set: (CC-PVTZ AUX)
    Blend: CC-PVTZ-JKFIT
    Number of shells: 210
    Number of basis function: 654
    Number of Cartesian functions: 786
    Spherical Harmonics?: true
    Max angular momentum: 4

  Minimum eigenvalue in the overlap matrix is 4.0032826849E-05.
  Using Symmetric Orthogonalization.

  SCF Guess: Superposition of Atomic Densities via on-the-fly atomic UHF.

  ==> Iterations <==

                           Total Energy        Delta E     RMS |[F,P]|

   @DF-RHF iter SAD:  -230.10155286084918   -2.30102e+02   0.00000e+00 
   @DF-RHF iter   1:  -230.63721542777193   -5.35663e-01   3.34119e-03 DIIS
   @DF-RHF iter   2:  -230.74981604144179   -1.12601e-01   1.56656e-03 DIIS
   @DF-RHF iter   3:  -230.77430875829413   -2.44927e-02   2.93738e-04 DIIS
   @DF-RHF iter   4:  -230.77572681390831   -1.41806e-03   3.35971e-05 DIIS
   @DF-RHF iter   5:  -230.77574944196698   -2.26281e-05   6.14563e-06 DIIS
   @DF-RHF iter   6:  -230.77575021275624   -7.70789e-07   6.87579e-07 DIIS
   @DF-RHF iter   7:  -230.77575022365602   -1.08998e-08   7.83115e-08 DIIS
   @DF-RHF iter   8:  -230.77575022380336   -1.47338e-10   1.17999e-08 DIIS
   @DF-RHF iter   9:  -230.77575022380594   -2.58638e-12   4.43543e-09 DIIS
   @DF-RHF iter  10:  -230.77575022380609   -1.42109e-13   9.31892e-10 DIIS
   @DF-RHF iter  11:  -230.77575022380634   -2.55795e-13   1.35825e-10 DIIS
   @DF-RHF iter  12:  -230.77575022380626    8.52651e-14   1.47730e-11 DIIS
  Energy and wave function converged.


  ==> Post-Iterations <==

    Orbital Energies [Eh]
    ---------------------

    Doubly Occupied:                                                      

       1Ag   -11.239526     1Bu   -11.238982     2Bu   -11.238980  
       2Ag   -11.237804     3Ag   -11.237802     3Bu   -11.237226  
       4Ag    -1.141838     4Bu    -1.008630     5Bu    -1.008624  
       5Ag    -0.818796     6Ag    -0.818783     7Ag    -0.701609  
       6Bu    -0.640686     7Bu    -0.613390     8Bu    -0.582952  
       9Bu    -0.582949     1Au    -0.496848     8Ag    -0.491819  
       9Ag    -0.491790     1Bg    -0.333774     2Bg    -0.333764  

    Virtual:                                                              

       2Au     0.125720     3Au     0.125734    10Ag     0.145140  
      10Bu     0.169733    11Bu     0.169734    11Ag     0.200605  
      12Ag     0.200605    12Bu     0.220504     3Bg     0.325735  
      13Ag     0.357484    14Ag     0.357489    13Bu     0.394469  
      14Bu     0.414896    15Bu     0.414907    15Ag     0.417825  
       4Au     0.433401     4Bg     0.475649     5Bg     0.475651  
      16Ag     0.506054    16Bu     0.524830    17Bu     0.524836  
      18Bu     0.546395     5Au     0.573117     6Au     0.573123  
      17Ag     0.583922    18Ag     0.583930    19Bu     0.592216  
      20Bu     0.592221     7Au     0.623808    19Ag     0.638949  
      20Ag     0.640763    21Ag     0.640764    22Ag     0.642480  
       6Bg     0.665279    21Bu     0.699511    23Ag     0.722601  
      24Ag     0.722614    22Bu     0.746880    23Bu     0.746899  
       7Bg     0.840132     8Bg     0.856220     9Bg     0.856225  
      24Bu     0.898890    25Bu     0.898892    25Ag     0.940745  
       8Au     0.952035     9Au     0.952043    26Bu     0.986720  
      26Ag     0.998849    27Ag     1.025781    28Ag     1.025784  
      27Bu     1.085709    10Au     1.118383    28Bu     1.128034  
      10Bg     1.205755    11Au     1.213386    12Au     1.213399  
      29Ag     1.227480    30Ag     1.227488    11Bg     1.286675  
      12Bg     1.286678    29Bu     1.306270    30Bu     1.306283  
      31Ag     1.311758    31Bu     1.376000    32Bu     1.376003  
      33Bu     1.471104    32Ag     1.483637    34Bu     1.494873  
      35Bu     1.494887    13Bg     1.502409    14Bg     1.502415  
      33Ag     1.503658    34Ag     1.503659    13Au     1.582765  
      14Au     1.582785    36Bu     1.605372    35Ag     1.610402  
      36Ag     1.610417    37Bu     1.637362    38Bu     1.637386  
      37Ag     1.714442    38Ag     1.714453    39Ag     1.719977  
      15Bg     1.762340    15Au     1.803538    39Bu     1.887518  
      40Ag     2.078616    41Ag     2.178961    42Ag     2.178990  
      40Bu     2.215558    41Bu     2.284244    42Bu     2.284297  
      16Au     2.331835    43Ag     2.388999    16Bg     2.441655  
      17Bg     2.441668    43Bu     2.458362    44Bu     2.458420  
      45Bu     2.463687    17Au     2.531389    18Au     2.531393  
      18Bg     2.601657    44Ag     2.665699    45Ag     2.737957  
      46Ag     2.737985    46Bu     2.776445    47Bu     2.776451  
      19Au     2.788824    19Bg     2.831037    47Ag     2.893263  
      48Ag     2.893307    48Bu     2.927545    20Au     2.948762  
      21Au     2.948770    22Au     2.995308    20Bg     2.997226  
      21Bg     2.997227    49Bu     3.029832    50Bu     3.029849  
      22Bg     3.061691    23Bg     3.061696    49Ag     3.088951  
      51Bu     3.097126    50Ag     3.150928    51Ag     3.150934  
      23Au     3.225790    24Bg     3.236698    25Bg     3.236707  
      52Ag     3.291069    53Ag     3.291072    52Bu     3.311355  
      53Bu     3.311366    54Ag     3.339661    54Bu     3.361833  
      24Au     3.368888    25Au     3.368911    55Bu     3.383456  
      56Bu     3.383468    55Ag     3.389718    56Ag     3.389754  
      57Ag     3.406274    57Bu     3.447140    26Au     3.453175  
      27Au     3.453192    26Bg     3.461536    58Ag     3.501390  
      28Au     3.607640    29Au     3.607654    27Bg     3.623108  
      58Bu     3.645652    59Bu     3.645663    30Au     3.651425  
      59Ag     3.688599    60Ag     3.688616    60Bu     3.702784  
      61Bu     3.702808    28Bg     3.713142    29Bg     3.713160  
      62Bu     3.751760    61Ag     3.893007    62Ag     3.893030  
      30Bg     3.902145    31Bg     3.903253    63Ag     4.034109  
      31Au     4.050057    32Bg     4.070814    33Bg     4.070821  
      63Bu     4.096190    64Bu     4.096210    64Ag     4.103066  
      65Ag     4.103084    65Bu     4.105843    66Ag     4.110536  
      32Au     4.112873    66Bu     4.149621    33Au     4.156027  
      34Au     4.156033    34Bg     4.197899    35Bg     4.197902  
      67Bu     4.305936    68Bu     4.305941    69Bu     4.346310  
      35Au     4.405142    36Au     4.405145    67Ag     4.410086  
      68Ag     4.436528    69Ag     4.436556    70Ag     4.461735  
      70Bu     4.482709    36Bg     4.486394    71Ag     4.528807  
      72Ag     4.528817    71Bu     4.533578    37Au     4.643047  
      38Au     4.643118    72Bu     4.646208    73Bu     4.646250  
      37Bg     4.649184    38Bg     4.649272    73Ag     4.666654  
      74Ag     4.666670    75Ag     4.847001    76Ag     4.847056  
      77Ag     4.854486    39Au     4.971183    74Bu     5.032153  
      75Bu     5.032199    39Bg     5.032536    76Bu     5.071380  
      77Bu     5.071389    40Bg     5.081687    41Bg     5.081696  
      40Au     5.135401    78Bu     5.215949    78Ag     5.282082  
      79Ag     5.319590    79Bu     5.330720    41Au     5.335043  
      42Au     5.335053    80Ag     5.378863    81Ag     5.378876  
      80Bu     5.491893    81Bu     5.491938    82Bu     5.715332  
      83Bu     5.715385    42Bg     5.758825    82Ag     6.000746  
      83Ag     6.000791    84Bu     6.044494    84Ag     6.235637  
      85Ag     6.235673    86Ag     6.323549    85Bu     6.450765  
      86Bu     6.450811    87Bu     6.805950    87Ag     7.253161  
      88Ag     9.279211    88Bu    12.743196    89Bu    12.743605  
      89Ag    13.310306    90Ag    13.310721    90Bu    15.872710  

    Final Occupation by Irrep:
             Ag    Bg    Au    Bu 
    DOCC [     9,    2,    1,    9 ]

  @DF-RHF Final Energy:  -230.77575022380626

   => Energetics <=

    Nuclear Repulsion Energy =            202.0133089353801665
    One-Electron Energy =                -710.5849745604036798
    Two-Electron Energy =                 277.7959154012172576
    Total Energy =                       -230.7757502238062557

Computation Completed


Properties will be evaluated at   0.000000,   0.000000,   0.000000 [a0]

Properties computed using the SCF density matrix

  Nuclear Dipole Moment: [e a0]
     X:    -0.0000      Y:    -0.0000      Z:     0.0000

  Electronic Dipole Moment: [e a0]
     X:     0.0000      Y:     0.0000      Z:     0.0000

  Dipole Moment: [e a0]
     X:    -0.0000      Y:    -0.0000      Z:     0.0000     Total:     0.0000

  Dipole Moment: [D]
     X:    -0.0000      Y:    -0.0000      Z:     0.0000     Total:     0.0000


*** tstop() called on atlantis at Tue Apr 19 22:43:34 2022
Module time:
	user time   =       5.19 seconds =       0.09 minutes
	system time =       0.08 seconds =       0.00 minutes
	total time  =          5 seconds =       0.08 minutes
Total time:
	user time   =      43.05 seconds =       0.72 minutes
	system time =       1.36 seconds =       0.02 minutes
	total time  =         44 seconds =       0.73 minutes

*** tstart() called on atlantis
*** at Tue Apr 19 22:43:34 2022


  //>>>>>>>>>>>>>>>>>>>>>>>>>>>>>>>>>>>//
  //               DFMP2               //
  //<<<<<<<<<<<<<<<<<<<<<<<<<<<<<<<<<<<//

   => Loading Basis Set <=

    Name: (CC-PVTZ AUX)
    Role: RIFIT
    Keyword: DF_BASIS_MP2
    atoms 1-6  entry C          line   209 file /home/akrom/software/anaconda3/envs/ffpenv/share/psi4/basis/cc-pvtz-ri.gbs 
    atoms 7-12 entry H          line    19 file /home/akrom/software/anaconda3/envs/ffpenv/share/psi4/basis/cc-pvtz-ri.gbs 

	 --------------------------------------------------------
	                          DF-MP2                         
	      2nd-Order Density-Fitted Moller-Plesset Theory     
	              RMP2 Wavefunction,   1 Threads             
	                                                         
	        Rob Parrish, Justin Turney, Andy Simmonett,      
	           Ed Hohenstein, and C. David Sherrill          
	 --------------------------------------------------------

   => Auxiliary Basis Set <=

  Basis Set: (CC-PVTZ AUX)
    Blend: CC-PVTZ-RI
    Number of shells: 198
    Number of basis function: 666
    Number of Cartesian functions: 816
    Spherical Harmonics?: true
    Max angular momentum: 4

	 --------------------------------------------------------
	                 NBF =   264, NAUX =   666
	 --------------------------------------------------------
	   CLASS    FOCC     OCC    AOCC    AVIR     VIR    FVIR
	   PAIRS       0      21      21     243     243       0
	 --------------------------------------------------------

  DFHelper Memory: AOs need 0.348 GiB; user supplied 0.366 GiB. Using in-core AOs.


         ------------------------------------------------------------
                                     CPHF                           
                                  Rob Parrish                       
         ------------------------------------------------------------

  ==> Geometry <==

    Molecular point group: c2h
    Full point group: C2h

    Geometry (in Angstrom), charge = 0, multiplicity = 1:

       Center              X                  Y                   Z               Mass       
    ------------   -----------------  -----------------  -----------------  -----------------
         C           -1.221510000000    -0.693250000000     0.000000000000    12.000000000000
         C           -1.211140000000     0.711220000000     0.000000000000    12.000000000000
         C           -0.010370000000    -1.404520000000     0.000000000000    12.000000000000
         C            0.010370000000     1.404520000000     0.000000000000    12.000000000000
         C            1.211140000000    -0.711220000000     0.000000000000    12.000000000000
         C            1.221510000000     0.693250000000     0.000000000000    12.000000000000
         H           -2.173110000000    -1.233320000000     0.000000000000     1.007825032230
         H           -2.154640000000     1.265330000000     0.000000000000     1.007825032230
         H           -0.018480000000    -2.498650000000     0.000000000000     1.007825032230
         H            0.018480000000     2.498650000000     0.000000000000     1.007825032230
         H            2.154640000000    -1.265330000000     0.000000000000     1.007825032230
         H            2.173110000000     1.233320000000     0.000000000000     1.007825032230

  Nuclear repulsion =  202.013308935380167
  Reference energy  = -230.775750223806256

  ==> Basis Set <==

  Basis Set: CC-PVTZ
    Blend: CC-PVTZ
    Number of shells: 96
    Number of basis function: 264
    Number of Cartesian functions: 300
    Spherical Harmonics?: true
    Max angular momentum: 3

  ==> CGRSolver (by Rob Parrish) <==

   Number of roots    =         1
   Preconditioning    =    JACOBI
   Convergence cutoff =     1E-06
   Maximum iterations =       100

  ==> CPHFRHamiltonian (by Rob Parrish) <== 

  ==> MemDFJK: Density-Fitted J/K Matrices <==

    J tasked:                   Yes
    K tasked:                   Yes
    wK tasked:                   No
    OpenMP threads:               1
    Memory [MiB]:               375
    Algorithm:                 Core
    Schwarz Cutoff:           1E-12
    Mask sparsity (%):       2.7577
    Fitting Condition:        1E-10

   => Auxiliary Basis Set <=

  Basis Set: (CC-PVTZ AUX)
    Blend: CC-PVTZ-JKFIT
    Number of shells: 210
    Number of basis function: 654
    Number of Cartesian functions: 786
    Spherical Harmonics?: true
    Max angular momentum: 4

  ==> CPHF Iterations <==

  => Iterations <=

             Iter  Converged  Remaining    Residual
  CGR           1          0          1   7.663E-02
  CGR           2          0          1   1.271E-02
  CGR           3          0          1   2.268E-03
  CGR           4          0          1   3.885E-04
  CGR           5          0          1   4.799E-05
  CGR           6          0          1   4.517E-06
  CGR           7          1          0   7.196E-07

    CGRSolver converged.

  ==> DFCorrGrad: Density-Fitted Correlated Gradients <==

    OpenMP threads:              1
    Integrals threads:           1
    Memory [GiB]:            0.366
    Schwarz Cutoff:          0E+00
    Fitting Condition:       1E-10

   => Auxiliary Basis Set <=

  Basis Set: (CC-PVTZ AUX)
    Blend: CC-PVTZ-JKFIT
    Number of shells: 210
    Number of basis function: 654
    Number of Cartesian functions: 786
    Spherical Harmonics?: true
    Max angular momentum: 4

	-----------------------------------------------------------
	 ==================> DF-MP2 Energies <==================== 
	-----------------------------------------------------------
	 Reference Energy          =    -230.7757502238062557 [Eh]
	 Singles Energy            =      -0.0000000000000000 [Eh]
	 Same-Spin Energy          =      -0.2520366332953278 [Eh]
	 Opposite-Spin Energy      =      -0.7917741606529108 [Eh]
	 Correlation Energy        =      -1.0438107939482386 [Eh]
	 Total Energy              =    -231.8195610177544950 [Eh]
	-----------------------------------------------------------
	 ================> DF-SCS-MP2 Energies <================== 
	-----------------------------------------------------------
	 SCS Same-Spin Scale       =       0.3333333333333333 [-]
	 SCS Opposite-Spin Scale   =       1.2000000000000000 [-]
	 SCS Same-Spin Energy      =      -0.0840122110984426 [Eh]
	 SCS Opposite-Spin Energy  =      -0.9501289927834929 [Eh]
	 SCS Correlation Energy    =      -1.0341412038819355 [Eh]
	 SCS Total Energy          =    -231.8098914276881999 [Eh]
	-----------------------------------------------------------


  -Total Gradient:
     Atom            X                  Y                   Z
    ------   -----------------  -----------------  -----------------
       1       -0.003246895676    -0.001812373454     0.000000000000
       2       -0.003220151988     0.001852375930     0.000000000000
       3       -0.000019711949    -0.003760045036     0.000000000000
       4        0.000019711949     0.003760045036     0.000000000000
       5        0.003220151988    -0.001852375930     0.000000000000
       6        0.003246895676     0.001812373454     0.000000000000
       7       -0.010440989156    -0.005926254426     0.000000000000
       8       -0.010352411477     0.006086509740     0.000000000000
       9       -0.000091651407    -0.011998143146    -0.000000000000
      10        0.000091651407     0.011998143146    -0.000000000000
      11        0.010352411477    -0.006086509740     0.000000000000
      12        0.010440989156     0.005926254426     0.000000000000


*** tstop() called on atlantis at Tue Apr 19 22:44:01 2022
Module time:
	user time   =      25.85 seconds =       0.43 minutes
	system time =       0.94 seconds =       0.02 minutes
	total time  =         27 seconds =       0.45 minutes
Total time:
	user time   =      68.90 seconds =       1.15 minutes
	system time =       2.30 seconds =       0.04 minutes
	total time  =         71 seconds =       1.18 minutes

  //>>>>>>>>>>>>>>>>>>>>>>>>>>>>>>>>>>>//
  //    Loading displacement 2 of 42   //
  //<<<<<<<<<<<<<<<<<<<<<<<<<<<<<<<<<<<//
gradient() will perform analytic gradient computation.
    SCF Algorithm Type (re)set to DF.

*** tstart() called on atlantis
*** at Tue Apr 19 22:44:01 2022

   => Loading Basis Set <=

    Name: CC-PVTZ
    Role: ORBITAL
    Keyword: BASIS
    atoms 1-6  entry C          line   186 file /home/akrom/software/anaconda3/envs/ffpenv/share/psi4/basis/cc-pvtz.gbs 
    atoms 7-12 entry H          line    23 file /home/akrom/software/anaconda3/envs/ffpenv/share/psi4/basis/cc-pvtz.gbs 


         ---------------------------------------------------------
                                   SCF
               by Justin Turney, Rob Parrish, Andy Simmonett
                          and Daniel G. A. Smith
                              RHF Reference
                        1 Threads,    500 MiB Core
         ---------------------------------------------------------

  ==> Geometry <==

    Molecular point group: c2h
    Full point group: C2h

    Geometry (in Angstrom), charge = 0, multiplicity = 1:

       Center              X                  Y                   Z               Mass       
    ------------   -----------------  -----------------  -----------------  -----------------
         C           -1.222032477591    -0.693313109608     0.000000000000    12.000000000000
         C           -1.211176745353     0.711157426160     0.000000000000    12.000000000000
         C           -0.010297435136    -1.404520535769     0.000000000000    12.000000000000
         C            0.010297435136     1.404520535769     0.000000000000    12.000000000000
         C            1.211176745353    -0.711157426160     0.000000000000    12.000000000000
         C            1.222032477591     0.693313109608     0.000000000000    12.000000000000
         H           -2.173046280225    -1.233432274252     0.000000000000     1.007825032230
         H           -2.154705373579     1.265218680005     0.000000000000     1.007825032230
         H           -0.018350906646    -2.498650954774     0.000000000000     1.007825032230
         H            0.018350906646     2.498650954774     0.000000000000     1.007825032230
         H            2.154705373579    -1.265218680005     0.000000000000     1.007825032230
         H            2.173046280225     1.233432274252     0.000000000000     1.007825032230

  Running in c2h symmetry.

  Rotational constants: A =      0.18753  B =      0.18745  C =      0.09375 [cm^-1]
  Rotational constants: A =   5621.97670  B =   5619.72613  C =   2810.42560 [MHz]
  Nuclear repulsion =  201.998047561272216

  Charge       = 0
  Multiplicity = 1
  Electrons    = 42
  Nalpha       = 21
  Nbeta        = 21

  ==> Algorithm <==

  SCF Algorithm Type is DF.
  DIIS enabled.
  MOM disabled.
  Fractional occupation disabled.
  Guess Type is SAD.
  Energy threshold   = 1.00e-10
  Density threshold  = 1.00e-10
  Integral threshold = 0.00e+00

  ==> Primary Basis <==

  Basis Set: CC-PVTZ
    Blend: CC-PVTZ
    Number of shells: 96
    Number of basis function: 264
    Number of Cartesian functions: 300
    Spherical Harmonics?: true
    Max angular momentum: 3

   => Loading Basis Set <=

    Name: (CC-PVTZ AUX)
    Role: JKFIT
    Keyword: DF_BASIS_SCF
    atoms 1-6  entry C          line   125 file /home/akrom/software/anaconda3/envs/ffpenv/share/psi4/basis/cc-pvtz-jkfit.gbs 
    atoms 7-12 entry H          line    51 file /home/akrom/software/anaconda3/envs/ffpenv/share/psi4/basis/cc-pvtz-jkfit.gbs 

  ==> Pre-Iterations <==

   -------------------------------------------------------
    Irrep   Nso     Nmo     Nalpha   Nbeta   Ndocc  Nsocc
   -------------------------------------------------------
     Ag        90      90       0       0       0       0
     Bg        42      42       0       0       0       0
     Au        42      42       0       0       0       0
     Bu        90      90       0       0       0       0
   -------------------------------------------------------
    Total     264     264      21      21      21       0
   -------------------------------------------------------

  ==> Integral Setup <==

  DFHelper Memory: AOs need 0.348 GiB; user supplied 0.366 GiB. Using in-core AOs.

  ==> MemDFJK: Density-Fitted J/K Matrices <==

    J tasked:                   Yes
    K tasked:                   Yes
    wK tasked:                   No
    OpenMP threads:               1
    Memory [MiB]:               375
    Algorithm:                 Core
    Schwarz Cutoff:           1E-12
    Mask sparsity (%):       2.7577
    Fitting Condition:        1E-10

   => Auxiliary Basis Set <=

  Basis Set: (CC-PVTZ AUX)
    Blend: CC-PVTZ-JKFIT
    Number of shells: 210
    Number of basis function: 654
    Number of Cartesian functions: 786
    Spherical Harmonics?: true
    Max angular momentum: 4

  Minimum eigenvalue in the overlap matrix is 4.0070379218E-05.
  Using Symmetric Orthogonalization.

  SCF Guess: Superposition of Atomic Densities via on-the-fly atomic UHF.

  ==> Iterations <==

                           Total Energy        Delta E     RMS |[F,P]|

   @DF-RHF iter SAD:  -230.10030691816402   -2.30100e+02   0.00000e+00 
   @DF-RHF iter   1:  -230.63729176114663   -5.36985e-01   3.33978e-03 DIIS
   @DF-RHF iter   2:  -230.74983780695885   -1.12546e-01   1.56532e-03 DIIS
   @DF-RHF iter   3:  -230.77429420926325   -2.44564e-02   2.93694e-04 DIIS
   @DF-RHF iter   4:  -230.77571189922173   -1.41769e-03   3.35910e-05 DIIS
   @DF-RHF iter   5:  -230.77573452128780   -2.26221e-05   6.14433e-06 DIIS
   @DF-RHF iter   6:  -230.77573529156183   -7.70274e-07   6.91364e-07 DIIS
   @DF-RHF iter   7:  -230.77573530246374   -1.09019e-08   1.02244e-07 DIIS
   @DF-RHF iter   8:  -230.77573530263118   -1.67432e-10   4.38476e-08 DIIS
   @DF-RHF iter   9:  -230.77573530265363   -2.24532e-11   5.59318e-09 DIIS
   @DF-RHF iter  10:  -230.77573530265454   -9.09495e-13   8.38402e-10 DIIS
   @DF-RHF iter  11:  -230.77573530265460   -5.68434e-14   1.35901e-10 DIIS
   @DF-RHF iter  12:  -230.77573530265431    2.84217e-13   1.57762e-11 DIIS
  Energy and wave function converged.


  ==> Post-Iterations <==

    Orbital Energies [Eh]
    ---------------------

    Doubly Occupied:                                                      

       1Ag   -11.239552     1Bu   -11.239023     2Bu   -11.238993  
       2Ag   -11.237847     3Ag   -11.237814     3Bu   -11.237254  
       4Ag    -1.141741     4Bu    -1.008660     5Bu    -1.008518  
       5Ag    -0.818886     6Ag    -0.818706     7Ag    -0.701610  
       6Bu    -0.640798     7Bu    -0.613319     8Bu    -0.583057  
       9Bu    -0.582881     1Au    -0.496773     8Ag    -0.492002  
       9Ag    -0.491663     1Bg    -0.333807     2Bg    -0.333661  

    Virtual:                                                              

       2Au     0.125607     3Au     0.125773    10Ag     0.145161  
      10Bu     0.169733    11Bu     0.169741    11Ag     0.200593  
      12Ag     0.200598    12Bu     0.220504     3Bg     0.325664  
      13Ag     0.357445    14Ag     0.357495    13Bu     0.394486  
      14Bu     0.414821    15Bu     0.414938    15Ag     0.417874  
       4Au     0.433434     4Bg     0.475657     5Bg     0.475696  
      16Ag     0.506060    16Bu     0.524757    17Bu     0.524831  
      18Bu     0.546408     5Au     0.573087     6Au     0.573158  
      17Ag     0.583799    18Ag     0.583938    19Bu     0.592230  
      20Bu     0.592340     7Au     0.623817    19Ag     0.638901  
      20Ag     0.640757    21Ag     0.640764    22Ag     0.642463  
       6Bg     0.665247    21Bu     0.699442    23Ag     0.722481  
      24Ag     0.722643    22Bu     0.746706    23Bu     0.746901  
       7Bg     0.840079     8Bg     0.856171     9Bg     0.856239  
      24Bu     0.898855    25Bu     0.898891    25Ag     0.940563  
       8Au     0.951978     9Au     0.952022    26Bu     0.986498  
      26Ag     0.998815    27Ag     1.025796    28Ag     1.025827  
      27Bu     1.085714    10Au     1.118422    28Bu     1.128096  
      10Bg     1.205755    11Au     1.213271    12Au     1.213421  
      29Ag     1.227361    30Ag     1.227499    11Bg     1.286642  
      12Bg     1.286692    29Bu     1.306232    30Bu     1.306332  
      31Ag     1.311649    31Bu     1.376011    32Bu     1.376064  
      33Bu     1.471168    32Ag     1.483601    34Bu     1.494677  
      35Bu     1.494821    13Bg     1.502291    14Bg     1.502348  
      33Ag     1.503643    34Ag     1.503744    13Au     1.582692  
      14Au     1.582839    36Bu     1.605442    35Ag     1.610116  
      36Ag     1.610455    37Bu     1.637294    38Bu     1.637450  
      37Ag     1.714397    38Ag     1.714598    39Ag     1.720196  
      15Bg     1.762386    15Au     1.803425    39Bu     1.887408  
      40Ag     2.078599    41Ag     2.178834    42Ag     2.179102  
      40Bu     2.215307    41Bu     2.283948    42Bu     2.284413  
      16Au     2.331829    43Ag     2.388914    16Bg     2.441585  
      17Bg     2.441765    43Bu     2.457949    44Bu     2.458502  
      45Bu     2.463645    17Au     2.531279    18Au     2.531337  
      18Bg     2.601615    44Ag     2.665735    45Ag     2.737697  
      46Ag     2.738059    46Bu     2.776431    47Bu     2.776515  
      19Au     2.788758    19Bg     2.830841    47Ag     2.892892  
      48Ag     2.893350    48Bu     2.927451    20Au     2.948722  
      21Au     2.948807    22Au     2.995415    20Bg     2.997120  
      21Bg     2.997142    49Bu     3.029843    50Bu     3.029999  
      22Bg     3.061708    23Bg     3.061750    49Ag     3.089102  
      51Bu     3.097207    50Ag     3.150733    51Ag     3.150924  
      23Au     3.225684    24Bg     3.236647    25Bg     3.236805  
      52Ag     3.291020    53Ag     3.291144    52Bu     3.311060  
      53Bu     3.311243    54Ag     3.339514    54Bu     3.361539  
      24Au     3.368729    25Au     3.368941    55Bu     3.383483  
      56Bu     3.383623    55Ag     3.389276    56Ag     3.389724  
      57Ag     3.406576    57Bu     3.447303    26Au     3.453112  
      27Au     3.453329    26Bg     3.461511    58Ag     3.501317  
      28Au     3.607516    29Au     3.607662    27Bg     3.623067  
      58Bu     3.645622    59Bu     3.645863    30Au     3.651375  
      59Ag     3.688454    60Ag     3.688647    60Bu     3.702706  
      61Bu     3.703023    28Bg     3.712976    29Bg     3.713105  
      62Bu     3.751633    61Ag     3.892748    62Ag     3.892977  
      30Bg     3.902280    31Bg     3.903086    63Ag     4.034231  
      31Au     4.050010    32Bg     4.070535    33Bg     4.070802  
      63Bu     4.095924    64Bu     4.096193    64Ag     4.102937  
      65Ag     4.103259    65Bu     4.105530    66Ag     4.110339  
      32Au     4.112937    66Bu     4.149302    33Au     4.155942  
      34Au     4.156037    34Bg     4.197910    35Bg     4.197989  
      67Bu     4.305786    68Bu     4.305791    69Bu     4.346700  
      35Au     4.404943    36Au     4.405367    67Ag     4.409985  
      68Ag     4.436385    69Ag     4.437098    70Ag     4.461586  
      70Bu     4.482762    36Bg     4.486449    71Ag     4.528769  
      72Ag     4.529067    71Bu     4.533398    37Au     4.642243  
      38Au     4.643123    72Bu     4.645870    73Bu     4.646370  
      37Bg     4.648662    38Bg     4.649551    73Ag     4.666646  
      74Ag     4.666831    75Ag     4.846682    76Ag     4.847120  
      77Ag     4.854827    39Au     4.971653    39Bg     5.032085  
      74Bu     5.032162    75Bu     5.032728    76Bu     5.071320  
      77Bu     5.071519    40Bg     5.081720    41Bg     5.082258  
      40Au     5.135106    78Bu     5.216155    78Ag     5.282476  
      79Ag     5.319628    79Bu     5.330687    41Au     5.334980  
      42Au     5.335698    80Ag     5.379092    81Ag     5.379161  
      80Bu     5.491876    81Bu     5.492135    82Bu     5.715146  
      83Bu     5.715632    42Bg     5.758936    82Ag     6.000678  
      83Ag     6.001059    84Bu     6.044518    84Ag     6.235229  
      85Ag     6.235579    86Ag     6.322986    85Bu     6.450485  
      86Bu     6.450783    87Bu     6.805617    87Ag     7.252855  
      88Ag     9.280990    88Bu    12.739507    89Bu    12.745052  
      89Ag    13.306256    90Ag    13.311144    90Bu    15.869099  

    Final Occupation by Irrep:
             Ag    Bg    Au    Bu 
    DOCC [     9,    2,    1,    9 ]

  @DF-RHF Final Energy:  -230.77573530265431

   => Energetics <=

    Nuclear Repulsion Energy =            201.9980475612722159
    One-Electron Energy =                -710.5544360767673879
    Two-Electron Energy =                 277.7806532128408890
    Total Energy =                       -230.7757353026543115

Computation Completed


Properties will be evaluated at   0.000000,   0.000000,   0.000000 [a0]

Properties computed using the SCF density matrix

  Nuclear Dipole Moment: [e a0]
     X:     0.0000      Y:     0.0000      Z:     0.0000

  Electronic Dipole Moment: [e a0]
     X:     0.0000      Y:     0.0000      Z:     0.0000

  Dipole Moment: [e a0]
     X:     0.0000      Y:     0.0000      Z:     0.0000     Total:     0.0000

  Dipole Moment: [D]
     X:     0.0000      Y:     0.0000      Z:     0.0000     Total:     0.0000


*** tstop() called on atlantis at Tue Apr 19 22:44:06 2022
Module time:
	user time   =       5.19 seconds =       0.09 minutes
	system time =       0.08 seconds =       0.00 minutes
	total time  =          5 seconds =       0.08 minutes
Total time:
	user time   =      74.10 seconds =       1.24 minutes
	system time =       2.39 seconds =       0.04 minutes
	total time  =         76 seconds =       1.27 minutes

*** tstart() called on atlantis
*** at Tue Apr 19 22:44:06 2022


  //>>>>>>>>>>>>>>>>>>>>>>>>>>>>>>>>>>>//
  //               DFMP2               //
  //<<<<<<<<<<<<<<<<<<<<<<<<<<<<<<<<<<<//

   => Loading Basis Set <=

    Name: (CC-PVTZ AUX)
    Role: RIFIT
    Keyword: DF_BASIS_MP2
    atoms 1-6  entry C          line   209 file /home/akrom/software/anaconda3/envs/ffpenv/share/psi4/basis/cc-pvtz-ri.gbs 
    atoms 7-12 entry H          line    19 file /home/akrom/software/anaconda3/envs/ffpenv/share/psi4/basis/cc-pvtz-ri.gbs 

	 --------------------------------------------------------
	                          DF-MP2                         
	      2nd-Order Density-Fitted Moller-Plesset Theory     
	              RMP2 Wavefunction,   1 Threads             
	                                                         
	        Rob Parrish, Justin Turney, Andy Simmonett,      
	           Ed Hohenstein, and C. David Sherrill          
	 --------------------------------------------------------

   => Auxiliary Basis Set <=

  Basis Set: (CC-PVTZ AUX)
    Blend: CC-PVTZ-RI
    Number of shells: 198
    Number of basis function: 666
    Number of Cartesian functions: 816
    Spherical Harmonics?: true
    Max angular momentum: 4

	 --------------------------------------------------------
	                 NBF =   264, NAUX =   666
	 --------------------------------------------------------
	   CLASS    FOCC     OCC    AOCC    AVIR     VIR    FVIR
	   PAIRS       0      21      21     243     243       0
	 --------------------------------------------------------

  DFHelper Memory: AOs need 0.348 GiB; user supplied 0.366 GiB. Using in-core AOs.


         ------------------------------------------------------------
                                     CPHF                           
                                  Rob Parrish                       
         ------------------------------------------------------------

  ==> Geometry <==

    Molecular point group: c2h
    Full point group: C2h

    Geometry (in Angstrom), charge = 0, multiplicity = 1:

       Center              X                  Y                   Z               Mass       
    ------------   -----------------  -----------------  -----------------  -----------------
         C           -1.222032477591    -0.693313109608     0.000000000000    12.000000000000
         C           -1.211176745353     0.711157426160     0.000000000000    12.000000000000
         C           -0.010297435136    -1.404520535769     0.000000000000    12.000000000000
         C            0.010297435136     1.404520535769     0.000000000000    12.000000000000
[...]
      5   C                0.20  0.05  0.00    0.00 -0.00  0.24    0.00 -0.00 -0.03   
      6   C                0.25 -0.01  0.00   -0.00 -0.00 -0.24   -0.00 -0.00 -0.03   
      7   H               -0.11 -0.24 -0.00    0.00 -0.00  0.33    0.00 -0.00  0.41   
      8   H               -0.04  0.23 -0.00   -0.00  0.00 -0.33   -0.00  0.00  0.41   
      9   H                0.02  0.36 -0.00   -0.00  0.00 -0.33    0.00  0.00  0.41   
     10   H               -0.02 -0.36 -0.00    0.00 -0.00  0.33    0.00 -0.00  0.41   
     11   H                0.04 -0.23 -0.00    0.00 -0.00  0.33    0.00 -0.00  0.41   
     12   H                0.11  0.24 -0.00   -0.00  0.00 -0.33   -0.00  0.00  0.41   

  Vibration                       13                  14                  15          
  Freq [cm^-1]                 940.3574            940.4093            977.1747       
  Irrep                           Bg                  Bg                  Ag          
  Reduced mass [u]              1.2479              1.2479              6.0067        
  Force const [mDyne/A]         0.6501              0.6502              3.3794        
  Turning point v=0 [a0]        0.3203              0.3203              0.1432        
  RMS dev v=0 [a0 u^1/2]        0.2530              0.2530              0.2482        
  Char temp [K]               1352.9650           1353.0396           1405.9368       
  ----------------------------------------------------------------------------------
      1   C               -0.00  0.00 -0.05   -0.00  0.00 -0.07    0.24  0.14  0.00   
      2   C               -0.00 -0.00  0.03   -0.00 -0.00 -0.08    0.24 -0.14 -0.00   
      3   C                0.00  0.00 -0.08    0.00  0.00  0.01    0.00  0.28  0.00   
      4   C                0.00 -0.00  0.08   -0.00 -0.00 -0.01   -0.00 -0.28 -0.00   
      5   C                0.00 -0.00 -0.03    0.00 -0.00  0.08   -0.24  0.14 -0.00   
      6   C               -0.00 -0.00  0.05   -0.00 -0.00  0.07   -0.24 -0.14 -0.00   
      7   H                0.00  0.00  0.34    0.00  0.00  0.46    0.26  0.15 -0.00   
      8   H               -0.00 -0.00 -0.22   -0.00 -0.00  0.53    0.26 -0.15 -0.00   
      9   H                0.00  0.00  0.57    0.00  0.00 -0.07    0.00  0.30 -0.00   
     10   H                0.00 -0.00 -0.57    0.00 -0.00  0.07   -0.00 -0.30  0.00   
     11   H               -0.00 -0.00  0.22   -0.00 -0.00 -0.53   -0.26  0.15  0.00   
     12   H               -0.00  0.00 -0.34   -0.00  0.00 -0.46   -0.26 -0.15  0.00   

  Vibration                       16                  17                  18          
  Freq [cm^-1]                1016.3896           1030.9414           1030.9968       
  Irrep                           Bu                  Au                  Au          
  Reduced mass [u]              6.5431              1.3192              1.3191        
  Force const [mDyne/A]         3.9825              0.8261              0.8261        
  Turning point v=0 [a0]        0.1346              0.2975              0.2975        
  RMS dev v=0 [a0 u^1/2]        0.2434              0.2416              0.2416        
  Char temp [K]               1462.3584           1483.2951           1483.3748       
  ----------------------------------------------------------------------------------
      1   C               -0.25 -0.14  0.00    0.00 -0.00  0.06    0.00 -0.00  0.08   
      2   C                0.25 -0.15  0.00   -0.00 -0.00  0.04   -0.00  0.00 -0.09   
      3   C                0.00  0.29  0.00    0.00  0.00 -0.10    0.00  0.00  0.01   
      4   C                0.00  0.29 -0.00    0.00  0.00 -0.10    0.00  0.00  0.01   
      5   C                0.25 -0.15 -0.00   -0.00 -0.00  0.04   -0.00  0.00 -0.09   
      6   C               -0.25 -0.14 -0.00   -0.00 -0.00  0.06   -0.00 -0.00  0.08   
      7   H               -0.25 -0.14 -0.00    0.00 -0.00 -0.33    0.00 -0.00 -0.47   
      8   H                0.25 -0.15 -0.00   -0.00 -0.00 -0.24   -0.00 -0.00  0.52   
      9   H                0.00  0.29 -0.00    0.00  0.00  0.57    0.00  0.00 -0.05   
     10   H                0.00  0.29 -0.00    0.00  0.00  0.57    0.00  0.00 -0.05   
     11   H                0.25 -0.15 -0.00   -0.00 -0.00 -0.24   -0.00 -0.00  0.52   
     12   H               -0.25 -0.14  0.00   -0.00  0.00 -0.33    0.00 -0.00 -0.47   

  Vibration                       19                  20                  21          
  Freq [cm^-1]                1047.1826           1056.1869           1056.2183       
  Irrep                           Bg                  Bu                  Bu          
  Reduced mass [u]              1.1545              1.9211              1.9208        
  Force const [mDyne/A]         0.7459              1.2627              1.2625        
  Turning point v=0 [a0]        0.3156              0.2436              0.2436        
  RMS dev v=0 [a0 u^1/2]        0.2398              0.2387              0.2387        
  Char temp [K]               1506.6626           1519.6178           1519.6630       
  ----------------------------------------------------------------------------------
      1   C                0.00  0.00 -0.05    0.11 -0.03 -0.00   -0.07 -0.10 -0.00   
      2   C                0.00 -0.00  0.05   -0.09 -0.05  0.00   -0.08  0.10  0.00   
      3   C               -0.00 -0.00  0.05   -0.01  0.13  0.00    0.10  0.01  0.00   
      4   C               -0.00 -0.00 -0.05   -0.01  0.13 -0.00    0.10  0.01 -0.00   
      5   C                0.00 -0.00 -0.05   -0.09 -0.05 -0.00   -0.08  0.10 -0.00   
      6   C               -0.00  0.00  0.05    0.11 -0.03 -0.00   -0.07 -0.10  0.00   
      7   H               -0.00  0.00  0.41    0.29 -0.34  0.00    0.05 -0.33  0.00   
      8   H                0.00 -0.00 -0.41   -0.30 -0.39 -0.00   -0.00  0.26 -0.00   
      9   H               -0.00 -0.00 -0.41   -0.05  0.14 -0.00    0.53  0.01 -0.00   
     10   H               -0.00 -0.00  0.41   -0.05  0.14  0.00    0.53  0.01  0.00   
     11   H                0.00 -0.00  0.41   -0.30 -0.39  0.00   -0.00  0.26  0.00   
     12   H               -0.00  0.00 -0.41    0.29 -0.34 -0.00    0.05 -0.33 -0.00   

  Vibration                       22                  23                  24          
  Freq [cm^-1]                1205.7721           1215.9217           1215.9768       
  Irrep                           Bu                  Ag                  Ag          
  Reduced mass [u]              1.1189              1.1904              1.1903        
  Force const [mDyne/A]         0.9585              1.0369              1.0370        
  Turning point v=0 [a0]        0.2987              0.2884              0.2884        
  RMS dev v=0 [a0 u^1/2]        0.2234              0.2225              0.2225        
  Char temp [K]               1734.8376           1749.4406           1749.5198       
  ----------------------------------------------------------------------------------
      1   C               -0.02  0.04  0.00   -0.02  0.03 -0.00    0.03 -0.06  0.00   
      2   C               -0.02 -0.04 -0.00    0.02  0.03 -0.00    0.03  0.06  0.00   
      3   C                0.04 -0.00  0.00    0.07 -0.00 -0.00    0.00  0.01  0.00   
      4   C                0.04 -0.00 -0.00   -0.07  0.00  0.00   -0.00 -0.01  0.00   
      5   C               -0.02 -0.04  0.00   -0.02 -0.03 -0.00   -0.03 -0.06  0.00   
      6   C               -0.02  0.04 -0.00    0.02 -0.03  0.00   -0.03  0.06 -0.00   
      7   H               -0.20  0.35 -0.00   -0.16  0.27  0.00    0.23 -0.42 -0.00   
      8   H               -0.21 -0.35 -0.00    0.14  0.22  0.00    0.26  0.44 -0.00   
      9   H                0.41 -0.00 -0.00    0.57 -0.00  0.00    0.03  0.01 -0.00   
     10   H                0.41 -0.00 -0.00   -0.57  0.00 -0.00   -0.03 -0.01 -0.00   
     11   H               -0.21 -0.35 -0.00   -0.14 -0.22  0.00   -0.26 -0.44 -0.00   
     12   H               -0.20  0.35  0.00    0.16 -0.27 -0.00   -0.23  0.42  0.00   

  Vibration                       25                  26                  27          
  Freq [cm^-1]                1397.3462           1405.5040           1508.5134       
  Irrep                           Ag                  Bu                  Bu          
  Reduced mass [u]              1.2479              5.4997              1.7727        
  Force const [mDyne/A]         1.4356              6.4010              2.3767        
  Turning point v=0 [a0]        0.2628              0.1248              0.2122        
  RMS dev v=0 [a0 u^1/2]        0.2076              0.2070              0.1998        
  Char temp [K]               2010.4701           2022.2074           2170.4150       
  ----------------------------------------------------------------------------------
      1   C               -0.03  0.05 -0.00   -0.13  0.23  0.00    0.08 -0.09 -0.00   
      2   C                0.03  0.05 -0.00   -0.13 -0.22 -0.00   -0.09 -0.06  0.00   
      3   C               -0.06  0.00  0.00    0.26 -0.00 -0.00    0.02  0.08 -0.00   
      4   C                0.06 -0.00 -0.00    0.26 -0.00  0.00    0.02  0.08  0.00   
      5   C               -0.03 -0.05  0.00   -0.13 -0.22 -0.00   -0.09 -0.06  0.00   
      6   C                0.03 -0.05 -0.00   -0.13  0.23  0.00    0.08 -0.09  0.00   
      7   H                0.20 -0.35 -0.00    0.15 -0.27  0.00   -0.22  0.46  0.00   
      8   H               -0.20 -0.35 -0.00    0.16  0.27  0.00    0.16  0.40 -0.00   
      9   H                0.40 -0.00 -0.00   -0.31  0.00  0.00   -0.08  0.10  0.00   
     10   H               -0.40  0.00 -0.00   -0.31  0.00  0.00   -0.08  0.10  0.00   
     11   H                0.20  0.35 -0.00    0.16  0.27  0.00    0.16  0.40 -0.00   
     12   H               -0.20  0.35  0.00    0.15 -0.27 -0.00   -0.22  0.46 -0.00   

  Vibration                       28                  29                  30          
  Freq [cm^-1]                1508.5169           1600.9921           1601.0988       
  Irrep                           Bu                  Ag                  Ag          
  Reduced mass [u]              1.7729              4.2659              4.2669        
  Force const [mDyne/A]         2.3771              6.4423              6.4446        
  Turning point v=0 [a0]        0.2122              0.1328              0.1328        
  RMS dev v=0 [a0 u^1/2]        0.1998              0.1939              0.1939        
  Char temp [K]               2170.4200           2303.4712           2303.6247       
  ----------------------------------------------------------------------------------
      1   C                0.04  0.08 -0.00   -0.17  0.08 -0.00   -0.06  0.24  0.00   
      2   C                0.01 -0.10  0.00    0.17  0.05 -0.00   -0.07 -0.25  0.00   
      3   C               -0.13  0.01 -0.00    0.28 -0.01 -0.00   -0.01 -0.13  0.00   
      4   C               -0.13  0.01 -0.00   -0.28  0.01 -0.00    0.01  0.13  0.00   
      5   C                0.01 -0.10 -0.00   -0.17 -0.05 -0.00    0.07  0.25  0.00   
      6   C                0.04  0.08 -0.00    0.17 -0.08  0.00    0.06 -0.24 -0.00   
      7   H                0.18 -0.13 -0.00    0.01 -0.28  0.00    0.26 -0.30 -0.00   
      8   H                0.24  0.26 -0.00    0.01 -0.25  0.00    0.27  0.31 -0.00   
      9   H                0.54  0.01  0.00   -0.46 -0.00  0.00    0.02 -0.15 -0.00   
     10   H                0.54  0.01  0.00    0.46  0.00  0.00   -0.02  0.15 -0.00   
     11   H                0.24  0.26  0.00   -0.01  0.25  0.00   -0.27 -0.31 -0.00   
     12   H                0.18 -0.13  0.00   -0.01  0.28 -0.00   -0.26  0.30  0.00   

  Vibration                       31                  32                  33          
  Freq [cm^-1]                3042.5510           3059.8712           3059.9952       
  Irrep                           Bu                  Ag                  Ag          
  Reduced mass [u]              1.0837              1.0885              1.0885        
  Force const [mDyne/A]         5.9108              6.0048              6.0053        
  Turning point v=0 [a0]        0.1911              0.1901              0.1901        
  RMS dev v=0 [a0 u^1/2]        0.1407              0.1403              0.1403        
  Char temp [K]               4377.5535           4402.4734           4402.6518       
  ----------------------------------------------------------------------------------
      1   C                0.03  0.02 -0.00    0.04  0.02 -0.00    0.02  0.02  0.00   
      2   C               -0.03  0.02  0.00   -0.04  0.02  0.00    0.02 -0.01 -0.00   
      3   C               -0.00 -0.03  0.00   -0.00  0.01 -0.00   -0.00 -0.05 -0.00   
      4   C               -0.00 -0.03  0.00    0.00 -0.01 -0.00    0.00  0.05  0.00   
      5   C               -0.03  0.02 -0.00    0.04 -0.02  0.00   -0.02  0.01  0.00   
      6   C                0.03  0.02 -0.00   -0.04 -0.02 -0.00   -0.02 -0.02 -0.00   
      7   H               -0.35 -0.20  0.00   -0.40 -0.23  0.00   -0.30 -0.17 -0.00   
      8   H                0.35 -0.21 -0.00    0.46 -0.27  0.00   -0.20  0.12  0.00   
      9   H                0.00  0.41 -0.00    0.00 -0.06  0.00    0.00  0.57  0.00   
     10   H                0.00  0.41 -0.00   -0.00  0.06  0.00   -0.00 -0.57 -0.00   
     11   H                0.35 -0.21 -0.00   -0.46  0.27 -0.00    0.20 -0.12  0.00   
     12   H               -0.35 -0.20 -0.00    0.40  0.23 -0.00    0.30  0.17  0.00   

  Vibration                       34                  35                  36          
  Freq [cm^-1]                3081.5964           3081.7112           3096.0465       
  Irrep                           Bu                  Bu                  Ag          
  Reduced mass [u]              1.0956              1.0956              1.1000        
  Force const [mDyne/A]         6.1300              6.1304              6.2124        
  Turning point v=0 [a0]        0.1888              0.1888              0.1880        
  RMS dev v=0 [a0 u^1/2]        0.1398              0.1398              0.1394        
  Char temp [K]               4433.7312           4433.8963           4454.5216       
  ----------------------------------------------------------------------------------
      1   C               -0.03 -0.02 -0.00   -0.03 -0.01 -0.00   -0.03 -0.02  0.00   
      2   C               -0.04  0.03 -0.00    0.02 -0.01  0.00   -0.03  0.02 -0.00   
      3   C                0.00  0.01 -0.00    0.00 -0.05 -0.00   -0.00 -0.04  0.00   
      4   C                0.00  0.01  0.00    0.00 -0.05 -0.00    0.00  0.04  0.00   
      5   C               -0.04  0.03 -0.00    0.02 -0.01  0.00    0.03 -0.02 -0.00   
      6   C               -0.03 -0.02 -0.00   -0.03 -0.01  0.00    0.03  0.02 -0.00   
      7   H                0.39  0.23 -0.00    0.31  0.17  0.00    0.35  0.20 -0.00   
      8   H                0.46 -0.27  0.00   -0.19  0.11  0.00    0.35 -0.21  0.00   
      9   H               -0.01 -0.08  0.00    0.00  0.57  0.00    0.00  0.41 -0.00   
     10   H               -0.01 -0.08  0.00    0.00  0.57 -0.00   -0.00 -0.41  0.00   
     11   H                0.46 -0.27 -0.00   -0.19  0.11 -0.00   -0.35  0.21  0.00   
     12   H                0.39  0.23 -0.00    0.31  0.17 -0.00   -0.35 -0.20 -0.00   

  ==> Thermochemistry Components <==

  Entropy, S
    Electronic S            0.000 [cal/(mol K)]        0.000 [J/(mol K)]       0.00000000 [mEh/K] (multiplicity = 1)
    Translational S        38.979 [cal/(mol K)]      163.089 [J/(mol K)]       0.06211726 [mEh/K] (mol. weight = 78.0470 [u], P = 101325.00 [Pa])
    Rotational S           24.318 [cal/(mol K)]      101.746 [J/(mol K)]       0.03875307 [mEh/K] (symmetry no. = 2)
    Vibrational S           3.956 [cal/(mol K)]       16.553 [J/(mol K)]       0.00630455 [mEh/K]
  Total S                  67.253 [cal/(mol K)]      281.388 [J/(mol K)]       0.10717489 [mEh/K]
  Correction S              0.000 [cal/(mol K)]        0.000 [J/(mol K)]       0.00000000 [mEh/K]

  Constant volume heat capacity, Cv
    Electronic Cv           0.000 [cal/(mol K)]        0.000 [J/(mol K)]       0.00000000 [mEh/K]
    Translational Cv        2.981 [cal/(mol K)]       12.472 [J/(mol K)]       0.00475022 [mEh/K]
    Rotational Cv           2.981 [cal/(mol K)]       12.472 [J/(mol K)]       0.00475022 [mEh/K]
    Vibrational Cv         10.538 [cal/(mol K)]       44.091 [J/(mol K)]       0.01679335 [mEh/K]
  Total Cv                 16.500 [cal/(mol K)]       69.034 [J/(mol K)]       0.02629378 [mEh/K]
  Correction Cv             0.000 [cal/(mol K)]        0.000 [J/(mol K)]       0.00000000 [mEh/K]

  Constant pressure heat capacity, Cp
    Electronic Cp           0.000 [cal/(mol K)]        0.000 [J/(mol K)]       0.00000000 [mEh/K]
    Translational Cp        4.968 [cal/(mol K)]       20.786 [J/(mol K)]       0.00791703 [mEh/K]
    Rotational Cp           2.981 [cal/(mol K)]       12.472 [J/(mol K)]       0.00475022 [mEh/K]
    Vibrational Cp         10.538 [cal/(mol K)]       44.091 [J/(mol K)]       0.01679335 [mEh/K]
  Total Cp                 18.487 [cal/(mol K)]       77.349 [J/(mol K)]       0.02946060 [mEh/K]
  Correction Cp             0.000 [cal/(mol K)]        0.000 [J/(mol K)]       0.00000000 [mEh/K]

  ==> Thermochemistry Energy Analysis <==

  Raw electronic energy, E0
  Total E0, Electronic energy at well bottom at 0 [K]                 -231.81956102 [Eh]

  Zero-point energy, ZPE_vib = Sum_i nu_i / 2
    Electronic ZPE          0.000 [kcal/mol]        0.000 [kJ/mol]       0.00000000 [Eh]
    Translational ZPE       0.000 [kcal/mol]        0.000 [kJ/mol]       0.00000000 [Eh]
    Rotational ZPE          0.000 [kcal/mol]        0.000 [kJ/mol]       0.00000000 [Eh]
    Vibrational ZPE        62.649 [kcal/mol]      262.125 [kJ/mol]       0.09983806 [Eh]       21911.921 [cm^-1]
  Correction ZPE           62.649 [kcal/mol]      262.125 [kJ/mol]       0.09983806 [Eh]       21911.921 [cm^-1]
  Total ZPE, Electronic energy at 0 [K]                               -231.71972296 [Eh]

  Thermal Energy, E (includes ZPE)
    Electronic E            0.000 [kcal/mol]        0.000 [kJ/mol]       0.00000000 [Eh]
    Translational E         0.889 [kcal/mol]        3.718 [kJ/mol]       0.00141628 [Eh]
    Rotational E            0.889 [kcal/mol]        3.718 [kJ/mol]       0.00141628 [Eh]
    Vibrational E          63.540 [kcal/mol]      265.852 [kJ/mol]       0.10125781 [Eh]
  Correction E             65.318 [kcal/mol]      273.289 [kJ/mol]       0.10409036 [Eh]
  Total E, Electronic energy at  298.15 [K]                           -231.71547066 [Eh]

  Enthalpy, H_trans = E_trans + k_B * T
    Electronic H            0.000 [kcal/mol]        0.000 [kJ/mol]       0.00000000 [Eh]
    Translational H         1.481 [kcal/mol]        6.197 [kJ/mol]       0.00236046 [Eh]
    Rotational H            0.889 [kcal/mol]        3.718 [kJ/mol]       0.00141628 [Eh]
    Vibrational H          63.540 [kcal/mol]      265.852 [kJ/mol]       0.10125781 [Eh]
  Correction H             65.910 [kcal/mol]      275.768 [kJ/mol]       0.10503455 [Eh]
  Total H, Enthalpy at  298.15 [K]                                    -231.71452647 [Eh]

  Gibbs free energy, G = H - T * S
    Electronic G            0.000 [kcal/mol]        0.000 [kJ/mol]       0.00000000 [Eh]
    Translational G       -10.140 [kcal/mol]      -42.428 [kJ/mol]      -0.01615980 [Eh]
    Rotational G           -6.362 [kcal/mol]      -26.617 [kJ/mol]      -0.01013795 [Eh]
    Vibrational G          62.361 [kcal/mol]      260.917 [kJ/mol]       0.09937811 [Eh]
  Correction G             45.859 [kcal/mol]      191.872 [kJ/mol]       0.07308035 [Eh]
  Total G, Free enthalpy at  298.15 [K]                               -231.74648066 [Eh]

    Psi4 stopped on: Tuesday, 19 April 2022 11:06PM
    Psi4 wall time for execution: 0:23:26.55

*** Psi4 exiting successfully. Buy a developer a beer!
