
    -----------------------------------------------------------------------
          Psi4: An Open-Source Ab Initio Electronic Structure Package
                               Psi4 1.3.2 release

                         Git: Rev {HEAD} ecbda83 


    R. M. Parrish, L. A. Burns, D. G. A. Smith, A. C. Simmonett,
    A. E. DePrince III, E. G. Hohenstein, U. Bozkaya, A. Yu. Sokolov,
    R. Di Remigio, R. M. Richard, J. F. Gonthier, A. M. James,
    H. R. McAlexander, A. Kumar, M. Saitow, X. Wang, B. P. Pritchard,
    P. Verma, H. F. Schaefer III, K. Patkowski, R. A. King, E. F. Valeev,
    F. A. Evangelista, J. M. Turney, T. D. Crawford, and C. D. Sherrill,
    J. Chem. Theory Comput. 13(7) pp 3185--3197 (2017).
    (doi: 10.1021/acs.jctc.7b00174)


                         Additional Contributions by
    P. Kraus, H. Kruse, M. H. Lechner, M. C. Schieber, R. A. Shaw,
    A. Alenaizan, R. Galvelis, Z. L. Glick, S. Lehtola, and J. P. Misiewicz

    -----------------------------------------------------------------------


    Psi4 started on: Tuesday, 19 April 2022 10:00PM

    Process ID: 10089
    Host:       atlantis
    PSIDATADIR: /home/akrom/software/anaconda3/envs/ffpenv/share/psi4
    Memory:     500.0 MiB
    Threads:    1
    
  ==> Input File <==

--------------------------------------------------------------------------
set basis  6-31G
molecule {
0 1
   C       -1.22151       -0.69325        0.00000
   C       -1.21114        0.71122        0.00000
   C       -0.01037       -1.40452        0.00000
   C        0.01037        1.40452        0.00000
   C        1.21114       -0.71122        0.00000
   C        1.22151        0.69325        0.00000
   H       -2.17311       -1.23332        0.00000
   H       -2.15464        1.26533        0.00000
   H       -0.01848       -2.49865        0.00000
   H        0.01848        2.49865        0.00000
   H        2.15464       -1.26533        0.00000
   H        2.17311        1.23332        0.00000
}
energy('MP2')
frequencies('MP2')
--------------------------------------------------------------------------
    SCF Algorithm Type (re)set to DF.

*** tstart() called on atlantis
*** at Tue Apr 19 22:00:15 2022

   => Loading Basis Set <=

    Name: 6-31G
    Role: ORBITAL
    Keyword: BASIS
    atoms 1-6  entry C          line    87 file /home/akrom/software/anaconda3/envs/ffpenv/share/psi4/basis/6-31g.gbs 
    atoms 7-12 entry H          line    26 file /home/akrom/software/anaconda3/envs/ffpenv/share/psi4/basis/6-31g.gbs 


         ---------------------------------------------------------
                                   SCF
               by Justin Turney, Rob Parrish, Andy Simmonett
                          and Daniel G. A. Smith
                              RHF Reference
                        1 Threads,    500 MiB Core
         ---------------------------------------------------------

  ==> Geometry <==

    Molecular point group: c2h
    Full point group: C2h

    Geometry (in Angstrom), charge = 0, multiplicity = 1:

       Center              X                  Y                   Z               Mass       
    ------------   -----------------  -----------------  -----------------  -----------------
         C           -1.221510000000    -0.693250000000     0.000000000000    12.000000000000
         C           -1.211140000000     0.711220000000     0.000000000000    12.000000000000
         C           -0.010370000000    -1.404520000000     0.000000000000    12.000000000000
         C            0.010370000000     1.404520000000     0.000000000000    12.000000000000
         C            1.211140000000    -0.711220000000     0.000000000000    12.000000000000
         C            1.221510000000     0.693250000000     0.000000000000    12.000000000000
         H           -2.173110000000    -1.233320000000     0.000000000000     1.007825032230
         H           -2.154640000000     1.265330000000     0.000000000000     1.007825032230
         H           -0.018480000000    -2.498650000000     0.000000000000     1.007825032230
         H            0.018480000000     2.498650000000     0.000000000000     1.007825032230
         H            2.154640000000    -1.265330000000     0.000000000000     1.007825032230
         H            2.173110000000     1.233320000000     0.000000000000     1.007825032230

  Running in c2h symmetry.

  Rotational constants: A =      0.18753  B =      0.18752  C =      0.09376 [cm^-1]
  Rotational constants: A =   5621.92707  B =   5621.82252  C =   2810.93740 [MHz]
  Nuclear repulsion =  202.013308935380167

  Charge       = 0
  Multiplicity = 1
  Electrons    = 42
  Nalpha       = 21
  Nbeta        = 21

  ==> Algorithm <==

  SCF Algorithm Type is DF.
  DIIS enabled.
  MOM disabled.
  Fractional occupation disabled.
  Guess Type is SAD.
  Energy threshold   = 1.00e-08
  Density threshold  = 1.00e-08
  Integral threshold = 0.00e+00

  ==> Primary Basis <==

  Basis Set: 6-31G
    Blend: 6-31G
    Number of shells: 42
    Number of basis function: 66
    Number of Cartesian functions: 66
    Spherical Harmonics?: false
    Max angular momentum: 1

   => Loading Basis Set <=

    Name: (6-31G AUX)
    Role: JKFIT
    Keyword: DF_BASIS_SCF
    atoms 1-6  entry C          line   121 file /home/akrom/software/anaconda3/envs/ffpenv/share/psi4/basis/cc-pvdz-jkfit.gbs 
    atoms 7-12 entry H          line    51 file /home/akrom/software/anaconda3/envs/ffpenv/share/psi4/basis/cc-pvdz-jkfit.gbs 

  ==> Pre-Iterations <==

   -------------------------------------------------------
    Irrep   Nso     Nmo     Nalpha   Nbeta   Ndocc  Nsocc
   -------------------------------------------------------
     Ag        27      27       0       0       0       0
     Bg         6       6       0       0       0       0
     Au         6       6       0       0       0       0
     Bu        27      27       0       0       0       0
   -------------------------------------------------------
    Total      66      66      21      21      21       0
   -------------------------------------------------------

  ==> Integral Setup <==

  DFHelper Memory: AOs need 0.024 GiB; user supplied 0.366 GiB. Using in-core AOs.

  ==> MemDFJK: Density-Fitted J/K Matrices <==

    J tasked:                   Yes
    K tasked:                   Yes
    wK tasked:                   No
    OpenMP threads:               1
    Memory [MiB]:               375
    Algorithm:                 Core
    Schwarz Cutoff:           1E-12
    Mask sparsity (%):       0.8264
    Fitting Condition:        1E-10

   => Auxiliary Basis Set <=

  Basis Set: (6-31G AUX)
    Blend: CC-PVDZ-JKFIT
    Number of shells: 198
    Number of basis function: 636
    Number of Cartesian functions: 636
    Spherical Harmonics?: false
    Max angular momentum: 3

  Minimum eigenvalue in the overlap matrix is 7.4644964947E-04.
  Using Symmetric Orthogonalization.

  SCF Guess: Superposition of Atomic Densities via on-the-fly atomic UHF.

  ==> Iterations <==

                           Total Energy        Delta E     RMS |[F,P]|

   @DF-RHF iter SAD:  -229.81440913985529   -2.29814e+02   0.00000e+00 
   @DF-RHF iter   1:  -230.54854647016725   -7.34137e-01   7.99875e-03 DIIS
   @DF-RHF iter   2:  -230.61400548111376   -6.54590e-02   2.56529e-03 DIIS
   @DF-RHF iter   3:  -230.62023044695863   -6.22497e-03   5.58225e-04 DIIS
   @DF-RHF iter   4:  -230.62067233155662   -4.41885e-04   4.22246e-05 DIIS
   @DF-RHF iter   5:  -230.62067514075346   -2.80920e-06   3.66642e-06 DIIS
   @DF-RHF iter   6:  -230.62067516026309   -1.95096e-08   4.36247e-07 DIIS
   @DF-RHF iter   7:  -230.62067516051303   -2.49941e-10   5.71021e-08 DIIS
   @DF-RHF iter   8:  -230.62067516051690   -3.86535e-12   1.94573e-08 DIIS
   @DF-RHF iter   9:  -230.62067516051729   -3.97904e-13   2.21996e-09 DIIS
  Energy and wave function converged.


  ==> Post-Iterations <==

    Orbital Energies [Eh]
    ---------------------

    Doubly Occupied:                                                      

       1Ag   -11.243074     1Bu   -11.242558     2Bu   -11.242556  
       2Ag   -11.241423     3Ag   -11.241421     3Bu   -11.240875  
       4Ag    -1.145534     4Bu    -1.010154     5Bu    -1.010147  
       5Ag    -0.818011     6Ag    -0.817998     7Ag    -0.703404  
       6Bu    -0.636263     7Bu    -0.612738     8Bu    -0.582481  
       9Bu    -0.582479     1Au    -0.495254     8Ag    -0.485767  
       9Ag    -0.485737     1Bg    -0.331739     2Bg    -0.331728  

    Virtual:                                                              

       2Au     0.143409     3Au     0.143424    10Ag     0.230172  
      10Bu     0.287667    11Bu     0.287670    11Ag     0.326684  
      12Ag     0.326686    12Bu     0.331215     3Bg     0.356331  
      13Ag     0.466024    14Ag     0.466037    13Bu     0.491335  
      14Bu     0.491359    15Bu     0.685719     4Au     0.755367  
      16Bu     0.761465    15Ag     0.763799    16Ag     0.781726  
      17Ag     0.836196     4Bg     0.845667     5Bg     0.845672  
      18Ag     0.868510    19Ag     0.868534    17Bu     0.895892  
      18Bu     0.895903     5Au     0.914164     6Au     0.914170  
       6Bg     0.988635    19Bu     1.126541    20Ag     1.128070  
      21Ag     1.128074    20Bu     1.157714    21Bu     1.157727  
      22Ag     1.235530    23Ag     1.262709    22Bu     1.266818  
      23Bu     1.266852    24Ag     1.356223    25Ag     1.356229  
      24Bu     1.431179    25Bu     1.431194    26Bu     1.467557  
      26Ag     1.716828    27Ag     1.716852    27Bu     2.152576  

    Final Occupation by Irrep:
             Ag    Bg    Au    Bu 
    DOCC [     9,    2,    1,    9 ]

  @DF-RHF Final Energy:  -230.62067516051729

   => Energetics <=

    Nuclear Repulsion Energy =            202.0133089353801665
    One-Electron Energy =                -710.2652783397754774
    Two-Electron Energy =                 277.6312942438780169
    Total Energy =                       -230.6206751605172940

Computation Completed


Properties will be evaluated at   0.000000,   0.000000,   0.000000 [a0]

Properties computed using the SCF density matrix

  Nuclear Dipole Moment: [e a0]
     X:    -0.0000      Y:    -0.0000      Z:     0.0000

  Electronic Dipole Moment: [e a0]
     X:     0.0000      Y:     0.0000      Z:     0.0000

  Dipole Moment: [e a0]
     X:    -0.0000      Y:    -0.0000      Z:     0.0000     Total:     0.0000

  Dipole Moment: [D]
     X:    -0.0000      Y:    -0.0000      Z:     0.0000     Total:     0.0000


*** tstop() called on atlantis at Tue Apr 19 22:00:16 2022
Module time:
	user time   =       0.91 seconds =       0.02 minutes
	system time =       0.04 seconds =       0.00 minutes
	total time  =          1 seconds =       0.02 minutes
Total time:
	user time   =       0.91 seconds =       0.02 minutes
	system time =       0.04 seconds =       0.00 minutes
	total time  =          1 seconds =       0.02 minutes

*** tstart() called on atlantis
*** at Tue Apr 19 22:00:16 2022


  //>>>>>>>>>>>>>>>>>>>>>>>>>>>>>>>>>>>//
  //               DFMP2               //
  //<<<<<<<<<<<<<<<<<<<<<<<<<<<<<<<<<<<//

   => Loading Basis Set <=

    Name: (6-31G AUX)
    Role: RIFIT
    Keyword: DF_BASIS_MP2
    atoms 1-6  entry C          line   159 file /home/akrom/software/anaconda3/envs/ffpenv/share/psi4/basis/cc-pvdz-ri.gbs 
    atoms 7-12 entry H          line    19 file /home/akrom/software/anaconda3/envs/ffpenv/share/psi4/basis/cc-pvdz-ri.gbs 

	 --------------------------------------------------------
	                          DF-MP2                         
	      2nd-Order Density-Fitted Moller-Plesset Theory     
	              RMP2 Wavefunction,   1 Threads             
	                                                         
	        Rob Parrish, Justin Turney, Andy Simmonett,      
	           Ed Hohenstein, and C. David Sherrill          
	 --------------------------------------------------------

   => Auxiliary Basis Set <=

  Basis Set: (6-31G AUX)
    Blend: CC-PVDZ-RI
    Number of shells: 144
    Number of basis function: 420
    Number of Cartesian functions: 486
    Spherical Harmonics?: true
    Max angular momentum: 3

	 --------------------------------------------------------
	                 NBF =    66, NAUX =   420
	 --------------------------------------------------------
	   CLASS    FOCC     OCC    AOCC    AVIR     VIR    FVIR
	   PAIRS       0      21      21      45      45       0
	 --------------------------------------------------------

	-----------------------------------------------------------
	 ==================> DF-MP2 Energies <==================== 
	-----------------------------------------------------------
	 Reference Energy          =    -230.6206751605172940 [Eh]
	 Singles Energy            =      -0.0000000000000000 [Eh]
	 Same-Spin Energy          =      -0.1327744129030964 [Eh]
	 Opposite-Spin Energy      =      -0.3946666157986470 [Eh]
	 Correlation Energy        =      -0.5274410287017434 [Eh]
	 Total Energy              =    -231.1481161892190244 [Eh]
	-----------------------------------------------------------
	 ================> DF-SCS-MP2 Energies <================== 
	-----------------------------------------------------------
	 SCS Same-Spin Scale       =       0.3333333333333333 [-]
	 SCS Opposite-Spin Scale   =       1.2000000000000000 [-]
	 SCS Same-Spin Energy      =      -0.0442581376343655 [Eh]
	 SCS Opposite-Spin Energy  =      -0.4735999389583764 [Eh]
	 SCS Correlation Energy    =      -0.5178580765927419 [Eh]
	 SCS Total Energy          =    -231.1385332371100390 [Eh]
	-----------------------------------------------------------


*** tstop() called on atlantis at Tue Apr 19 22:00:16 2022
Module time:
	user time   =       0.25 seconds =       0.00 minutes
	system time =       0.00 seconds =       0.00 minutes
	total time  =          0 seconds =       0.00 minutes
Total time:
	user time   =       1.16 seconds =       0.02 minutes
	system time =       0.04 seconds =       0.00 minutes
	total time  =          1 seconds =       0.02 minutes
gradient() will perform analytic gradient computation.
    SCF Algorithm Type (re)set to DF.

*** tstart() called on atlantis
*** at Tue Apr 19 22:00:16 2022

   => Loading Basis Set <=

    Name: 6-31G
    Role: ORBITAL
    Keyword: BASIS
    atoms 1-6  entry C          line    87 file /home/akrom/software/anaconda3/envs/ffpenv/share/psi4/basis/6-31g.gbs 
    atoms 7-12 entry H          line    26 file /home/akrom/software/anaconda3/envs/ffpenv/share/psi4/basis/6-31g.gbs 


         ---------------------------------------------------------
                                   SCF
               by Justin Turney, Rob Parrish, Andy Simmonett
                          and Daniel G. A. Smith
                              RHF Reference
                        1 Threads,    500 MiB Core
         ---------------------------------------------------------

  ==> Geometry <==

    Molecular point group: c2h
    Full point group: C2h

    Geometry (in Angstrom), charge = 0, multiplicity = 1:

       Center              X                  Y                   Z               Mass       
    ------------   -----------------  -----------------  -----------------  -----------------
         C           -1.221510000000    -0.693250000000     0.000000000000    12.000000000000
         C           -1.211140000000     0.711220000000     0.000000000000    12.000000000000
         C           -0.010370000000    -1.404520000000     0.000000000000    12.000000000000
         C            0.010370000000     1.404520000000     0.000000000000    12.000000000000
         C            1.211140000000    -0.711220000000     0.000000000000    12.000000000000
         C            1.221510000000     0.693250000000     0.000000000000    12.000000000000
         H           -2.173110000000    -1.233320000000     0.000000000000     1.007825032230
         H           -2.154640000000     1.265330000000     0.000000000000     1.007825032230
         H           -0.018480000000    -2.498650000000     0.000000000000     1.007825032230
         H            0.018480000000     2.498650000000     0.000000000000     1.007825032230
         H            2.154640000000    -1.265330000000     0.000000000000     1.007825032230
         H            2.173110000000     1.233320000000     0.000000000000     1.007825032230

  Running in c2h symmetry.

  Rotational constants: A =      0.18753  B =      0.18752  C =      0.09376 [cm^-1]
  Rotational constants: A =   5621.92707  B =   5621.82252  C =   2810.93740 [MHz]
  Nuclear repulsion =  202.013308935380167

  Charge       = 0
  Multiplicity = 1
  Electrons    = 42
  Nalpha       = 21
  Nbeta        = 21

  ==> Algorithm <==

  SCF Algorithm Type is DF.
  DIIS enabled.
  MOM disabled.
  Fractional occupation disabled.
  Guess Type is SAD.
  Energy threshold   = 1.00e-10
  Density threshold  = 1.00e-10
  Integral threshold = 0.00e+00

  ==> Primary Basis <==

  Basis Set: 6-31G
    Blend: 6-31G
    Number of shells: 42
    Number of basis function: 66
    Number of Cartesian functions: 66
    Spherical Harmonics?: false
    Max angular momentum: 1

   => Loading Basis Set <=

    Name: (6-31G AUX)
    Role: JKFIT
    Keyword: DF_BASIS_SCF
    atoms 1-6  entry C          line   121 file /home/akrom/software/anaconda3/envs/ffpenv/share/psi4/basis/cc-pvdz-jkfit.gbs 
    atoms 7-12 entry H          line    51 file /home/akrom/software/anaconda3/envs/ffpenv/share/psi4/basis/cc-pvdz-jkfit.gbs 

  ==> Pre-Iterations <==

   -------------------------------------------------------
    Irrep   Nso     Nmo     Nalpha   Nbeta   Ndocc  Nsocc
   -------------------------------------------------------
     Ag        27      27       0       0       0       0
     Bg         6       6       0       0       0       0
     Au         6       6       0       0       0       0
     Bu        27      27       0       0       0       0
   -------------------------------------------------------
    Total      66      66      21      21      21       0
   -------------------------------------------------------

  ==> Integral Setup <==

  DFHelper Memory: AOs need 0.024 GiB; user supplied 0.366 GiB. Using in-core AOs.

  ==> MemDFJK: Density-Fitted J/K Matrices <==

    J tasked:                   Yes
    K tasked:                   Yes
    wK tasked:                   No
    OpenMP threads:               1
    Memory [MiB]:               375
    Algorithm:                 Core
    Schwarz Cutoff:           1E-12
    Mask sparsity (%):       0.8264
    Fitting Condition:        1E-10

   => Auxiliary Basis Set <=

  Basis Set: (6-31G AUX)
    Blend: CC-PVDZ-JKFIT
    Number of shells: 198
    Number of basis function: 636
    Number of Cartesian functions: 636
    Spherical Harmonics?: false
    Max angular momentum: 3

  Minimum eigenvalue in the overlap matrix is 7.4644964947E-04.
  Using Symmetric Orthogonalization.

  SCF Guess: Superposition of Atomic Densities via on-the-fly atomic UHF.

  ==> Iterations <==

                           Total Energy        Delta E     RMS |[F,P]|

   @DF-RHF iter SAD:  -229.81440914007987   -2.29814e+02   0.00000e+00 
   @DF-RHF iter   1:  -230.54854647040474   -7.34137e-01   7.99875e-03 DIIS
   @DF-RHF iter   2:  -230.61400548135265   -6.54590e-02   2.56529e-03 DIIS
   @DF-RHF iter   3:  -230.62023044719766   -6.22497e-03   5.58225e-04 DIIS
   @DF-RHF iter   4:  -230.62067233179522   -4.41885e-04   4.22246e-05 DIIS
   @DF-RHF iter   5:  -230.62067514099223   -2.80920e-06   3.66642e-06 DIIS
   @DF-RHF iter   6:  -230.62067516050152   -1.95093e-08   4.36247e-07 DIIS
   @DF-RHF iter   7:  -230.62067516075177   -2.50253e-10   5.71021e-08 DIIS
   @DF-RHF iter   8:  -230.62067516075587   -4.09273e-12   1.94573e-08 DIIS
   @DF-RHF iter   9:  -230.62067516075606   -1.98952e-13   2.21996e-09 DIIS
   @DF-RHF iter  10:  -230.62067516075615   -8.52651e-14   2.27063e-10 DIIS
   @DF-RHF iter  11:  -230.62067516075626   -1.13687e-13   3.22470e-11 DIIS
  Energy and wave function converged.


  ==> Post-Iterations <==

    Orbital Energies [Eh]
    ---------------------

    Doubly Occupied:                                                      

       1Ag   -11.243074     1Bu   -11.242558     2Bu   -11.242556  
       2Ag   -11.241423     3Ag   -11.241421     3Bu   -11.240875  
       4Ag    -1.145534     4Bu    -1.010154     5Bu    -1.010147  
       5Ag    -0.818011     6Ag    -0.817998     7Ag    -0.703404  
       6Bu    -0.636263     7Bu    -0.612738     8Bu    -0.582481  
       9Bu    -0.582479     1Au    -0.495254     8Ag    -0.485767  
       9Ag    -0.485737     1Bg    -0.331739     2Bg    -0.331728  

    Virtual:                                                              

       2Au     0.143409     3Au     0.143424    10Ag     0.230172  
      10Bu     0.287667    11Bu     0.287670    11Ag     0.326684  
      12Ag     0.326686    12Bu     0.331215     3Bg     0.356331  
      13Ag     0.466024    14Ag     0.466037    13Bu     0.491335  
      14Bu     0.491359    15Bu     0.685719     4Au     0.755367  
      16Bu     0.761465    15Ag     0.763799    16Ag     0.781726  
      17Ag     0.836196     4Bg     0.845667     5Bg     0.845672  
      18Ag     0.868510    19Ag     0.868534    17Bu     0.895892  
      18Bu     0.895903     5Au     0.914164     6Au     0.914170  
       6Bg     0.988635    19Bu     1.126541    20Ag     1.128070  
      21Ag     1.128074    20Bu     1.157714    21Bu     1.157727  
      22Ag     1.235530    23Ag     1.262709    22Bu     1.266818  
      23Bu     1.266852    24Ag     1.356223    25Ag     1.356229  
      24Bu     1.431179    25Bu     1.431194    26Bu     1.467557  
      26Ag     1.716828    27Ag     1.716852    27Bu     2.152576  

    Final Occupation by Irrep:
             Ag    Bg    Au    Bu 
    DOCC [     9,    2,    1,    9 ]

  @DF-RHF Final Energy:  -230.62067516075626

   => Energetics <=

    Nuclear Repulsion Energy =            202.0133089353801665
    One-Electron Energy =                -710.2652784260234284
    Two-Electron Energy =                 277.6312943298869982
    Total Energy =                       -230.6206751607562637

Computation Completed


Properties will be evaluated at   0.000000,   0.000000,   0.000000 [a0]

Properties computed using the SCF density matrix

  Nuclear Dipole Moment: [e a0]
     X:    -0.0000      Y:    -0.0000      Z:     0.0000

  Electronic Dipole Moment: [e a0]
     X:     0.0000      Y:     0.0000      Z:     0.0000

  Dipole Moment: [e a0]
     X:    -0.0000      Y:    -0.0000      Z:     0.0000     Total:     0.0000

  Dipole Moment: [D]
     X:    -0.0000      Y:    -0.0000      Z:     0.0000     Total:     0.0000


*** tstop() called on atlantis at Tue Apr 19 22:00:17 2022
Module time:
	user time   =       0.91 seconds =       0.02 minutes
	system time =       0.01 seconds =       0.00 minutes
	total time  =          1 seconds =       0.02 minutes
Total time:
	user time   =       2.08 seconds =       0.03 minutes
	system time =       0.05 seconds =       0.00 minutes
	total time  =          2 seconds =       0.03 minutes

*** tstart() called on atlantis
*** at Tue Apr 19 22:00:17 2022


  //>>>>>>>>>>>>>>>>>>>>>>>>>>>>>>>>>>>//
  //               DFMP2               //
  //<<<<<<<<<<<<<<<<<<<<<<<<<<<<<<<<<<<//

   => Loading Basis Set <=

    Name: (6-31G AUX)
    Role: RIFIT
    Keyword: DF_BASIS_MP2
    atoms 1-6  entry C          line   159 file /home/akrom/software/anaconda3/envs/ffpenv/share/psi4/basis/cc-pvdz-ri.gbs 
    atoms 7-12 entry H          line    19 file /home/akrom/software/anaconda3/envs/ffpenv/share/psi4/basis/cc-pvdz-ri.gbs 

	 --------------------------------------------------------
	                          DF-MP2                         
	      2nd-Order Density-Fitted Moller-Plesset Theory     
	              RMP2 Wavefunction,   1 Threads             
	                                                         
	        Rob Parrish, Justin Turney, Andy Simmonett,      
	           Ed Hohenstein, and C. David Sherrill          
	 --------------------------------------------------------

   => Auxiliary Basis Set <=

  Basis Set: (6-31G AUX)
    Blend: CC-PVDZ-RI
    Number of shells: 144
    Number of basis function: 420
    Number of Cartesian functions: 486
    Spherical Harmonics?: true
    Max angular momentum: 3

	 --------------------------------------------------------
	                 NBF =    66, NAUX =   420
	 --------------------------------------------------------
	   CLASS    FOCC     OCC    AOCC    AVIR     VIR    FVIR
	   PAIRS       0      21      21      45      45       0
	 --------------------------------------------------------

  DFHelper Memory: AOs need 0.024 GiB; user supplied 0.366 GiB. Using in-core AOs.


         ------------------------------------------------------------
                                     CPHF                           
                                  Rob Parrish                       
         ------------------------------------------------------------

  ==> Geometry <==

    Molecular point group: c2h
    Full point group: C2h

    Geometry (in Angstrom), charge = 0, multiplicity = 1:

       Center              X                  Y                   Z               Mass       
    ------------   -----------------  -----------------  -----------------  -----------------
         C           -1.221510000000    -0.693250000000     0.000000000000    12.000000000000
         C           -1.211140000000     0.711220000000     0.000000000000    12.000000000000
         C           -0.010370000000    -1.404520000000     0.000000000000    12.000000000000
         C            0.010370000000     1.404520000000     0.000000000000    12.000000000000
         C            1.211140000000    -0.711220000000     0.000000000000    12.000000000000
         C            1.221510000000     0.693250000000     0.000000000000    12.000000000000
         H           -2.173110000000    -1.233320000000     0.000000000000     1.007825032230
         H           -2.154640000000     1.265330000000     0.000000000000     1.007825032230
         H           -0.018480000000    -2.498650000000     0.000000000000     1.007825032230
         H            0.018480000000     2.498650000000     0.000000000000     1.007825032230
         H            2.154640000000    -1.265330000000     0.000000000000     1.007825032230
         H            2.173110000000     1.233320000000     0.000000000000     1.007825032230

  Nuclear repulsion =  202.013308935380167
  Reference energy  = -230.620675160756264

  ==> Basis Set <==

  Basis Set: 6-31G
    Blend: 6-31G
    Number of shells: 42
    Number of basis function: 66
    Number of Cartesian functions: 66
    Spherical Harmonics?: false
    Max angular momentum: 1

  ==> CGRSolver (by Rob Parrish) <==

   Number of roots    =         1
   Preconditioning    =    JACOBI
   Convergence cutoff =     1E-06
   Maximum iterations =       100

  ==> CPHFRHamiltonian (by Rob Parrish) <== 

  ==> MemDFJK: Density-Fitted J/K Matrices <==

    J tasked:                   Yes
    K tasked:                   Yes
    wK tasked:                   No
    OpenMP threads:               1
    Memory [MiB]:               375
    Algorithm:                 Core
    Schwarz Cutoff:           1E-12
    Mask sparsity (%):       0.8264
    Fitting Condition:        1E-10

   => Auxiliary Basis Set <=

  Basis Set: (6-31G AUX)
    Blend: CC-PVDZ-JKFIT
    Number of shells: 198
    Number of basis function: 636
    Number of Cartesian functions: 636
    Spherical Harmonics?: false
    Max angular momentum: 3

  ==> CPHF Iterations <==

  => Iterations <=

             Iter  Converged  Remaining    Residual
  CGR           1          0          1   8.226E-02
  CGR           2          0          1   8.267E-03
  CGR           3          0          1   6.704E-04
  CGR           4          0          1   8.290E-05
  CGR           5          0          1   6.441E-06
  CGR           6          1          0   7.062E-07

    CGRSolver converged.

  ==> DFCorrGrad: Density-Fitted Correlated Gradients <==

    OpenMP threads:              1
    Integrals threads:           1
    Memory [GiB]:            0.366
    Schwarz Cutoff:          0E+00
    Fitting Condition:       1E-10

   => Auxiliary Basis Set <=

  Basis Set: (6-31G AUX)
    Blend: CC-PVDZ-JKFIT
    Number of shells: 198
    Number of basis function: 636
    Number of Cartesian functions: 636
    Spherical Harmonics?: false
    Max angular momentum: 3

	-----------------------------------------------------------
	 ==================> DF-MP2 Energies <==================== 
	-----------------------------------------------------------
	 Reference Energy          =    -230.6206751607562637 [Eh]
	 Singles Energy            =      -0.0000000000000000 [Eh]
	 Same-Spin Energy          =      -0.1327744127322211 [Eh]
	 Opposite-Spin Energy      =      -0.3946666154203506 [Eh]
	 Correlation Energy        =      -0.5274410281525718 [Eh]
	 Total Energy              =    -231.1481161889088298 [Eh]
	-----------------------------------------------------------
	 ================> DF-SCS-MP2 Energies <================== 
	-----------------------------------------------------------
	 SCS Same-Spin Scale       =       0.3333333333333333 [-]
	 SCS Opposite-Spin Scale   =       1.2000000000000000 [-]
	 SCS Same-Spin Energy      =      -0.0442581375774070 [Eh]
	 SCS Opposite-Spin Energy  =      -0.4735999385044207 [Eh]
	 SCS Correlation Energy    =      -0.5178580760818278 [Eh]
	 SCS Total Energy          =    -231.1385332368381000 [Eh]
	-----------------------------------------------------------


  -Total Gradient:
     Atom            X                  Y                   Z
    ------   -----------------  -----------------  -----------------
       1        0.008441684846     0.004824196673     0.000000000000
       2        0.008369169944    -0.004956532991     0.000000000000
       3        0.000080216380     0.009677900636     0.000000000000
       4       -0.000080216380    -0.009677900636     0.000000000000
       5       -0.008369169944     0.004956532991     0.000000000000
       6       -0.008441684846    -0.004824196673     0.000000000000
       7       -0.001818418110    -0.001032421038     0.000000000000
       8       -0.001803127233     0.001066134938     0.000000000000
       9       -0.000018498247    -0.002083327183     0.000000000000
      10        0.000018498247     0.002083327183     0.000000000000
      11        0.001803127233    -0.001066134938    -0.000000000000
      12        0.001818418110     0.001032421038     0.000000000000


*** tstop() called on atlantis at Tue Apr 19 22:00:20 2022
Module time:
	user time   =       2.33 seconds =       0.04 minutes
	system time =       0.04 seconds =       0.00 minutes
	total time  =          3 seconds =       0.05 minutes
Total time:
	user time   =       4.41 seconds =       0.07 minutes
	system time =       0.09 seconds =       0.00 minutes
	total time  =          5 seconds =       0.08 minutes

  Based on options and gradient (rms=4.05E-03), recommend projecting translations and projecting rotations.
hessian() will perform frequency computation by finite difference of analytic gradients.

         ----------------------------------------------------------
                                   FINDIF
                     R. A. King and Jonathon Misiewicz
         ---------------------------------------------------------

  Using finite-differences of gradients to determine vibrational frequencies and 
  normal modes.  Resulting frequencies are only valid at stationary points.
    Generating geometries for use with 3-point formula.
    Displacement size will be 5.00e-03.
    Number of atoms is 12.
    Number of irreps is 4.
    Number of SALCs is 30.
    Translations projected? 1. Rotations projected? 1.
    Index of SALCs per irrep:
     1 :  0  1  2  3  4  5  6  7  8  9  10 
     2 :  11  12  13  14 
     3 :  15  16  17  18  19 
     4 :  20  21  22  23  24  25  26  27  28  29 
    Number of SALCs per irrep:
     Irrep 1: 11
     Irrep 2: 4
     Irrep 3: 5
     Irrep 4: 10
    Number of geometries (including reference) is 42.
    Number of displacements per irrep:
      Irrep 1: 22
      Irrep 2: 4
      Irrep 3: 5
      Irrep 4: 10

  //>>>>>>>>>>>>>>>>>>>>>>>>>>>>>>>>>>>//
  //    Loading displacement 1 of 42   //
  //<<<<<<<<<<<<<<<<<<<<<<<<<<<<<<<<<<<//
gradient() will perform analytic gradient computation.
    SCF Algorithm Type (re)set to DF.

*** tstart() called on atlantis
*** at Tue Apr 19 22:00:20 2022

   => Loading Basis Set <=

    Name: 6-31G
    Role: ORBITAL
    Keyword: BASIS
    atoms 1-6  entry C          line    87 file /home/akrom/software/anaconda3/envs/ffpenv/share/psi4/basis/6-31g.gbs 
    atoms 7-12 entry H          line    26 file /home/akrom/software/anaconda3/envs/ffpenv/share/psi4/basis/6-31g.gbs 


         ---------------------------------------------------------
                                   SCF
               by Justin Turney, Rob Parrish, Andy Simmonett
                          and Daniel G. A. Smith
                              RHF Reference
                        1 Threads,    500 MiB Core
         ---------------------------------------------------------

  ==> Geometry <==

    Molecular point group: c2h
    Full point group: C2h

    Geometry (in Angstrom), charge = 0, multiplicity = 1:

       Center              X                  Y                   Z               Mass       
    ------------   -----------------  -----------------  -----------------  -----------------
         C           -1.221510000000    -0.693250000000     0.000000000000    12.000000000000
         C           -1.211140000000     0.711220000000     0.000000000000    12.000000000000
         C           -0.010370000000    -1.404520000000     0.000000000000    12.000000000000
         C            0.010370000000     1.404520000000     0.000000000000    12.000000000000
         C            1.211140000000    -0.711220000000     0.000000000000    12.000000000000
         C            1.221510000000     0.693250000000     0.000000000000    12.000000000000
         H           -2.173110000000    -1.233320000000     0.000000000000     1.007825032230
         H           -2.154640000000     1.265330000000     0.000000000000     1.007825032230
         H           -0.018480000000    -2.498650000000     0.000000000000     1.007825032230
         H            0.018480000000     2.498650000000     0.000000000000     1.007825032230
         H            2.154640000000    -1.265330000000     0.000000000000     1.007825032230
         H            2.173110000000     1.233320000000     0.000000000000     1.007825032230

  Running in c2h symmetry.

  Rotational constants: A =      0.18753  B =      0.18752  C =      0.09376 [cm^-1]
  Rotational constants: A =   5621.92707  B =   5621.82252  C =   2810.93740 [MHz]
  Nuclear repulsion =  202.013308935380167

  Charge       = 0
  Multiplicity = 1
  Electrons    = 42
  Nalpha       = 21
  Nbeta        = 21

  ==> Algorithm <==

  SCF Algorithm Type is DF.
  DIIS enabled.
  MOM disabled.
  Fractional occupation disabled.
  Guess Type is SAD.
  Energy threshold   = 1.00e-10
  Density threshold  = 1.00e-10
  Integral threshold = 0.00e+00

  ==> Primary Basis <==

  Basis Set: 6-31G
    Blend: 6-31G
    Number of shells: 42
    Number of basis function: 66
    Number of Cartesian functions: 66
    Spherical Harmonics?: false
    Max angular momentum: 1

   => Loading Basis Set <=

    Name: (6-31G AUX)
    Role: JKFIT
    Keyword: DF_BASIS_SCF
    atoms 1-6  entry C          line   121 file /home/akrom/software/anaconda3/envs/ffpenv/share/psi4/basis/cc-pvdz-jkfit.gbs 
    atoms 7-12 entry H          line    51 file /home/akrom/software/anaconda3/envs/ffpenv/share/psi4/basis/cc-pvdz-jkfit.gbs 

  ==> Pre-Iterations <==

   -------------------------------------------------------
    Irrep   Nso     Nmo     Nalpha   Nbeta   Ndocc  Nsocc
   -------------------------------------------------------
     Ag        27      27       0       0       0       0
     Bg         6       6       0       0       0       0
     Au         6       6       0       0       0       0
     Bu        27      27       0       0       0       0
   -------------------------------------------------------
    Total      66      66      21      21      21       0
   -------------------------------------------------------

  ==> Integral Setup <==

  DFHelper Memory: AOs need 0.024 GiB; user supplied 0.366 GiB. Using in-core AOs.

  ==> MemDFJK: Density-Fitted J/K Matrices <==

    J tasked:                   Yes
    K tasked:                   Yes
    wK tasked:                   No
    OpenMP threads:               1
    Memory [MiB]:               375
    Algorithm:                 Core
    Schwarz Cutoff:           1E-12
    Mask sparsity (%):       0.8264
    Fitting Condition:        1E-10

   => Auxiliary Basis Set <=

  Basis Set: (6-31G AUX)
    Blend: CC-PVDZ-JKFIT
    Number of shells: 198
    Number of basis function: 636
    Number of Cartesian functions: 636
    Spherical Harmonics?: false
    Max angular momentum: 3

  Minimum eigenvalue in the overlap matrix is 7.4644964947E-04.
  Using Symmetric Orthogonalization.

  SCF Guess: Superposition of Atomic Densities via on-the-fly atomic UHF.

  ==> Iterations <==

                           Total Energy        Delta E     RMS |[F,P]|

   @DF-RHF iter SAD:  -229.81440913991781   -2.29814e+02   0.00000e+00 
   @DF-RHF iter   1:  -230.54854647024024   -7.34137e-01   7.99875e-03 DIIS
   @DF-RHF iter   2:  -230.61400548118732   -6.54590e-02   2.56529e-03 DIIS
   @DF-RHF iter   3:  -230.62023044703182   -6.22497e-03   5.58225e-04 DIIS
   @DF-RHF iter   4:  -230.62067233163012   -4.41885e-04   4.22246e-05 DIIS
   @DF-RHF iter   5:  -230.62067514082707   -2.80920e-06   3.66642e-06 DIIS
   @DF-RHF iter   6:  -230.62067516033608   -1.95090e-08   4.36247e-07 DIIS
   @DF-RHF iter   7:  -230.62067516058613   -2.50054e-10   5.71021e-08 DIIS
   @DF-RHF iter   8:  -230.62067516059051   -4.37694e-12   1.94573e-08 DIIS
   @DF-RHF iter   9:  -230.62067516059039    1.13687e-13   2.21996e-09 DIIS
   @DF-RHF iter  10:  -230.62067516059062   -2.27374e-13   2.27063e-10 DIIS
   @DF-RHF iter  11:  -230.62067516059042    1.98952e-13   3.22469e-11 DIIS
  Energy and wave function converged.


  ==> Post-Iterations <==

    Orbital Energies [Eh]
    ---------------------

    Doubly Occupied:                                                      

       1Ag   -11.243074     1Bu   -11.242558     2Bu   -11.242556  
       2Ag   -11.241423     3Ag   -11.241421     3Bu   -11.240875  
       4Ag    -1.145534     4Bu    -1.010154     5Bu    -1.010147  
       5Ag    -0.818011     6Ag    -0.817998     7Ag    -0.703404  
       6Bu    -0.636263     7Bu    -0.612738     8Bu    -0.582481  
       9Bu    -0.582479     1Au    -0.495254     8Ag    -0.485767  
       9Ag    -0.485737     1Bg    -0.331739     2Bg    -0.331728  

    Virtual:                                                              

       2Au     0.143409     3Au     0.143424    10Ag     0.230172  
      10Bu     0.287667    11Bu     0.287670    11Ag     0.326684  
      12Ag     0.326686    12Bu     0.331215     3Bg     0.356331  
      13Ag     0.466024    14Ag     0.466037    13Bu     0.491335  
      14Bu     0.491359    15Bu     0.685719     4Au     0.755367  
      16Bu     0.761465    15Ag     0.763799    16Ag     0.781726  
      17Ag     0.836196     4Bg     0.845667     5Bg     0.845672  
      18Ag     0.868510    19Ag     0.868534    17Bu     0.895892  
      18Bu     0.895903     5Au     0.914164     6Au     0.914170  
       6Bg     0.988635    19Bu     1.126541    20Ag     1.128070  
      21Ag     1.128074    20Bu     1.157714    21Bu     1.157727  
      22Ag     1.235530    23Ag     1.262709    22Bu     1.266818  
      23Bu     1.266852    24Ag     1.356223    25Ag     1.356229  
      24Bu     1.431179    25Bu     1.431194    26Bu     1.467557  
      26Ag     1.716828    27Ag     1.716852    27Bu     2.152576  

    Final Occupation by Irrep:
             Ag    Bg    Au    Bu 
    DOCC [     9,    2,    1,    9 ]

  @DF-RHF Final Energy:  -230.62067516059042

   => Energetics <=

    Nuclear Repulsion Energy =            202.0133089353801665
    One-Electron Energy =                -710.2652784259346390
    Two-Electron Energy =                 277.6312943299640210
    Total Energy =                       -230.6206751605904515

Computation Completed


Properties will be evaluated at   0.000000,   0.000000,   0.000000 [a0]

Properties computed using the SCF density matrix

  Nuclear Dipole Moment: [e a0]
     X:    -0.0000      Y:    -0.0000      Z:     0.0000

  Electronic Dipole Moment: [e a0]
     X:     0.0000      Y:     0.0000      Z:     0.0000

  Dipole Moment: [e a0]
     X:    -0.0000      Y:    -0.0000      Z:     0.0000     Total:     0.0000

  Dipole Moment: [D]
     X:    -0.0000      Y:    -0.0000      Z:     0.0000     Total:     0.0000


*** tstop() called on atlantis at Tue Apr 19 22:00:21 2022
Module time:
	user time   =       0.91 seconds =       0.02 minutes
	system time =       0.00 seconds =       0.00 minutes
	total time  =          1 seconds =       0.02 minutes
Total time:
	user time   =       5.59 seconds =       0.09 minutes
	system time =       0.11 seconds =       0.00 minutes
	total time  =          6 seconds =       0.10 minutes

*** tstart() called on atlantis
*** at Tue Apr 19 22:00:21 2022


  //>>>>>>>>>>>>>>>>>>>>>>>>>>>>>>>>>>>//
  //               DFMP2               //
  //<<<<<<<<<<<<<<<<<<<<<<<<<<<<<<<<<<<//

   => Loading Basis Set <=

    Name: (6-31G AUX)
    Role: RIFIT
    Keyword: DF_BASIS_MP2
    atoms 1-6  entry C          line   159 file /home/akrom/software/anaconda3/envs/ffpenv/share/psi4/basis/cc-pvdz-ri.gbs 
    atoms 7-12 entry H          line    19 file /home/akrom/software/anaconda3/envs/ffpenv/share/psi4/basis/cc-pvdz-ri.gbs 

	 --------------------------------------------------------
	                          DF-MP2                         
	      2nd-Order Density-Fitted Moller-Plesset Theory     
	              RMP2 Wavefunction,   1 Threads             
	                                                         
	        Rob Parrish, Justin Turney, Andy Simmonett,      
	           Ed Hohenstein, and C. David Sherrill          
	 --------------------------------------------------------

   => Auxiliary Basis Set <=

  Basis Set: (6-31G AUX)
    Blend: CC-PVDZ-RI
    Number of shells: 144
    Number of basis function: 420
    Number of Cartesian functions: 486
    Spherical Harmonics?: true
    Max angular momentum: 3

	 --------------------------------------------------------
	                 NBF =    66, NAUX =   420
	 --------------------------------------------------------
	   CLASS    FOCC     OCC    AOCC    AVIR     VIR    FVIR
	   PAIRS       0      21      21      45      45       0
	 --------------------------------------------------------

  DFHelper Memory: AOs need 0.024 GiB; user supplied 0.366 GiB. Using in-core AOs.


         ------------------------------------------------------------
                                     CPHF                           
                                  Rob Parrish                       
         ------------------------------------------------------------

  ==> Geometry <==

    Molecular point group: c2h
    Full point group: C2h

    Geometry (in Angstrom), charge = 0, multiplicity = 1:

       Center              X                  Y                   Z               Mass       
    ------------   -----------------  -----------------  -----------------  -----------------
         C           -1.221510000000    -0.693250000000     0.000000000000    12.000000000000
         C           -1.211140000000     0.711220000000     0.000000000000    12.000000000000
         C           -0.010370000000    -1.404520000000     0.000000000000    12.000000000000
         C            0.010370000000     1.404520000000     0.000000000000    12.000000000000
         C            1.211140000000    -0.711220000000     0.000000000000    12.000000000000
         C            1.221510000000     0.693250000000     0.000000000000    12.000000000000
         H           -2.173110000000    -1.233320000000     0.000000000000     1.007825032230
         H           -2.154640000000     1.265330000000     0.000000000000     1.007825032230
         H           -0.018480000000    -2.498650000000     0.000000000000     1.007825032230
         H            0.018480000000     2.498650000000     0.000000000000     1.007825032230
         H            2.154640000000    -1.265330000000     0.000000000000     1.007825032230
         H            2.173110000000     1.233320000000     0.000000000000     1.007825032230

  Nuclear repulsion =  202.013308935380167
  Reference energy  = -230.620675160590423

  ==> Basis Set <==

  Basis Set: 6-31G
    Blend: 6-31G
    Number of shells: 42
    Number of basis function: 66
    Number of Cartesian functions: 66
    Spherical Harmonics?: false
    Max angular momentum: 1

  ==> CGRSolver (by Rob Parrish) <==

   Number of roots    =         1
   Preconditioning    =    JACOBI
   Convergence cutoff =     1E-06
   Maximum iterations =       100

  ==> CPHFRHamiltonian (by Rob Parrish) <== 

  ==> MemDFJK: Density-Fitted J/K Matrices <==

    J tasked:                   Yes
    K tasked:                   Yes
    wK tasked:                   No
    OpenMP threads:               1
    Memory [MiB]:               375
    Algorithm:                 Core
    Schwarz Cutoff:           1E-12
    Mask sparsity (%):       0.8264
    Fitting Condition:        1E-10

   => Auxiliary Basis Set <=

  Basis Set: (6-31G AUX)
    Blend: CC-PVDZ-JKFIT
    Number of shells: 198
    Number of basis function: 636
    Number of Cartesian functions: 636
    Spherical Harmonics?: false
    Max angular momentum: 3

  ==> CPHF Iterations <==

  => Iterations <=

             Iter  Converged  Remaining    Residual
  CGR           1          0          1   8.226E-02
  CGR           2          0          1   8.267E-03
  CGR           3          0          1   6.704E-04
  CGR           4          0          1   8.290E-05
  CGR           5          0          1   6.441E-06
  CGR           6          1          0   7.062E-07

    CGRSolver converged.

  ==> DFCorrGrad: Density-Fitted Correlated Gradients <==

    OpenMP threads:              1
    Integrals threads:           1
    Memory [GiB]:            0.366
    Schwarz Cutoff:          0E+00
    Fitting Condition:       1E-10

   => Auxiliary Basis Set <=

  Basis Set: (6-31G AUX)
    Blend: CC-PVDZ-JKFIT
    Number of shells: 198
    Number of basis function: 636
    Number of Cartesian functions: 636
    Spherical Harmonics?: false
    Max angular momentum: 3

	-----------------------------------------------------------
	 ==================> DF-MP2 Energies <==================== 
	-----------------------------------------------------------
	 Reference Energy          =    -230.6206751605904230 [Eh]
	 Singles Energy            =      -0.0000000000000000 [Eh]
	 Same-Spin Energy          =      -0.1327744127321804 [Eh]
	 Opposite-Spin Energy      =      -0.3946666154198990 [Eh]
	 Correlation Energy        =      -0.5274410281520794 [Eh]
	 Total Energy              =    -231.1481161887425060 [Eh]
	-----------------------------------------------------------
	 ================> DF-SCS-MP2 Energies <================== 
	-----------------------------------------------------------
	 SCS Same-Spin Scale       =       0.3333333333333333 [-]
	 SCS Opposite-Spin Scale   =       1.2000000000000000 [-]
	 SCS Same-Spin Energy      =      -0.0442581375773935 [Eh]
	 SCS Opposite-Spin Energy  =      -0.4735999385038788 [Eh]
	 SCS Correlation Energy    =      -0.5178580760812722 [Eh]
	 SCS Total Energy          =    -231.1385332366716909 [Eh]
	-----------------------------------------------------------


  -Total Gradient:
     Atom            X                  Y                   Z
    ------   -----------------  -----------------  -----------------
       1        0.008441674678     0.004824188685     0.000000000000
       2        0.008369154505    -0.004956531219     0.000000000000
       3        0.000080208213     0.009677886149     0.000000000000
       4       -0.000080208213    -0.009677886149     0.000000000000
       5       -0.008369154505     0.004956531219     0.000000000000
       6       -0.008441674678    -0.004824188685     0.000000000000
       7       -0.001818447532    -0.001032437294     0.000000000000
       8       -0.001803159517     0.001066154379     0.000000000000
       9       -0.000018497771    -0.002083363495    -0.000000000000
      10        0.000018497771     0.002083363495    -0.000000000000
      11        0.001803159517    -0.001066154379     0.000000000000
      12        0.001818447532     0.001032437294     0.000000000000


*** tstop() called on atlantis at Tue Apr 19 22:00:23 2022
Module time:
	user time   =       2.36 seconds =       0.04 minutes
	system time =       0.02 seconds =       0.00 minutes
	total time  =          2 seconds =       0.03 minutes
Total time:
	user time   =       7.95 seconds =       0.13 minutes
	system time =       0.13 seconds =       0.00 minutes
	total time  =          8 seconds =       0.13 minutes

  //>>>>>>>>>>>>>>>>>>>>>>>>>>>>>>>>>>>//
  //    Loading displacement 2 of 42   //
  //<<<<<<<<<<<<<<<<<<<<<<<<<<<<<<<<<<<//
gradient() will perform analytic gradient computation.
    SCF Algorithm Type (re)set to DF.

*** tstart() called on atlantis
*** at Tue Apr 19 22:00:23 2022

   => Loading Basis Set <=

    Name: 6-31G
    Role: ORBITAL
    Keyword: BASIS
    atoms 1-6  entry C          line    87 file /home/akrom/software/anaconda3/envs/ffpenv/share/psi4/basis/6-31g.gbs 
    atoms 7-12 entry H          line    26 file /home/akrom/software/anaconda3/envs/ffpenv/share/psi4/basis/6-31g.gbs 


         ---------------------------------------------------------
                                   SCF
               by Justin Turney, Rob Parrish, Andy Simmonett
                          and Daniel G. A. Smith
                              RHF Reference
                        1 Threads,    500 MiB Core
         ---------------------------------------------------------

  ==> Geometry <==

    Molecular point group: c2h
    Full point group: C2h

    Geometry (in Angstrom), charge = 0, multiplicity = 1:

       Center              X                  Y                   Z               Mass       
    ------------   -----------------  -----------------  -----------------  -----------------
         C           -1.222032477591    -0.693313109608     0.000000000000    12.000000000000
         C           -1.211176745353     0.711157426160     0.000000000000    12.000000000000
         C           -0.010297435136    -1.404520535769     0.000000000000    12.000000000000
         C            0.010297435136     1.404520535769     0.000000000000    12.000000000000
         C            1.211176745353    -0.711157426160     0.000000000000    12.000000000000
         C            1.222032477591     0.693313109608     0.000000000000    12.000000000000
         H           -2.173046280225    -1.233432274252     0.000000000000     1.007825032230
         H           -2.154705373579     1.265218680005     0.000000000000     1.007825032230
         H           -0.018350906646    -2.498650954774     0.000000000000     1.007825032230
         H            0.018350906646     2.498650954774     0.000000000000     1.007825032230
         H            2.154705373579    -1.265218680005     0.000000000000     1.007825032230
         H            2.173046280225     1.233432274252     0.000000000000     1.007825032230

  Running in c2h symmetry.

  Rotational constants: A =      0.18753  B =      0.18745  C =      0.09375 [cm^-1]
  Rotational constants: A =   5621.97670  B =   5619.72613  C =   2810.42560 [MHz]
  Nuclear repulsion =  201.998047561272216

  Charge       = 0
  Multiplicity = 1
  Electrons    = 42
  Nalpha       = 21
  Nbeta        = 21

  ==> Algorithm <==

  SCF Algorithm Type is DF.
  DIIS enabled.
  MOM disabled.
  Fractional occupation disabled.
  Guess Type is SAD.
  Energy threshold   = 1.00e-10
  Density threshold  = 1.00e-10
  Integral threshold = 0.00e+00

  ==> Primary Basis <==

  Basis Set: 6-31G
    Blend: 6-31G
    Number of shells: 42
    Number of basis function: 66
    Number of Cartesian functions: 66
    Spherical Harmonics?: false
    Max angular momentum: 1

   => Loading Basis Set <=

    Name: (6-31G AUX)
    Role: JKFIT
    Keyword: DF_BASIS_SCF
    atoms 1-6  entry C          line   121 file /home/akrom/software/anaconda3/envs/ffpenv/share/psi4/basis/cc-pvdz-jkfit.gbs 
    atoms 7-12 entry H          line    51 file /home/akrom/software/anaconda3/envs/ffpenv/share/psi4/basis/cc-pvdz-jkfit.gbs 

  ==> Pre-Iterations <==

   -------------------------------------------------------
    Irrep   Nso     Nmo     Nalpha   Nbeta   Ndocc  Nsocc
   -------------------------------------------------------
     Ag        27      27       0       0       0       0
     Bg         6       6       0       0       0       0
     Au         6       6       0       0       0       0
     Bu        27      27       0       0       0       0
   -------------------------------------------------------
    Total      66      66      21      21      21       0
   -------------------------------------------------------

  ==> Integral Setup <==

  DFHelper Memory: AOs need 0.024 GiB; user supplied 0.366 GiB. Using in-core AOs.

  ==> MemDFJK: Density-Fitted J/K Matrices <==

    J tasked:                   Yes
    K tasked:                   Yes
    wK tasked:                   No
    OpenMP threads:               1
    Memory [MiB]:               375
    Algorithm:                 Core
    Schwarz Cutoff:           1E-12
    Mask sparsity (%):       0.8264
    Fitting Condition:        1E-10

   => Auxiliary Basis Set <=

  Basis Set: (6-31G AUX)
    Blend: CC-PVDZ-JKFIT
    Number of shells: 198
    Number of basis function: 636
    Number of Cartesian functions: 636
    Spherical Harmonics?: false
    Max angular momentum: 3

  Minimum eigenvalue in the overlap matrix is 7.4719581144E-04.
  Using Symmetric Orthogonalization.

  SCF Guess: Superposition of Atomic Densities via on-the-fly atomic UHF.

  ==> Iterations <==

                           Total Energy        Delta E     RMS |[F,P]|

   @DF-RHF iter SAD:  -229.81318487359192   -2.29813e+02   0.00000e+00 
   @DF-RHF iter   1:  -230.54857925364939   -7.35394e-01   7.99627e-03 DIIS
   @DF-RHF iter   2:  -230.61400775324563   -6.54285e-02   2.56357e-03 DIIS
   @DF-RHF iter   3:  -230.62022546719413   -6.21771e-03   5.58084e-04 DIIS
   @DF-RHF iter   4:  -230.62066713550192   -4.41668e-04   4.22193e-05 DIIS
   @DF-RHF iter   5:  -230.62066994345216   -2.80795e-06   3.68843e-06 DIIS
   @DF-RHF iter   6:  -230.62066996300371   -1.95515e-08   5.32110e-07 DIIS
   @DF-RHF iter   7:  -230.62066996329563   -2.91919e-10   2.06651e-07 DIIS
   @DF-RHF iter   8:  -230.62066996333090   -3.52713e-11   2.59865e-08 DIIS
   @DF-RHF iter   9:  -230.62066996333175   -8.52651e-13   2.09941e-09 DIIS
   @DF-RHF iter  10:  -230.62066996333181   -5.68434e-14   2.31815e-10 DIIS
   @DF-RHF iter  11:  -230.62066996333192   -1.13687e-13   3.78670e-11 DIIS
  Energy and wave function converged.


  ==> Post-Iterations <==

    Orbital Energies [Eh]
    ---------------------

    Doubly Occupied:                                                      

       1Ag   -11.243094     1Bu   -11.242590     2Bu   -11.242564  
       2Ag   -11.241457     3Ag   -11.241428     3Bu   -11.240896  
       4Ag    -1.145427     4Bu    -1.010179     5Bu    -1.010032  
       5Ag    -0.818099     6Ag    -0.817916     7Ag    -0.703401  
       6Bu    -0.636374     7Bu    -0.612663     8Bu    -0.582581  
       9Bu    -0.582404     1Au    -0.495177     8Ag    -0.485948  
       9Ag    -0.485606     1Bg    -0.331768     2Bg    -0.331623  

    Virtual:                                                              

       2Au     0.143293     3Au     0.143468    10Ag     0.230234  
      10Bu     0.287676    11Bu     0.287743    11Ag     0.326658  
      12Ag     0.326698    12Bu     0.331223     3Bg     0.356248  
      13Ag     0.465912    14Ag     0.466065    13Bu     0.491137  
      14Bu     0.491376    15Bu     0.685800     4Au     0.755398  
      16Bu     0.761325    15Ag     0.763664    16Ag     0.781721  
      17Ag     0.836116     4Bg     0.845658     5Bg     0.845731  
      18Ag     0.868285    19Ag     0.868596    17Bu     0.895802  
      18Bu     0.895967     5Au     0.914124     6Au     0.914186  
       6Bg     0.988605    19Bu     1.126491    20Ag     1.128085  
      21Ag     1.128317    20Bu     1.157697    21Bu     1.157973  
      22Ag     1.235689    23Ag     1.262536    22Bu     1.266578  
      23Bu     1.266974    24Ag     1.356055    25Ag     1.356199  
      24Bu     1.431032    25Bu     1.431195    26Bu     1.467448  
      26Ag     1.716743    27Ag     1.716944    27Bu     2.152523  

    Final Occupation by Irrep:
             Ag    Bg    Au    Bu 
    DOCC [     9,    2,    1,    9 ]

  @DF-RHF Final Energy:  -230.62066996333192

   => Energetics <=

    Nuclear Repulsion Energy =            201.9980475612722159
    One-Electron Energy =                -710.2349798333407307
    Two-Electron Energy =                 277.6162623087366228
    Total Energy =                       -230.6206699633319204

Computation Completed


Properties will be evaluated at   0.000000,   0.000000,   0.000000 [a0]

Properties computed using the SCF density matrix

  Nuclear Dipole Moment: [e a0]
     X:     0.0000      Y:     0.0000      Z:     0.0000

  Electronic Dipole Moment: [e a0]
     X:     0.0000      Y:     0.0000      Z:     0.0000

  Dipole Moment: [e a0]
     X:     0.0000      Y:     0.0000      Z:     0.0000     Total:     0.0000

  Dipole Moment: [D]
     X:     0.0000      Y:     0.0000      Z:     0.0000     Total:     0.0000


*** tstop() called on atlantis at Tue Apr 19 22:00:24 2022
Module time:
	user time   =       0.92 seconds =       0.02 minutes
	system time =       0.01 seconds =       0.00 minutes
	total time  =          1 seconds =       0.02 minutes
Total time:
	user time   =       8.88 seconds =       0.15 minutes
	system time =       0.14 seconds =       0.00 minutes
	total time  =          9 seconds =       0.15 minutes

*** tstart() called on atlantis
*** at Tue Apr 19 22:00:24 2022


  //>>>>>>>>>>>>>>>>>>>>>>>>>>>>>>>>>>>//
  //               DFMP2               //
  //<<<<<<<<<<<<<<<<<<<<<<<<<<<<<<<<<<<//

   => Loading Basis Set <=

    Name: (6-31G AUX)
    Role: RIFIT
    Keyword: DF_BASIS_MP2
    atoms 1-6  entry C          line   159 file /home/akrom/software/anaconda3/envs/ffpenv/share/psi4/basis/cc-pvdz-ri.gbs 
    atoms 7-12 entry H          line    19 file /home/akrom/software/anaconda3/envs/ffpenv/share/psi4/basis/cc-pvdz-ri.gbs 

	 --------------------------------------------------------
	                          DF-MP2                         
	      2nd-Order Density-Fitted Moller-Plesset Theory     
	              RMP2 Wavefunction,   1 Threads             
	                                                         
	        Rob Parrish, Justin Turney, Andy Simmonett,      
	           Ed Hohenstein, and C. David Sherrill          
	 --------------------------------------------------------

   => Auxiliary Basis Set <=

  Basis Set: (6-31G AUX)
    Blend: CC-PVDZ-RI
    Number of shells: 144
    Number of basis function: 420
    Number of Cartesian functions: 486
    Spherical Harmonics?: true
    Max angular momentum: 3

	 --------------------------------------------------------
	                 NBF =    66, NAUX =   420
	 --------------------------------------------------------
	   CLASS    FOCC     OCC    AOCC    AVIR     VIR    FVIR
	   PAIRS       0      21      21      45      45       0
	 --------------------------------------------------------

  DFHelper Memory: AOs need 0.024 GiB; user supplied 0.366 GiB. Using in-core AOs.


         ------------------------------------------------------------
                                     CPHF                           
                                  Rob Parrish                       
         ------------------------------------------------------------

  ==> Geometry <==

    Molecular point group: c2h
    Full point group: C2h

    Geometry (in Angstrom), charge = 0, multiplicity = 1:

       Center              X                  Y                   Z               Mass       
    ------------   -----------------  -----------------  -----------------  -----------------
         C           -1.222032477591    -0.693313109608     0.000000000000    12.000000000000
         C           -1.211176745353     0.711157426160     0.000000000000    12.000000000000
         C           -0.010297435136    -1.404520535769     0.000000000000    12.000000000000
         C            0.010297435136     1.404520535769     0.000000000000    12.000000000000
         C            1.211176745353    -0.711157426160     0.000000000000    12.000000000000
         C            1.222032477591     0.693313109608     0.000000000000    12.000000000000
         H           -2.173046280225    -1.233432274252     0.000000000000     1.007825032230
         H           -2.154705373579     1.265218680005     0.000000000000     1.007825032230
         H           -0.018350906646    -2.498650954774     0.000000000000     1.007825032230
         H            0.018350906646     2.498650954774     0.000000000000     1.007825032230
         H            2.154705373579    -1.265218680005     0.000000000000     1.007825032230
         H            2.173046280225     1.233432274252     0.000000000000     1.007825032230

  Nuclear repulsion =  201.998047561272216
  Reference energy  = -230.620669963331920

  ==> Basis Set <==

  Basis Set: 6-31G
    Blend: 6-31G
    Number of shells: 42
    Number of basis function: 66
    Number of Cartesian functions: 66
    Spherical Harmonics?: false
    Max angular momentum: 1

  ==> CGRSolver (by Rob Parrish) <==

   Number of roots    =         1
   Preconditioning    =    JACOBI
   Convergence cutoff =     1E-06
   Maximum iterations =       100

  ==> CPHFRHamiltonian (by Rob Parrish) <== 

  ==> MemDFJK: Density-Fitted J/K Matrices <==

    J tasked:                   Yes
    K tasked:                   Yes
    wK tasked:                   No
    OpenMP threads:               1
    Memory [MiB]:               375
    Algorithm:                 Core
    Schwarz Cutoff:           1E-12
    Mask sparsity (%):       0.8264
    Fitting Condition:        1E-10

   => Auxiliary Basis Set <=

  Basis Set: (6-31G AUX)
    Blend: CC-PVDZ-JKFIT
    Number of shells: 198
    Number of basis function: 636
    Number of Cartesian functions: 636
    Spherical Harmonics?: false
    Max angular momentum: 3

  ==> CPHF Iterations <==

  => Iterations <=

             Iter  Converged  Remaining    Residual
  CGR           1          0          1   8.225E-02
  CGR           2          0          1   8.266E-03
  CGR           3          0          1   6.706E-04
  CGR           4          0          1   8.406E-05
  CGR           5          0          1   1.303E-05
  CGR           6          0          1   2.832E-06
  CGR           7          1          0   2.757E-07

    CGRSolver converged.

  ==> DFCorrGrad: Density-Fitted Correlated Gradients <==

    OpenMP threads:              1
    Integrals threads:           1
    Memory [GiB]:            0.366
    Schwarz Cutoff:          0E+00
    Fitting Condition:       1E-10

   => Auxiliary Basis Set <=

  Basis Set: (6-31G AUX)
    Blend: CC-PVDZ-JKFIT
    Number of shells: 198
    Number of basis function: 636
    Number of Cartesian functions: 636
    Spherical Harmonics?: false
    Max angular momentum: 3

	-----------------------------------------------------------
	 ==================> DF-MP2 Energies <==================== 
	-----------------------------------------------------------
	 Reference Energy          =    -230.6206699633319204 [Eh]
	 Singles Energy            =      -0.0000000000000000 [Eh]
	 Same-Spin Energy          =      -0.1327805938453666 [Eh]
	 Opposite-Spin Energy      =      -0.3946826092142472 [Eh]
	 Correlation Energy        =      -0.5274632030596138 [Eh]
	 Total Energy              =    -231.1481331663915455 [Eh]
	-----------------------------------------------------------
	 ================> DF-SCS-MP2 Energies <================== 
	-----------------------------------------------------------
	 SCS Same-Spin Scale       =       0.3333333333333333 [-]
	 SCS Opposite-Spin Scale   =       1.2000000000000000 [-]
	 SCS Same-Spin Energy      =      -0.0442601979484555 [Eh]
	 SCS Opposite-Spin Energy  =      -0.4736191310570966 [Eh]
	 SCS Correlation Energy    =      -0.5178793290055521 [Eh]
	 SCS Total Energy          =    -231.1385492923374727 [Eh]
	-----------------------------------------------------------


  -Total Gradient:
     Atom            X                  Y                   Z
    ------   -----------------  -----------------  -----------------
       1        0.007650905264     0.004824751441     0.000000000000
       2        0.008444536132    -0.004943308448     0.000000000000
       3        0.000419038436     0.009512670769     0.000000000000
       4       -0.000419038436    -0.009512670769     0.000000000000
       5       -0.008444536132     0.004943308448     0.000000000000
       6       -0.007650905264    -0.004824751441     0.000000000000
       7       -0.001535891568    -0.000907545336    -0.000000000000
       8       -0.001811003318     0.001030694332     0.000000000000
       9       -0.000026922103    -0.002081039311     0.000000000000
      10        0.000026922103     0.002081039311     0.000000000000
      11        0.001811003318    -0.001030694332     0.000000000000
      12        0.001535891568     0.000907545336     0.000000000000


*** tstop() called on atlantis at Tue Apr 19 22:00:27 2022
Module time:
	user time   =       2.37 seconds =       0.04 minutes
	system time =       0.03 seconds =       0.00 minutes
	total time  =          3 seconds =       0.05 minutes
Total time:
	user time   =      11.25 seconds =       0.19 minutes
	system time =       0.17 seconds =       0.00 minutes
	total time  =         12 seconds =       0.20 minutes

  //>>>>>>>>>>>>>>>>>>>>>>>>>>>>>>>>>>>//
  //    Loading displacement 3 of 42   //
  //<<<<<<<<<<<<<<<<<<<<<<<<<<<<<<<<<<<//
gradient() will perform analytic gradient computation.
    SCF Algorithm Type (re)set to DF.

*** tstart() called on atlantis
*** at Tue Apr 19 22:00:27 2022

   => Loading Basis Set <=

    Name: 6-31G
    Role: ORBITAL
    Keyword: BASIS
    atoms 1-6  entry C          line    87 file /home/akrom/software/anaconda3/envs/ffpenv/share/psi4/basis/6-31g.gbs 
    atoms 7-12 entry H          line    26 file /home/akrom/software/anaconda3/envs/ffpenv/share/psi4/basis/6-31g.gbs 


         ---------------------------------------------------------
                                   SCF
               by Justin Turney, Rob Parrish, Andy Simmonett
                          and Daniel G. A. Smith
                              RHF Reference
                        1 Threads,    500 MiB Core
         ---------------------------------------------------------

  ==> Geometry <==

    Molecular point group: c2h
    Full point group: C2h

    Geometry (in Angstrom), charge = 0, multiplicity = 1:

       Center              X                  Y                   Z               Mass       
    ------------   -----------------  -----------------  -----------------  -----------------
         C           -1.220987522409    -0.693186890392     0.000000000000    12.000000000000
         C           -1.211103254647     0.711282573840     0.000000000000    12.000000000000
         C           -0.010442564864    -1.404519464231     0.000000000000    12.000000000000
         C            0.010442564864     1.404519464231     0.000000000000    12.000000000000
         C            1.211103254647    -0.711282573840     0.000000000000    12.000000000000
         C            1.220987522409     0.693186890392     0.000000000000    12.000000000000
         H           -2.173173719775    -1.233207725748     0.000000000000     1.007825032230
         H           -2.154574626421     1.265441319995     0.000000000000     1.007825032230
         H           -0.018609093354    -2.498649045226     0.000000000000     1.007825032230
         H            0.018609093354     2.498649045226     0.000000000000     1.007825032230
         H            2.154574626421    -1.265441319995     0.000000000000     1.007825032230
         H            2.173173719775     1.233207725748     0.000000000000     1.007825032230

  Running in c2h symmetry.

  Rotational constants: A =      0.18760  B =      0.18752  C =      0.09378 [cm^-1]
  Rotational constants: A =   5624.12726  B =   5621.66993  C =   2811.44916 [MHz]
  Nuclear repulsion =  202.028576396706484

  Charge       = 0
  Multiplicity = 1
  Electrons    = 42
  Nalpha       = 21
  Nbeta        = 21

  ==> Algorithm <==

  SCF Algorithm Type is DF.
  DIIS enabled.
  MOM disabled.
  Fractional occupation disabled.
  Guess Type is SAD.
  Energy threshold   = 1.00e-10
  Density threshold  = 1.00e-10
  Integral threshold = 0.00e+00

  ==> Primary Basis <==

  Basis Set: 6-31G
    Blend: 6-31G
    Number of shells: 42
    Number of basis function: 66
    Number of Cartesian functions: 66
    Spherical Harmonics?: false
    Max angular momentum: 1

   => Loading Basis Set <=

    Name: (6-31G AUX)
    Role: JKFIT
    Keyword: DF_BASIS_SCF
    atoms 1-6  entry C          line   121 file /home/akrom/software/anaconda3/envs/ffpenv/share/psi4/basis/cc-pvdz-jkfit.gbs 
    atoms 7-12 entry H          line    51 file /home/akrom/software/anaconda3/envs/ffpenv/share/psi4/basis/cc-pvdz-jkfit.gbs 

  ==> Pre-Iterations <==

   -------------------------------------------------------
    Irrep   Nso     Nmo     Nalpha   Nbeta   Ndocc  Nsocc
   -------------------------------------------------------
     Ag        27      27       0       0       0       0
     Bg         6       6       0       0       0       0
     Au         6       6       0       0       0       0
     Bu        27      27       0       0       0       0
   -------------------------------------------------------
    Total      66      66      21      21      21       0
   -------------------------------------------------------

  ==> Integral Setup <==

  DFHelper Memory: AOs need 0.024 GiB; user supplied 0.366 GiB. Using in-core AOs.

  ==> MemDFJK: Density-Fitted J/K Matrices <==

    J tasked:                   Yes
    K tasked:                   Yes
    wK tasked:                   No
    OpenMP threads:               1
    Memory [MiB]:               375
    Algorithm:                 Core
    Schwarz Cutoff:           1E-12
    Mask sparsity (%):       0.8264
    Fitting Condition:        1E-10

   => Auxiliary Basis Set <=

  Basis Set: (6-31G AUX)
    Blend: CC-PVDZ-JKFIT
    Number of shells: 198
    Number of basis function: 636
    Number of Cartesian functions: 636
    Spherical Harmonics?: false
    Max angular momentum: 3

  Minimum eigenvalue in the overlap matrix is 7.4570504793E-04.
  Using Symmetric Orthogonalization.

  SCF Guess: Superposition of Atomic Densities via on-the-fly atomic UHF.

  ==> Iterations <==

                           Total Energy        Delta E     RMS |[F,P]|

   @DF-RHF iter SAD:  -229.81563339272060   -2.29816e+02   0.00000e+00 
   @DF-RHF iter   1:  -230.54851181167732   -7.32878e-01   8.00124e-03 DIIS
   @DF-RHF iter   2:  -230.61400140336548   -6.54896e-02   2.56701e-03 DIIS
   @DF-RHF iter   3:  -230.62023365127862   -6.23225e-03   5.58368e-04 DIIS
   @DF-RHF iter   4:  -230.62067575433531   -4.42103e-04   4.22362e-05 DIIS
   @DF-RHF iter   5:  -230.62067856496083   -2.81063e-06   3.69217e-06 DIIS
   @DF-RHF iter   6:  -230.62067858456527   -1.96044e-08   5.28480e-07 DIIS
   @DF-RHF iter   7:  -230.62067858485543   -2.90157e-10   2.03816e-07 DIIS
   @DF-RHF iter   8:  -230.62067858488990   -3.44755e-11   2.60722e-08 DIIS
   @DF-RHF iter   9:  -230.62067858489061   -7.10543e-13   2.10473e-09 DIIS
   @DF-RHF iter  10:  -230.62067858489070   -8.52651e-14   2.33539e-10 DIIS
   @DF-RHF iter  11:  -230.62067858489075   -5.68434e-14   3.73636e-11 DIIS
  Energy and wave function converged.


  ==> Post-Iterations <==

    Orbital Energies [Eh]
    ---------------------

    Doubly Occupied:                                                      

       1Ag   -11.243056     1Bu   -11.242549     2Bu   -11.242527  
       2Ag   -11.241414     3Ag   -11.241390     3Bu   -11.240855  
       4Ag    -1.145642     4Bu    -1.010262     5Bu    -1.010130  
       5Ag    -0.818091     6Ag    -0.817913     7Ag    -0.703407  
       6Bu    -0.636152     7Bu    -0.612813     8Bu    -0.582558  
       9Bu    -0.582376     1Au    -0.495331     8Ag    -0.485898  
       9Ag    -0.485557     1Bg    -0.331836     2Bg    -0.331707  

    Virtual:                                                              

       2Au     0.143369     3Au     0.143535    10Ag     0.230111  
      10Bu     0.287595    11Bu     0.287661    11Ag     0.326671  
      12Ag     0.326713    12Bu     0.331206     3Bg     0.356413  
      13Ag     0.466006    14Ag     0.466139    13Bu     0.491323  
      14Bu     0.491551    15Bu     0.685637     4Au     0.755335  
      16Bu     0.761606    15Ag     0.763933    16Ag     0.781730  
      17Ag     0.836275     4Bg     0.845611     5Bg     0.845677  
      18Ag     0.868467    19Ag     0.868742    17Bu     0.895836  
      18Bu     0.895984     5Au     0.914150     6Au     0.914207  
       6Bg     0.988665    19Bu     1.126591    20Ag     1.127824  
      21Ag     1.128061    20Bu     1.157465    21Bu     1.157747  
      22Ag     1.235372    23Ag     1.262882    22Bu     1.266702  
      23Bu     1.267087    24Ag     1.356258    25Ag     1.356393  
      24Bu     1.431164    25Bu     1.431354    26Bu     1.467666  
      26Ag     1.716735    27Ag     1.716937    27Bu     2.152628  

    Final Occupation by Irrep:
             Ag    Bg    Au    Bu 
    DOCC [     9,    2,    1,    9 ]

  @DF-RHF Final Energy:  -230.62067858489075

   => Energetics <=

    Nuclear Repulsion Energy =            202.0285763967064838
    One-Electron Energy =                -710.2955837608044476
    Two-Electron Energy =                 277.6463287792071810
    Total Energy =                       -230.6206785848907543

Computation Completed


Properties will be evaluated at   0.000000,   0.000000,   0.000000 [a0]

Properties computed using the SCF density matrix

  Nuclear Dipole Moment: [e a0]
     X:     0.0000      Y:     0.0000      Z:     0.0000

  Electronic Dipole Moment: [e a0]
     X:     0.0000      Y:     0.0000      Z:     0.0000

  Dipole Moment: [e a0]
     X:     0.0000      Y:     0.0000      Z:     0.0000     Total:     0.0000

  Dipole Moment: [D]
     X:     0.0000      Y:     0.0000      Z:     0.0000     Total:     0.0000


*** tstop() called on atlantis at Tue Apr 19 22:00:28 2022
Module time:
	user time   =       0.90 seconds =       0.02 minutes
	system time =       0.00 seconds =       0.00 minutes
	total time  =          1 seconds =       0.02 minutes
Total time:
	user time   =      12.16 seconds =       0.20 minutes
	system time =       0.17 seconds =       0.00 minutes
	total time  =         13 seconds =       0.22 minutes

*** tstart() called on atlantis
*** at Tue Apr 19 22:00:28 2022


  //>>>>>>>>>>>>>>>>>>>>>>>>>>>>>>>>>>>//
  //               DFMP2               //
  //<<<<<<<<<<<<<<<<<<<<<<<<<<<<<<<<<<<//

   => Loading Basis Set <=

    Name: (6-31G AUX)
    Role: RIFIT
    Keyword: DF_BASIS_MP2
    atoms 1-6  entry C          line   159 file /home/akrom/software/anaconda3/envs/ffpenv/share/psi4/basis/cc-pvdz-ri.gbs 
    atoms 7-12 entry H          line    19 file /home/akrom/software/anaconda3/envs/ffpenv/share/psi4/basis/cc-pvdz-ri.gbs 

	 --------------------------------------------------------
	                          DF-MP2                         
	      2nd-Order Density-Fitted Moller-Plesset Theory     
	              RMP2 Wavefunction,   1 Threads             
	                                                         
	        Rob Parrish, Justin Turney, Andy Simmonett,      
	           Ed Hohenstein, and C. David Sherrill          
	 --------------------------------------------------------

   => Auxiliary Basis Set <=

  Basis Set: (6-31G AUX)
    Blend: CC-PVDZ-RI
    Number of shells: 144
    Number of basis function: 420
    Number of Cartesian functions: 486
    Spherical Harmonics?: true
    Max angular momentum: 3

	 --------------------------------------------------------
	                 NBF =    66, NAUX =   420
	 --------------------------------------------------------
	   CLASS    FOCC     OCC    AOCC    AVIR     VIR    FVIR
	   PAIRS       0      21      21      45      45       0
	 --------------------------------------------------------

  DFHelper Memory: AOs need 0.024 GiB; user supplied 0.366 GiB. Using in-core AOs.


         ------------------------------------------------------------
                                     CPHF                           
                                  Rob Parrish                       
         ------------------------------------------------------------

  ==> Geometry <==

    Molecular point group: c2h
    Full point group: C2h

    Geometry (in Angstrom), charge = 0, multiplicity = 1:

       Center              X                  Y                   Z               Mass       
    ------------   -----------------  -----------------  -----------------  -----------------
         C           -1.220987522409    -0.693186890392     0.000000000000    12.000000000000
         C           -1.211103254647     0.711282573840     0.000000000000    12.000000000000
         C           -0.010442564864    -1.404519464231     0.000000000000    12.000000000000
         C            0.010442564864     1.404519464231     0.000000000000    12.000000000000
         C            1.211103254647    -0.711282573840     0.000000000000    12.000000000000
         C            1.220987522409     0.693186890392     0.000000000000    12.000000000000
         H           -2.173173719775    -1.233207725748     0.000000000000     1.007825032230
         H           -2.154574626421     1.265441319995     0.000000000000     1.007825032230
         H           -0.018609093354    -2.498649045226     0.000000000000     1.007825032230
         H            0.018609093354     2.498649045226     0.000000000000     1.007825032230
         H            2.154574626421    -1.265441319995     0.000000000000     1.007825032230
         H            2.173173719775     1.233207725748     0.000000000000     1.007825032230

  Nuclear repulsion =  202.028576396706484
  Reference energy  = -230.620678584890754

  ==> Basis Set <==

  Basis Set: 6-31G
    Blend: 6-31G
    Number of shells: 42
    Number of basis function: 66
    Number of Cartesian functions: 66
    Spherical Harmonics?: false
    Max angular momentum: 1

  ==> CGRSolver (by Rob Parrish) <==

   Number of roots    =         1
[...]
      5   C               -0.25  0.22  0.00    0.20  0.05 -0.00    0.00 -0.00 -0.03   
      6   C                0.21  0.23 -0.00    0.25 -0.01  0.00   -0.00 -0.00 -0.03   
      7   H               -0.32 -0.04  0.00   -0.10 -0.25  0.00    0.00  0.00  0.41   
      8   H                0.33 -0.09  0.00   -0.03  0.24  0.00   -0.00 -0.00  0.41   
      9   H                0.21 -0.04  0.00    0.02  0.36  0.00   -0.00 -0.00  0.41   
     10   H               -0.21  0.04  0.00   -0.02 -0.36 -0.00    0.00  0.00  0.41   
     11   H               -0.33  0.09 -0.00    0.03 -0.24  0.00    0.00  0.00  0.41   
     12   H                0.32  0.04  0.00    0.10  0.25 -0.00   -0.00 -0.00  0.41   

  Vibration                       13                  14                  15          
  Freq [cm^-1]                 846.8334            846.9009            881.2947       
  Irrep                           Bg                  Bg                  Au          
  Reduced mass [u]              1.2479              1.2479              1.2753        
  Force const [mDyne/A]         0.5272              0.5273              0.5836        
  Turning point v=0 [a0]        0.3375              0.3375              0.3273        
  RMS dev v=0 [a0 u^1/2]        0.2666              0.2666              0.2614        
  Char temp [K]               1218.4047           1218.5019           1267.9868       
  ----------------------------------------------------------------------------------
      1   C                0.00  0.00 -0.05    0.00  0.00 -0.07   -0.00 -0.00  0.05   
      2   C                0.00 -0.00  0.03    0.00  0.00 -0.08    0.00 -0.00  0.04   
      3   C                0.00  0.00 -0.08    0.00  0.00  0.01   -0.00 -0.00 -0.09   
      4   C               -0.00  0.00  0.08   -0.00  0.00 -0.01    0.00 -0.00 -0.09   
      5   C               -0.00 -0.00 -0.03    0.00 -0.00  0.08    0.00 -0.00  0.04   
      6   C               -0.00 -0.00  0.05   -0.00 -0.00  0.07    0.00  0.00  0.05   
      7   H               -0.00  0.00  0.34    0.00  0.00  0.46   -0.00  0.00 -0.32   
      8   H               -0.00 -0.00 -0.23   -0.00 -0.00  0.52    0.00 -0.00 -0.25   
      9   H                0.00  0.00  0.57    0.00  0.00 -0.06   -0.00 -0.00  0.57   
     10   H                0.00  0.00 -0.57    0.00  0.00  0.06   -0.00 -0.00  0.57   
     11   H               -0.00 -0.00  0.23    0.00  0.00 -0.52    0.00 -0.00 -0.25   
     12   H                0.00 -0.00 -0.34   -0.00  0.00 -0.46   -0.00  0.00 -0.32   

  Vibration                       16                  17                  18          
  Freq [cm^-1]                 881.3791            886.0070           1022.8415       
  Irrep                           Au                  Bg                  Ag          
  Reduced mass [u]              1.2752              1.0082              5.9270        
  Force const [mDyne/A]         0.5836              0.4663              3.6534        
  Turning point v=0 [a0]        0.3273              0.3671              0.1409        
  RMS dev v=0 [a0 u^1/2]        0.2613              0.2607              0.2426        
  Char temp [K]               1268.1083           1274.7668           1471.6412       
  ----------------------------------------------------------------------------------
      1   C               -0.00 -0.00  0.07   -0.00 -0.00  0.00    0.24  0.13  0.00   
      2   C                0.00 -0.00 -0.08   -0.00  0.00 -0.00    0.24 -0.14  0.00   
      3   C               -0.00 -0.00  0.01    0.00  0.00 -0.00    0.00  0.27  0.00   
      4   C               -0.00  0.00  0.01    0.00 -0.00  0.00   -0.00 -0.27  0.00   
      5   C               -0.00 -0.00 -0.08    0.00  0.00  0.00   -0.24  0.14 -0.00   
      6   C               -0.00  0.00  0.07    0.00 -0.00 -0.00   -0.24 -0.13 -0.00   
      7   H               -0.00  0.00 -0.47    0.00 -0.00  0.41    0.26  0.15 -0.00   
      8   H                0.00 -0.00  0.52   -0.00 -0.00 -0.41    0.26 -0.15 -0.00   
      9   H                0.00 -0.00 -0.05   -0.00  0.00 -0.41    0.00  0.30 -0.00   
     10   H               -0.00  0.00 -0.05    0.00 -0.00  0.41   -0.00 -0.30  0.00   
     11   H                0.00  0.00  0.52    0.00  0.00  0.41   -0.26  0.15  0.00   
     12   H               -0.00  0.00 -0.47    0.00 -0.00 -0.41   -0.26 -0.15  0.00   

  Vibration                       19                  20                  21          
  Freq [cm^-1]                1047.6094           1086.1630           1086.1962       
  Irrep                           Bu                  Bu                  Bu          
  Reduced mass [u]              6.4527              1.8280              1.8277        
  Force const [mDyne/A]         4.1724              1.2706              1.2705        
  Turning point v=0 [a0]        0.1335              0.2463              0.2463        
  RMS dev v=0 [a0 u^1/2]        0.2397              0.2354              0.2354        
  Char temp [K]               1507.2767           1562.7468           1562.7944       
  ----------------------------------------------------------------------------------
      1   C               -0.25 -0.14 -0.00   -0.06  0.07 -0.00   -0.10 -0.07  0.00   
      2   C                0.25 -0.15  0.00    0.12 -0.00  0.00   -0.03  0.10 -0.00   
      3   C                0.00  0.29  0.00   -0.04 -0.12  0.00    0.09 -0.05 -0.00   
      4   C                0.00  0.29 -0.00   -0.04 -0.12  0.00    0.09 -0.05  0.00   
      5   C                0.25 -0.15 -0.00    0.12 -0.00  0.00   -0.03  0.10 -0.00   
      6   C               -0.25 -0.14 -0.00   -0.06  0.07 -0.00   -0.10 -0.07  0.00   
      7   H               -0.25 -0.14  0.00   -0.28  0.45  0.00   -0.08 -0.13 -0.00   
      8   H                0.25 -0.15 -0.00    0.26  0.23 -0.00    0.14  0.41  0.00   
      9   H                0.00  0.29 -0.00   -0.20 -0.13  0.00    0.50 -0.06  0.00   
     10   H                0.00  0.29 -0.00   -0.20 -0.13 -0.00    0.50 -0.06 -0.00   
     11   H                0.25 -0.15  0.00    0.26  0.23 -0.00    0.14  0.41  0.00   
     12   H               -0.25 -0.14  0.00   -0.28  0.45  0.00   -0.08 -0.13 -0.00   

  Vibration                       22                  23                  24          
  Freq [cm^-1]                1239.7180           1253.5517           1253.6055       
  Irrep                           Bu                  Ag                  Ag          
  Reduced mass [u]              1.0493              1.1387              1.1386        
  Force const [mDyne/A]         0.9502              1.0542              1.0542        
  Turning point v=0 [a0]        0.3042              0.2904              0.2904        
  RMS dev v=0 [a0 u^1/2]        0.2204              0.2191              0.2191        
  Char temp [K]               1783.6782           1803.5818           1803.6593       
  ----------------------------------------------------------------------------------
      1   C               -0.01  0.02  0.00   -0.02  0.03  0.00    0.03 -0.05  0.00   
      2   C               -0.01 -0.02  0.00    0.01  0.02 -0.00    0.03  0.05  0.00   
      3   C                0.03 -0.00  0.00    0.06 -0.00 -0.00    0.00 -0.00 -0.00   
      4   C                0.03 -0.00  0.00   -0.06  0.00 -0.00   -0.00  0.00  0.00   
      5   C               -0.01 -0.02  0.00   -0.01 -0.02 -0.00   -0.03 -0.05  0.00   
      6   C               -0.01  0.02 -0.00    0.02 -0.03 -0.00   -0.03  0.05 -0.00   
      7   H               -0.20  0.35 -0.00   -0.16  0.28  0.00    0.24 -0.42  0.00   
      8   H               -0.21 -0.35 -0.00    0.13  0.22 -0.00    0.26  0.44 -0.00   
      9   H                0.41 -0.00 -0.00    0.57 -0.00 -0.00    0.04 -0.00  0.00   
     10   H                0.41 -0.00 -0.00   -0.57  0.00  0.00   -0.04  0.00 -0.00   
     11   H               -0.21 -0.35 -0.00   -0.13 -0.22  0.00   -0.26 -0.44  0.00   
     12   H               -0.20  0.35  0.00    0.16 -0.28  0.00   -0.24  0.42  0.00   

  Vibration                       25                  26                  27          
  Freq [cm^-1]                1420.5044           1427.7809           1543.6312       
  Irrep                           Bu                  Ag                  Bu          
  Reduced mass [u]              8.1570              1.2479              1.8567        
  Force const [mDyne/A]         9.6977              1.4988              2.6067        
  Turning point v=0 [a0]        0.1019              0.2600              0.2050        
  RMS dev v=0 [a0 u^1/2]        0.2059              0.2053              0.1975        
  Char temp [K]               2043.7896           2054.2588           2220.9416       
  ----------------------------------------------------------------------------------
      1   C               -0.16  0.29  0.00   -0.03  0.05  0.00   -0.01  0.12 -0.00   
      2   C               -0.17 -0.28 -0.00    0.03  0.05  0.00    0.07 -0.05  0.00   
      3   C                0.33 -0.00 -0.00   -0.06  0.00  0.00   -0.12 -0.03  0.00   
      4   C                0.33 -0.00 -0.00    0.06 -0.00  0.00   -0.12 -0.03  0.00   
      5   C               -0.17 -0.28  0.00   -0.03 -0.05 -0.00    0.07 -0.05  0.00   
      6   C               -0.16  0.29 -0.00    0.03 -0.05  0.00   -0.01  0.12 -0.00   
      7   H                0.12 -0.21  0.00    0.20 -0.35 -0.00    0.27 -0.36  0.00   
      8   H                0.12  0.21  0.00   -0.20 -0.35 -0.00    0.11 -0.01 -0.00   
      9   H               -0.24  0.00 -0.00    0.40 -0.00  0.00    0.49 -0.05 -0.00   
     10   H               -0.24  0.00  0.00   -0.40  0.00 -0.00    0.49 -0.05 -0.00   
     11   H                0.12  0.21 -0.00    0.20  0.35  0.00    0.11 -0.01 -0.00   
     12   H                0.12 -0.21 -0.00   -0.20  0.35 -0.00    0.27 -0.36  0.00   

  Vibration                       28                  29                  30          
  Freq [cm^-1]                1543.6967           1657.7663           1657.8730       
  Irrep                           Bu                  Ag                  Ag          
  Reduced mass [u]              1.8567              5.1778              5.1790        
  Force const [mDyne/A]         2.6069              8.3838              8.3869        
  Turning point v=0 [a0]        0.2050              0.1184              0.1184        
  RMS dev v=0 [a0 u^1/2]        0.1975              0.1906              0.1906        
  Char temp [K]               2221.0358           2385.1566           2385.3102       
  ----------------------------------------------------------------------------------
      1   C                0.10 -0.04  0.00   -0.20  0.11 -0.00    0.06 -0.27  0.00   
      2   C               -0.08 -0.11  0.00    0.18  0.05  0.00    0.10  0.29  0.00   
      3   C               -0.06  0.08  0.00    0.32 -0.02  0.00    0.03  0.14  0.00   
      4   C               -0.06  0.08  0.00   -0.32  0.02 -0.00   -0.03 -0.14 -0.00   
      5   C               -0.08 -0.11  0.00   -0.18 -0.05  0.00   -0.10 -0.29  0.00   
      6   C                0.10 -0.04 -0.00    0.20 -0.11  0.00   -0.06  0.27  0.00   
      7   H               -0.08  0.31 -0.00    0.00 -0.28  0.00   -0.26  0.25 -0.00   
      8   H                0.27  0.47 -0.00    0.05 -0.23 -0.00   -0.26 -0.30  0.00   
      9   H                0.23  0.09 -0.00   -0.42 -0.01  0.00   -0.04  0.17 -0.00   
     10   H                0.23  0.09 -0.00    0.42  0.01 -0.00    0.04 -0.17  0.00   
     11   H                0.27  0.47 -0.00   -0.05  0.23 -0.00    0.26  0.30 -0.00   
     12   H               -0.08  0.31  0.00   -0.00  0.28  0.00    0.26 -0.25 -0.00   

  Vibration                       31                  32                  33          
  Freq [cm^-1]                3139.0086           3149.6784           3149.7996       
  Irrep                           Bu                  Ag                  Ag          
  Reduced mass [u]              1.0863              1.0894              1.0894        
  Force const [mDyne/A]         6.3062              6.3675              6.3680        
  Turning point v=0 [a0]        0.1879              0.1873              0.1873        
  RMS dev v=0 [a0 u^1/2]        0.1385              0.1382              0.1382        
  Char temp [K]               4516.3345           4531.6859           4531.8603       
  ----------------------------------------------------------------------------------
      1   C                0.03  0.02  0.00    0.04  0.02  0.00    0.02  0.02 -0.00   
      2   C               -0.03  0.02 -0.00   -0.04  0.02 -0.00    0.02 -0.01  0.00   
      3   C               -0.00 -0.03  0.00   -0.00  0.00 -0.00   -0.00 -0.05 -0.00   
      4   C               -0.00 -0.03  0.00    0.00 -0.00 -0.00    0.00  0.05  0.00   
      5   C               -0.03  0.02 -0.00    0.04 -0.02 -0.00   -0.02  0.01  0.00   
      6   C                0.03  0.02 -0.00   -0.04 -0.02 -0.00   -0.02 -0.02 -0.00   
      7   H               -0.35 -0.20  0.00   -0.41 -0.23 -0.00   -0.29 -0.17  0.00   
      8   H                0.35 -0.21  0.00    0.45 -0.26  0.00   -0.21  0.12 -0.00   
      9   H                0.00  0.41 -0.00    0.00 -0.05 -0.00    0.00  0.57  0.00   
     10   H                0.00  0.41  0.00   -0.00  0.05  0.00   -0.00 -0.57 -0.00   
     11   H                0.35 -0.21 -0.00   -0.45  0.26 -0.00    0.21 -0.12  0.00   
     12   H               -0.35 -0.20 -0.00    0.41  0.23 -0.00    0.29  0.17 -0.00   

  Vibration                       34                  35                  36          
  Freq [cm^-1]                3169.7099           3169.8253           3184.7007       
  Irrep                           Bu                  Bu                  Ag          
  Reduced mass [u]              1.0969              1.0968              1.1027        
  Force const [mDyne/A]         6.4929              6.4933              6.5895        
  Turning point v=0 [a0]        0.1861              0.1861              0.1852        
  RMS dev v=0 [a0 u^1/2]        0.1378              0.1378              0.1375        
  Char temp [K]               4560.5068           4560.6729           4582.0753       
  ----------------------------------------------------------------------------------
      1   C               -0.04 -0.02  0.00   -0.03 -0.01 -0.00   -0.03 -0.02  0.00   
      2   C               -0.04  0.03  0.00    0.02 -0.01 -0.00   -0.03  0.02  0.00   
      3   C                0.00  0.01  0.00    0.00 -0.05 -0.00   -0.00 -0.04  0.00   
      4   C                0.00  0.01  0.00    0.00 -0.05 -0.00    0.00  0.04  0.00   
      5   C               -0.04  0.03  0.00    0.02 -0.01 -0.00    0.03 -0.02 -0.00   
      6   C               -0.04 -0.02 -0.00   -0.03 -0.01  0.00    0.03  0.02 -0.00   
      7   H                0.40  0.23 -0.00    0.30  0.16  0.00    0.35  0.20 -0.00   
      8   H                0.45 -0.27  0.00   -0.20  0.11  0.00    0.35 -0.21 -0.00   
      9   H               -0.01 -0.06  0.00    0.00  0.57 -0.00    0.00  0.41  0.00   
     10   H               -0.01 -0.06  0.00    0.00  0.57 -0.00   -0.00 -0.41  0.00   
     11   H                0.45 -0.27  0.00   -0.20  0.11  0.00   -0.35  0.21 -0.00   
     12   H                0.40  0.23 -0.00    0.30  0.16 -0.00   -0.35 -0.20  0.00   

  ==> Thermochemistry Components <==

  Entropy, S
    Electronic S            0.000 [cal/(mol K)]        0.000 [J/(mol K)]       0.00000000 [mEh/K] (multiplicity = 1)
    Translational S        38.979 [cal/(mol K)]      163.089 [J/(mol K)]       0.06211726 [mEh/K] (mol. weight = 78.0470 [u], P = 101325.00 [Pa])
    Rotational S           24.318 [cal/(mol K)]      101.746 [J/(mol K)]       0.03875307 [mEh/K] (symmetry no. = 2)
    Vibrational S           5.137 [cal/(mol K)]       21.494 [J/(mol K)]       0.00818659 [mEh/K]
  Total S                  68.434 [cal/(mol K)]      286.329 [J/(mol K)]       0.10905692 [mEh/K]
  Correction S              0.000 [cal/(mol K)]        0.000 [J/(mol K)]       0.00000000 [mEh/K]

  Constant volume heat capacity, Cv
    Electronic Cv           0.000 [cal/(mol K)]        0.000 [J/(mol K)]       0.00000000 [mEh/K]
    Translational Cv        2.981 [cal/(mol K)]       12.472 [J/(mol K)]       0.00475022 [mEh/K]
    Rotational Cv           2.981 [cal/(mol K)]       12.472 [J/(mol K)]       0.00475022 [mEh/K]
    Vibrational Cv         12.002 [cal/(mol K)]       50.218 [J/(mol K)]       0.01912720 [mEh/K]
  Total Cv                 17.964 [cal/(mol K)]       75.162 [J/(mol K)]       0.02862763 [mEh/K]
  Correction Cv             0.000 [cal/(mol K)]        0.000 [J/(mol K)]       0.00000000 [mEh/K]

  Constant pressure heat capacity, Cp
    Electronic Cp           0.000 [cal/(mol K)]        0.000 [J/(mol K)]       0.00000000 [mEh/K]
    Translational Cp        4.968 [cal/(mol K)]       20.786 [J/(mol K)]       0.00791703 [mEh/K]
    Rotational Cp           2.981 [cal/(mol K)]       12.472 [J/(mol K)]       0.00475022 [mEh/K]
    Vibrational Cp         12.002 [cal/(mol K)]       50.218 [J/(mol K)]       0.01912720 [mEh/K]
  Total Cp                 19.951 [cal/(mol K)]       83.476 [J/(mol K)]       0.03179444 [mEh/K]
  Correction Cp             0.000 [cal/(mol K)]        0.000 [J/(mol K)]       0.00000000 [mEh/K]

  ==> Thermochemistry Energy Analysis <==

  Raw electronic energy, E0
  Total E0, Electronic energy at well bottom at 0 [K]                 -231.14811619 [Eh]

  Zero-point energy, ZPE_vib = Sum_i nu_i / 2
    Electronic ZPE          0.000 [kcal/mol]        0.000 [kJ/mol]       0.00000000 [Eh]
    Translational ZPE       0.000 [kcal/mol]        0.000 [kJ/mol]       0.00000000 [Eh]
    Rotational ZPE          0.000 [kcal/mol]        0.000 [kJ/mol]       0.00000000 [Eh]
    Vibrational ZPE        62.544 [kcal/mol]      261.685 [kJ/mol]       0.09967052 [Eh]       21875.151 [cm^-1]
  Correction ZPE           62.544 [kcal/mol]      261.685 [kJ/mol]       0.09967052 [Eh]       21875.151 [cm^-1]
  Total ZPE, Electronic energy at 0 [K]                               -231.04844567 [Eh]

  Thermal Energy, E (includes ZPE)
    Electronic E            0.000 [kcal/mol]        0.000 [kJ/mol]       0.00000000 [Eh]
    Translational E         0.889 [kcal/mol]        3.718 [kJ/mol]       0.00141628 [Eh]
    Rotational E            0.889 [kcal/mol]        3.718 [kJ/mol]       0.00141628 [Eh]
    Vibrational E          63.665 [kcal/mol]      266.373 [kJ/mol]       0.10145605 [Eh]
  Correction E             65.442 [kcal/mol]      273.810 [kJ/mol]       0.10428860 [Eh]
  Total E, Electronic energy at  298.15 [K]                           -231.04382759 [Eh]

  Enthalpy, H_trans = E_trans + k_B * T
    Electronic H            0.000 [kcal/mol]        0.000 [kJ/mol]       0.00000000 [Eh]
    Translational H         1.481 [kcal/mol]        6.197 [kJ/mol]       0.00236046 [Eh]
    Rotational H            0.889 [kcal/mol]        3.718 [kJ/mol]       0.00141628 [Eh]
    Vibrational H          63.665 [kcal/mol]      266.373 [kJ/mol]       0.10145605 [Eh]
  Correction H             66.035 [kcal/mol]      276.289 [kJ/mol]       0.10523279 [Eh]
  Total H, Enthalpy at  298.15 [K]                                    -231.04288340 [Eh]

  Gibbs free energy, G = H - T * S
    Electronic G            0.000 [kcal/mol]        0.000 [kJ/mol]       0.00000000 [Eh]
    Translational G       -10.140 [kcal/mol]      -42.428 [kJ/mol]      -0.01615980 [Eh]
    Rotational G           -6.362 [kcal/mol]      -26.617 [kJ/mol]      -0.01013795 [Eh]
    Vibrational G          62.133 [kcal/mol]      259.964 [kJ/mol]       0.09901522 [Eh]
  Correction G             45.631 [kcal/mol]      190.920 [kJ/mol]       0.07271746 [Eh]
  Total G, Free enthalpy at  298.15 [K]                               -231.07539873 [Eh]

    Psi4 stopped on: Tuesday, 19 April 2022 10:02PM
    Psi4 wall time for execution: 0:02:26.49

*** Psi4 exiting successfully. Buy a developer a beer!
