
    -----------------------------------------------------------------------
          Psi4: An Open-Source Ab Initio Electronic Structure Package
                               Psi4 1.3.2 release

                         Git: Rev {HEAD} ecbda83 


    R. M. Parrish, L. A. Burns, D. G. A. Smith, A. C. Simmonett,
    A. E. DePrince III, E. G. Hohenstein, U. Bozkaya, A. Yu. Sokolov,
    R. Di Remigio, R. M. Richard, J. F. Gonthier, A. M. James,
    H. R. McAlexander, A. Kumar, M. Saitow, X. Wang, B. P. Pritchard,
    P. Verma, H. F. Schaefer III, K. Patkowski, R. A. King, E. F. Valeev,
    F. A. Evangelista, J. M. Turney, T. D. Crawford, and C. D. Sherrill,
    J. Chem. Theory Comput. 13(7) pp 3185--3197 (2017).
    (doi: 10.1021/acs.jctc.7b00174)


                         Additional Contributions by
    P. Kraus, H. Kruse, M. H. Lechner, M. C. Schieber, R. A. Shaw,
    A. Alenaizan, R. Galvelis, Z. L. Glick, S. Lehtola, and J. P. Misiewicz

    -----------------------------------------------------------------------


    Psi4 started on: Tuesday, 19 April 2022 12:32AM

    Process ID: 25556
    Host:       atlantis
    PSIDATADIR: /home/akrom/software/anaconda3/envs/ffpenv/share/psi4
    Memory:     500.0 MiB
    Threads:    1
    
  ==> Input File <==

--------------------------------------------------------------------------
set basis  aug-cc-pVDZ
molecule {
0 1
   O        0.00000        0.00000        0.49152
   C        0.00000        0.00000       -0.65516
}
energy('CCSD')
frequencies('CCSD')
--------------------------------------------------------------------------

*** tstart() called on atlantis
*** at Tue Apr 19 00:32:36 2022

   => Loading Basis Set <=

    Name: AUG-CC-PVDZ
    Role: ORBITAL
    Keyword: BASIS
    atoms 1 entry O          line   250 file /home/akrom/software/anaconda3/envs/ffpenv/share/psi4/basis/aug-cc-pvdz.gbs 
    atoms 2 entry C          line   178 file /home/akrom/software/anaconda3/envs/ffpenv/share/psi4/basis/aug-cc-pvdz.gbs 


         ---------------------------------------------------------
                                   SCF
               by Justin Turney, Rob Parrish, Andy Simmonett
                          and Daniel G. A. Smith
                              RHF Reference
                        1 Threads,    500 MiB Core
         ---------------------------------------------------------

  ==> Geometry <==

    Molecular point group: c2v
    Full point group: C_inf_v

    Geometry (in Angstrom), charge = 0, multiplicity = 1:

       Center              X                  Y                   Z               Mass       
    ------------   -----------------  -----------------  -----------------  -----------------
         O            0.000000000000     0.000000000000     0.491523556581    15.994914619570
         C            0.000000000000     0.000000000000    -0.655156443419    12.000000000000

  Running in c2v symmetry.

  Rotational constants: A = ************  B =      1.86994  C =      1.86994 [cm^-1]
  Rotational constants: A = ************  B =  56059.43274  C =  56059.43274 [MHz]
  Nuclear repulsion =   22.151346593783796

  Charge       = 0
  Multiplicity = 1
  Electrons    = 14
  Nalpha       = 7
  Nbeta        = 7

  ==> Algorithm <==

  SCF Algorithm Type is PK.
  DIIS enabled.
  MOM disabled.
  Fractional occupation disabled.
  Guess Type is SAD.
  Energy threshold   = 1.00e-08
  Density threshold  = 1.00e-08
  Integral threshold = 0.00e+00

  ==> Primary Basis <==

  Basis Set: AUG-CC-PVDZ
    Blend: AUG-CC-PVDZ
    Number of shells: 18
    Number of basis function: 46
    Number of Cartesian functions: 50
    Spherical Harmonics?: true
    Max angular momentum: 2

  ==> Pre-Iterations <==

   -------------------------------------------------------
    Irrep   Nso     Nmo     Nalpha   Nbeta   Ndocc  Nsocc
   -------------------------------------------------------
     A1        22      22       0       0       0       0
     A2         4       4       0       0       0       0
     B1        10      10       0       0       0       0
     B2        10      10       0       0       0       0
   -------------------------------------------------------
    Total      46      46       7       7       7       0
   -------------------------------------------------------

  ==> Integral Setup <==

  Using in-core PK algorithm.
   Calculation information:
      Number of atoms:                   2
      Number of AO shells:              18
      Number of primitives:             50
      Number of atomic orbitals:        50
      Number of basis functions:        46

      Integral cutoff                 1.00e-12
      Number of threads:                 1

  Performing in-core PK
  Using 1169642 doubles for integral storage.
  We computed 14706 shell quartets total.
  Whereas there are 14706 unique shell quartets.

  ==> DiskJK: Disk-Based J/K Matrices <==

    J tasked:                  Yes
    K tasked:                  Yes
    wK tasked:                  No
    Memory [MiB]:              375
    Schwarz Cutoff:          1E-12

    OpenMP threads:              1

  Minimum eigenvalue in the overlap matrix is 2.5355034729E-03.
  Using Symmetric Orthogonalization.

  SCF Guess: Superposition of Atomic Densities via on-the-fly atomic UHF.

  ==> Iterations <==

                        Total Energy        Delta E     RMS |[F,P]|

   @RHF iter SAD:  -111.81675323649306   -1.11817e+02   0.00000e+00 
   @RHF iter   1:  -112.72317059436723   -9.06417e-01   1.06122e-02 DIIS
   @RHF iter   2:  -112.73184078472039   -8.67019e-03   8.96650e-03 DIIS
   @RHF iter   3:  -112.75217155784595   -2.03308e-02   5.99582e-04 DIIS
   @RHF iter   4:  -112.75229910682270   -1.27549e-04   6.49790e-05 DIIS
   @RHF iter   5:  -112.75230137524377   -2.26842e-06   1.34745e-05 DIIS
   @RHF iter   6:  -112.75230150881534   -1.33572e-07   2.81708e-06 DIIS
   @RHF iter   7:  -112.75230151365746   -4.84212e-09   4.46169e-07 DIIS
   @RHF iter   8:  -112.75230151377446   -1.16998e-10   9.05074e-08 DIIS
   @RHF iter   9:  -112.75230151377906   -4.60432e-12   1.75918e-08 DIIS
   @RHF iter  10:  -112.75230151377932   -2.55795e-13   2.54069e-09 DIIS
  Energy and wave function converged.


  ==> Post-Iterations <==

    Orbital Energies [Eh]
    ---------------------

    Doubly Occupied:                                                      

       1A1   -20.679044     2A1   -11.381497     3A1    -1.517125  
       4A1    -0.806728     1B1    -0.633130     1B2    -0.633130  
       5A1    -0.556771  

    Virtual:                                                              

       2B2     0.077391     2B1     0.077391     6A1     0.081709  
       7A1     0.105069     3B2     0.165859     3B1     0.165859  
       8A1     0.225049     4B1     0.247789     4B2     0.247789  
       9A1     0.335113    10A1     0.433338     1A2     0.433338  
      11A1     0.519449     5B2     0.599347     5B1     0.599347  
      12A1     0.696923     6B2     0.748422     6B1     0.748422  
      13A1     0.923409    14A1     1.050862     2A2     1.053575  
      15A1     1.053575     7B2     1.203657     7B1     1.203657  
      16A1     1.428768     3A2     1.649713    17A1     1.649713  
       8B2     1.660099     8B1     1.660099     9B2     1.960185  
       9B1     1.960185    18A1     2.116612    19A1     2.204857  
      20A1     2.966083    21A1     3.551037     4A2     3.551037  
      10B1     3.670451    10B2     3.670451    22A1     4.012424  

    Final Occupation by Irrep:
             A1    A2    B1    B2 
    DOCC [     5,    0,    1,    1 ]

  @RHF Final Energy:  -112.75230151377932

   => Energetics <=

    Nuclear Repulsion Energy =             22.1513465937837957
    One-Electron Energy =                -197.3924492326104030
    Two-Electron Energy =                  62.4888011250473028
    Total Energy =                       -112.7523015137793152

Computation Completed


Properties will be evaluated at   0.000000,   0.000000,   0.000000 [a0]

Properties computed using the SCF density matrix

  Nuclear Dipole Moment: [e a0]
     X:     0.0000      Y:     0.0000      Z:     0.0024

  Electronic Dipole Moment: [e a0]
     X:     0.0000      Y:     0.0000      Z:    -0.1402

  Dipole Moment: [e a0]
     X:     0.0000      Y:     0.0000      Z:    -0.1379     Total:     0.1379

  Dipole Moment: [D]
     X:     0.0000      Y:     0.0000      Z:    -0.3505     Total:     0.3505


*** tstop() called on atlantis at Tue Apr 19 00:32:37 2022
Module time:
	user time   =       0.31 seconds =       0.01 minutes
	system time =       0.01 seconds =       0.00 minutes
	total time  =          1 seconds =       0.02 minutes
Total time:
	user time   =       0.31 seconds =       0.01 minutes
	system time =       0.01 seconds =       0.00 minutes
	total time  =          1 seconds =       0.02 minutes
 MINTS: Wrapper to libmints.
   by Justin Turney

   Calculation information:
      Number of threads:                 1
      Number of atoms:                   2
      Number of AO shells:              18
      Number of SO shells:              18
      Number of primitives:             50
      Number of atomic orbitals:        50
      Number of basis functions:        46

      Number of irreps:                  4
      Integral cutoff                 0.00e+00
      Number of functions per irrep: [  22    4   10   10 ]

 OEINTS: Overlap, kinetic, potential, dipole, and quadrupole integrals
         stored in file 35.

      Computing two-electron integrals...done
      Computed 132431 non-zero two-electron integrals.
        Stored in file 33.


*** tstart() called on atlantis
*** at Tue Apr 19 00:32:37 2022


	Wfn Parameters:
	--------------------
	Wavefunction         = CCSD
	Number of irreps     = 4
	Number of MOs        = 46
	Number of active MOs = 46
	AO-Basis             = NONE
	Semicanonical        = false
	Reference            = RHF
	Print Level          = 1

	IRREP	# MOs	# FZDC	# DOCC	# SOCC	# VIRT	# FZVR
	-----	-----	------	------	------	------	------
	 A1	   22	    0	    5	    0	    17	    0
	 A2	   4	    0	    0	    0	    4	    0
	 B1	   10	    0	    1	    0	    9	    0
	 B2	   10	    0	    1	    0	    9	    0
	Transforming integrals...
	IWL integrals will be deleted.
	(OO|OO)...
	Presorting SO-basis two-electron integrals.
	Sorting File: SO Ints (nn|nn) nbuckets = 1
	Transforming the one-electron integrals and constructing Fock matrices
	Starting first half-transformation.
	Sorting half-transformed integrals.
	First half integral transformation complete.
	Starting second half-transformation.
	Two-electron integral transformation complete.
	(OO|OV)...
	Starting second half-transformation.
	Two-electron integral transformation complete.
	(OO|VV)...
	Starting second half-transformation.
	Two-electron integral transformation complete.
	(OV|OO)...
	Starting first half-transformation.
	Sorting half-transformed integrals.
	First half integral transformation complete.
	Starting second half-transformation.
	Two-electron integral transformation complete.
	(OV|OV)...
	Starting second half-transformation.
	Two-electron integral transformation complete.
	(OV|VV)...
	Starting second half-transformation.
	Two-electron integral transformation complete.
	(VV|OO)...
	Starting first half-transformation.
	Sorting half-transformed integrals.
	First half integral transformation complete.
	Starting second half-transformation.
	Two-electron integral transformation complete.
	(VV|OV)...
	Starting second half-transformation.
	Two-electron integral transformation complete.
	(VV|VV)...
	Starting second half-transformation.
	Two-electron integral transformation complete.
	Frozen core energy     =      0.00000000000000

	Size of irrep 0 of <ab|cd> integrals:      0.218 (MW) /      1.745 (MB)
	Size of irrep 1 of <ab|cd> integrals:      0.089 (MW) /      0.710 (MB)
	Size of irrep 2 of <ab|cd> integrals:      0.143 (MW) /      1.143 (MB)
	Size of irrep 3 of <ab|cd> integrals:      0.143 (MW) /      1.143 (MB)
	Total:                                     0.593 (MW) /      4.741 (MB)

	Size of irrep 0 of <ia|bc> integrals:      0.048 (MW) /      0.385 (MB)
	Size of irrep 1 of <ia|bc> integrals:      0.011 (MW) /      0.091 (MB)
	Size of irrep 2 of <ia|bc> integrals:      0.025 (MW) /      0.200 (MB)
	Size of irrep 3 of <ia|bc> integrals:      0.025 (MW) /      0.200 (MB)
	Total:                                     0.109 (MW) /      0.875 (MB)

	Size of irrep 0 of tijab amplitudes:       0.013 (MW) /      0.101 (MB)
	Size of irrep 1 of tijab amplitudes:       0.001 (MW) /      0.005 (MB)
	Size of irrep 2 of tijab amplitudes:       0.004 (MW) /      0.030 (MB)
	Size of irrep 3 of tijab amplitudes:       0.004 (MW) /      0.030 (MB)
	Total:                                     0.021 (MW) /      0.166 (MB)

	Nuclear Rep. energy          =     22.15134659378380
	SCF energy                   =   -112.75230151377932
	One-electron energy          =   -197.39244917037959
	Two-electron energy          =     62.48880106281646
	Reference energy             =   -112.75230151377933

*** tstop() called on atlantis at Tue Apr 19 00:32:37 2022
Module time:
	user time   =       0.03 seconds =       0.00 minutes
	system time =       0.03 seconds =       0.00 minutes
	total time  =          0 seconds =       0.00 minutes
Total time:
	user time   =       0.42 seconds =       0.01 minutes
	system time =       0.04 seconds =       0.00 minutes
	total time  =          1 seconds =       0.02 minutes
            **************************
            *                        *
            *        CCENERGY        *
            *                        *
            **************************

    Nuclear Rep. energy (wfn)     =   22.151346593783796
    SCF energy          (wfn)     = -112.752301513779315
    Reference energy    (file100) = -112.752301513779329

    Input parameters:
    -----------------
    Wave function   =     CCSD
    Reference wfn   =     RHF
    Brueckner       =     No
    Memory (Mbytes) =     524.3
    Maxiter         =     50
    R_Convergence   =     1.0e-07
    E_Convergence   =     1.0e-06
    Restart         =     Yes
    DIIS            =     Yes
    AO Basis        =     NONE
    ABCD            =     NEW
    Cache Level     =     2
    Cache Type      =     LOW
    Print Level     =     1
    Num. of threads =     1
    # Amps to Print =     10
    Print MP2 Amps? =     No
    Analyze T2 Amps =     No
    Print Pair Ener =     No
    Local CC        =     No
    SCS-MP2         =     False
    SCSN-MP2        =     False
    SCS-CCSD        =     False

MP2 correlation energy -0.3073574310072011
                Solving CC Amplitude Equations
                ------------------------------
  Iter             Energy              RMS        T1Diag      D1Diag    New D1Diag    D2Diag
  ----     ---------------------    ---------   ----------  ----------  ----------   --------
     0        -0.307357431007201    0.000e+00    0.000000    0.000000    0.000000    0.145478
     1        -0.298496190842332    7.269e-02    0.014811    0.037232    0.037232    0.146531
     2        -0.309882966372879    2.883e-02    0.013490    0.033216    0.033216    0.155360
     3        -0.313316612144218    1.195e-02    0.016448    0.040554    0.040554    0.162962
     4        -0.313062941178227    2.251e-03    0.016754    0.041185    0.041185    0.163172
     5        -0.313168820430186    8.701e-04    0.016928    0.041604    0.041604    0.163091
     6        -0.313170334193235    1.810e-04    0.016958    0.041678    0.041678    0.162989
     7        -0.313170448064938    4.161e-05    0.016963    0.041690    0.041690    0.162968
     8        -0.313170768228306    1.369e-05    0.016965    0.041695    0.041695    0.162964
     9        -0.313170538526452    3.883e-06    0.016966    0.041697    0.041697    0.162963
    10        -0.313170396301539    1.004e-06    0.016966    0.041697    0.041697    0.162963
    11        -0.313170423543604    3.113e-07    0.016966    0.041697    0.041697    0.162963
    12        -0.313170406681204    1.099e-07    0.016966    0.041697    0.041697    0.162963
    13        -0.313170410820239    3.218e-08    0.016966    0.041697    0.041697    0.162963

    Iterations converged.


    Largest TIA Amplitudes:
              5  22        -0.0318955876
              6  31        -0.0318955876
              5  21        -0.0193414108
              6  30        -0.0193414108
              5  27         0.0124251020
              6  36         0.0124251020
              4   3         0.0114568078
              5  25         0.0112245462
              6  34         0.0112245462
              4   0        -0.0106440229

    Largest TIjAb Amplitudes:
      4   4  22  22        -0.0451544403
      4   4  31  31        -0.0451544403
      5   5  22  22        -0.0447101893
      6   6  31  31        -0.0447101893
      5   6  22  31        -0.0300384030
      6   5  31  22        -0.0300384030
      5   5  21  22        -0.0297154030
      5   5  22  21        -0.0297154030
      6   6  30  31        -0.0297154030
      6   6  31  30        -0.0297154030

    SCF energy       (wfn)                    = -112.752301513779315
    Reference energy (file100)                = -112.752301513779329

    Opposite-spin MP2 correlation energy      =   -0.225895126277379
    Same-spin MP2 correlation energy          =   -0.081462304729822
    MP2 correlation energy                    =   -0.307357431007201
      * MP2 total energy                      = -113.059658944786534

    Opposite-spin CCSD correlation energy     =   -0.244310324612433
    Same-spin CCSD correlation energy         =   -0.068860086207806
    CCSD correlation energy                   =   -0.313170410820239
      * CCSD total energy                     = -113.065471924599564

gradient() will perform analytic gradient computation.

*** tstart() called on atlantis
*** at Tue Apr 19 00:32:37 2022

   => Loading Basis Set <=

    Name: AUG-CC-PVDZ
    Role: ORBITAL
    Keyword: BASIS
    atoms 1 entry O          line   250 file /home/akrom/software/anaconda3/envs/ffpenv/share/psi4/basis/aug-cc-pvdz.gbs 
    atoms 2 entry C          line   178 file /home/akrom/software/anaconda3/envs/ffpenv/share/psi4/basis/aug-cc-pvdz.gbs 


         ---------------------------------------------------------
                                   SCF
               by Justin Turney, Rob Parrish, Andy Simmonett
                          and Daniel G. A. Smith
                              RHF Reference
                        1 Threads,    500 MiB Core
         ---------------------------------------------------------

  ==> Geometry <==

    Molecular point group: c2v
    Full point group: C_inf_v

    Geometry (in Angstrom), charge = 0, multiplicity = 1:

       Center              X                  Y                   Z               Mass       
    ------------   -----------------  -----------------  -----------------  -----------------
         O            0.000000000000     0.000000000000     0.491523556581    15.994914619570
         C            0.000000000000     0.000000000000    -0.655156443419    12.000000000000

  Running in c2v symmetry.

  Rotational constants: A = ************  B =      1.86994  C =      1.86994 [cm^-1]
  Rotational constants: A = ************  B =  56059.43274  C =  56059.43274 [MHz]
  Nuclear repulsion =   22.151346593783796

  Charge       = 0
  Multiplicity = 1
  Electrons    = 14
  Nalpha       = 7
  Nbeta        = 7

  ==> Algorithm <==

  SCF Algorithm Type is PK.
  DIIS enabled.
  MOM disabled.
  Fractional occupation disabled.
  Guess Type is SAD.
  Energy threshold   = 1.00e-10
  Density threshold  = 1.00e-10
  Integral threshold = 0.00e+00

  ==> Primary Basis <==

  Basis Set: AUG-CC-PVDZ
    Blend: AUG-CC-PVDZ
    Number of shells: 18
    Number of basis function: 46
    Number of Cartesian functions: 50
    Spherical Harmonics?: true
    Max angular momentum: 2

  ==> Pre-Iterations <==

   -------------------------------------------------------
    Irrep   Nso     Nmo     Nalpha   Nbeta   Ndocc  Nsocc
   -------------------------------------------------------
     A1        22      22       0       0       0       0
     A2         4       4       0       0       0       0
     B1        10      10       0       0       0       0
     B2        10      10       0       0       0       0
   -------------------------------------------------------
    Total      46      46       7       7       7       0
   -------------------------------------------------------

  ==> Integral Setup <==

  Using in-core PK algorithm.
   Calculation information:
      Number of atoms:                   2
      Number of AO shells:              18
      Number of primitives:             50
      Number of atomic orbitals:        50
      Number of basis functions:        46

      Integral cutoff                 1.00e-12
      Number of threads:                 1

  Performing in-core PK
  Using 1169642 doubles for integral storage.
  We computed 14706 shell quartets total.
  Whereas there are 14706 unique shell quartets.

  ==> DiskJK: Disk-Based J/K Matrices <==

    J tasked:                  Yes
    K tasked:                  Yes
    wK tasked:                  No
    Memory [MiB]:              375
    Schwarz Cutoff:          1E-12

    OpenMP threads:              1

  Minimum eigenvalue in the overlap matrix is 2.5355034729E-03.
  Using Symmetric Orthogonalization.

  SCF Guess: Superposition of Atomic Densities via on-the-fly atomic UHF.

  ==> Iterations <==

                        Total Energy        Delta E     RMS |[F,P]|

   @RHF iter SAD:  -111.81675323649306   -1.11817e+02   0.00000e+00 
   @RHF iter   1:  -112.72317059436723   -9.06417e-01   1.06122e-02 DIIS
   @RHF iter   2:  -112.73184078472039   -8.67019e-03   8.96650e-03 DIIS
   @RHF iter   3:  -112.75217155784595   -2.03308e-02   5.99582e-04 DIIS
   @RHF iter   4:  -112.75229910682270   -1.27549e-04   6.49790e-05 DIIS
   @RHF iter   5:  -112.75230137524377   -2.26842e-06   1.34745e-05 DIIS
   @RHF iter   6:  -112.75230150881534   -1.33572e-07   2.81708e-06 DIIS
   @RHF iter   7:  -112.75230151365746   -4.84212e-09   4.46169e-07 DIIS
   @RHF iter   8:  -112.75230151377446   -1.16998e-10   9.05074e-08 DIIS
   @RHF iter   9:  -112.75230151377906   -4.60432e-12   1.75918e-08 DIIS
   @RHF iter  10:  -112.75230151377932   -2.55795e-13   2.54069e-09 DIIS
   @RHF iter  11:  -112.75230151377947   -1.56319e-13   2.49749e-10 DIIS
   @RHF iter  12:  -112.75230151377937    9.94760e-14   3.32713e-11 DIIS
  Energy and wave function converged.


  ==> Post-Iterations <==

    Orbital Energies [Eh]
    ---------------------

    Doubly Occupied:                                                      

       1A1   -20.679044     2A1   -11.381497     3A1    -1.517125  
       4A1    -0.806728     1B1    -0.633130     1B2    -0.633130  
       5A1    -0.556771  

    Virtual:                                                              

       2B1     0.077391     2B2     0.077391     6A1     0.081709  
       7A1     0.105069     3B2     0.165859     3B1     0.165859  
       8A1     0.225049     4B1     0.247789     4B2     0.247789  
       9A1     0.335113    10A1     0.433338     1A2     0.433338  
      11A1     0.519449     5B1     0.599347     5B2     0.599347  
      12A1     0.696923     6B1     0.748422     6B2     0.748422  
      13A1     0.923409    14A1     1.050862     2A2     1.053575  
      15A1     1.053575     7B2     1.203657     7B1     1.203657  
      16A1     1.428768     3A2     1.649713    17A1     1.649713  
       8B1     1.660099     8B2     1.660099     9B1     1.960185  
       9B2     1.960185    18A1     2.116612    19A1     2.204857  
      20A1     2.966083    21A1     3.551037     4A2     3.551037  
      10B2     3.670451    10B1     3.670451    22A1     4.012424  

    Final Occupation by Irrep:
             A1    A2    B1    B2 
    DOCC [     5,    0,    1,    1 ]

  @RHF Final Energy:  -112.75230151377937

   => Energetics <=

    Nuclear Repulsion Energy =             22.1513465937837957
    One-Electron Energy =                -197.3924491579377332
    Two-Electron Energy =                  62.4888010503745761
    Total Energy =                       -112.7523015137793720

Computation Completed


Properties will be evaluated at   0.000000,   0.000000,   0.000000 [a0]

Properties computed using the SCF density matrix

  Nuclear Dipole Moment: [e a0]
     X:     0.0000      Y:     0.0000      Z:     0.0024

  Electronic Dipole Moment: [e a0]
     X:     0.0000      Y:     0.0000      Z:    -0.1402

  Dipole Moment: [e a0]
     X:     0.0000      Y:     0.0000      Z:    -0.1379     Total:     0.1379

  Dipole Moment: [D]
     X:     0.0000      Y:     0.0000      Z:    -0.3505     Total:     0.3505


*** tstop() called on atlantis at Tue Apr 19 00:32:37 2022
Module time:
	user time   =       0.29 seconds =       0.00 minutes
	system time =       0.01 seconds =       0.00 minutes
	total time  =          0 seconds =       0.00 minutes
Total time:
	user time   =       0.79 seconds =       0.01 minutes
	system time =       0.16 seconds =       0.00 minutes
	total time  =          1 seconds =       0.02 minutes
 MINTS: Wrapper to libmints.
   by Justin Turney

   Calculation information:
      Number of threads:                 1
      Number of atoms:                   2
      Number of AO shells:              18
      Number of SO shells:              18
      Number of primitives:             50
      Number of atomic orbitals:        50
      Number of basis functions:        46

      Number of irreps:                  4
      Integral cutoff                 0.00e+00
      Number of functions per irrep: [  22    4   10   10 ]

 OEINTS: Overlap, kinetic, potential, dipole, and quadrupole integrals
         stored in file 35.

      Computing two-electron integrals...done
      Computed 132431 non-zero two-electron integrals.
        Stored in file 33.


*** tstart() called on atlantis
*** at Tue Apr 19 00:32:37 2022


	Wfn Parameters:
	--------------------
	Wavefunction         = CCSD
	Number of irreps     = 4
	Number of MOs        = 46
	Number of active MOs = 46
	AO-Basis             = NONE
	Semicanonical        = false
	Reference            = RHF
	Print Level          = 1

	IRREP	# MOs	# FZDC	# DOCC	# SOCC	# VIRT	# FZVR
	-----	-----	------	------	------	------	------
	 A1	   22	    0	    5	    0	    17	    0
	 A2	   4	    0	    0	    0	    4	    0
	 B1	   10	    0	    1	    0	    9	    0
	 B2	   10	    0	    1	    0	    9	    0
	Transforming integrals...
	IWL integrals will be deleted.
	(OO|OO)...
	Presorting SO-basis two-electron integrals.
	Sorting File: SO Ints (nn|nn) nbuckets = 1
	Transforming the one-electron integrals and constructing Fock matrices
	Starting first half-transformation.
	Sorting half-transformed integrals.
	First half integral transformation complete.
	Starting second half-transformation.
	Two-electron integral transformation complete.
	(OO|OV)...
	Starting second half-transformation.
	Two-electron integral transformation complete.
	(OO|VV)...
	Starting second half-transformation.
	Two-electron integral transformation complete.
	(OV|OO)...
	Starting first half-transformation.
	Sorting half-transformed integrals.
	First half integral transformation complete.
	Starting second half-transformation.
	Two-electron integral transformation complete.
	(OV|OV)...
	Starting second half-transformation.
	Two-electron integral transformation complete.
	(OV|VV)...
	Starting second half-transformation.
	Two-electron integral transformation complete.
	(VV|OO)...
	Starting first half-transformation.
	Sorting half-transformed integrals.
	First half integral transformation complete.
	Starting second half-transformation.
	Two-electron integral transformation complete.
	(VV|OV)...
	Starting second half-transformation.
	Two-electron integral transformation complete.
	(VV|VV)...
	Starting second half-transformation.
	Two-electron integral transformation complete.
	Frozen core energy     =      0.00000000000000

	Size of irrep 0 of <ab|cd> integrals:      0.218 (MW) /      1.745 (MB)
	Size of irrep 1 of <ab|cd> integrals:      0.089 (MW) /      0.710 (MB)
	Size of irrep 2 of <ab|cd> integrals:      0.143 (MW) /      1.143 (MB)
	Size of irrep 3 of <ab|cd> integrals:      0.143 (MW) /      1.143 (MB)
	Total:                                     0.593 (MW) /      4.741 (MB)

	Size of irrep 0 of <ia|bc> integrals:      0.048 (MW) /      0.385 (MB)
	Size of irrep 1 of <ia|bc> integrals:      0.011 (MW) /      0.091 (MB)
	Size of irrep 2 of <ia|bc> integrals:      0.025 (MW) /      0.200 (MB)
	Size of irrep 3 of <ia|bc> integrals:      0.025 (MW) /      0.200 (MB)
	Total:                                     0.109 (MW) /      0.875 (MB)

	Size of irrep 0 of tijab amplitudes:       0.013 (MW) /      0.101 (MB)
	Size of irrep 1 of tijab amplitudes:       0.001 (MW) /      0.005 (MB)
	Size of irrep 2 of tijab amplitudes:       0.004 (MW) /      0.030 (MB)
	Size of irrep 3 of tijab amplitudes:       0.004 (MW) /      0.030 (MB)
	Total:                                     0.021 (MW) /      0.166 (MB)

	Nuclear Rep. energy          =     22.15134659378380
	SCF energy                   =   -112.75230151377937
	One-electron energy          =   -197.39244915689125
	Two-electron energy          =     62.48880104932812
	Reference energy             =   -112.75230151377933

*** tstop() called on atlantis at Tue Apr 19 00:32:37 2022
Module time:
	user time   =       0.03 seconds =       0.00 minutes
	system time =       0.04 seconds =       0.00 minutes
	total time  =          0 seconds =       0.00 minutes
Total time:
	user time   =       0.89 seconds =       0.01 minutes
	system time =       0.20 seconds =       0.00 minutes
	total time  =          1 seconds =       0.02 minutes
            **************************
            *                        *
            *        CCENERGY        *
            *                        *
            **************************

    Nuclear Rep. energy (wfn)     =   22.151346593783796
    SCF energy          (wfn)     = -112.752301513779372
    Reference energy    (file100) = -112.752301513779329

    Input parameters:
    -----------------
    Wave function   =     CCSD
    Reference wfn   =     RHF
    Brueckner       =     No
    Memory (Mbytes) =     524.3
    Maxiter         =     50
    R_Convergence   =     1.0e-07
    E_Convergence   =     1.0e-08
    Restart         =     Yes
    DIIS            =     Yes
    AO Basis        =     NONE
    ABCD            =     NEW
    Cache Level     =     2
    Cache Type      =     LOW
    Print Level     =     1
    Num. of threads =     1
    # Amps to Print =     10
    Print MP2 Amps? =     No
    Analyze T2 Amps =     No
    Print Pair Ener =     No
    Local CC        =     No
    SCS-MP2         =     False
    SCSN-MP2        =     False
    SCS-CCSD        =     False

    Using old T1 amplitudes.
    Using old T2 amplitudes.

MP2 correlation energy -0.3073574312735573
                Solving CC Amplitude Equations
                ------------------------------
  Iter             Energy              RMS        T1Diag      D1Diag    New D1Diag    D2Diag
  ----     ---------------------    ---------   ----------  ----------  ----------   --------
     0        -0.313170410991452    0.000e+00    0.016966    0.041697    0.041697    0.162963
     1        -0.313170410462927    1.422e-08    0.016966    0.041697    0.041697    0.162963
     2        -0.313170411236932    7.172e-09    0.016966    0.041697    0.041697    0.162963

    Iterations converged.


    Largest TIA Amplitudes:
              5  22        -0.0318955874
              6  31        -0.0318955874
              5  21        -0.0193414101
              6  30        -0.0193414101
              5  27         0.0124251022
              6  36         0.0124251022
              4   3         0.0114568092
              5  25         0.0112245468
              6  34         0.0112245468
              4   0        -0.0106440249

    Largest TIjAb Amplitudes:
      4   4  22  22        -0.0451544377
      4   4  31  31        -0.0451544377
      5   5  22  22        -0.0447101888
      6   6  31  31        -0.0447101888
      5   6  22  31        -0.0300384025
      6   5  31  22        -0.0300384025
      5   5  21  22        -0.0297154027
      5   5  22  21        -0.0297154027
      6   6  30  31        -0.0297154027
      6   6  31  30        -0.0297154027

    SCF energy       (wfn)                    = -112.752301513779372
    Reference energy (file100)                = -112.752301513779329

    Opposite-spin MP2 correlation energy      =   -0.225895126453331
    Same-spin MP2 correlation energy          =   -0.081462304820226
    MP2 correlation energy                    =   -0.307357431273557
      * MP2 total energy                      = -113.059658945052888

    Opposite-spin CCSD correlation energy     =   -0.244310325821929
    Same-spin CCSD correlation energy         =   -0.068860085415002
    CCSD correlation energy                   =   -0.313170411236932
      * CCSD total energy                     = -113.065471925016254


			**************************
			*                        *
			*         CCHBAR         *
			*                        *
			**************************


			**************************
			*        CCLAMBDA        *
			**************************


	Nuclear Rep. energy (wfn)     =   22.151346593783796
	Reference           (wfn)     =                    0
	SCF energy          (wfn)     = -112.752301513779372
	Reference energy    (CC_INFO) = -112.752301513779329
	CCSD energy         (CC_INFO) =   -0.313170411236932
	Total CCSD energy   (CC_INFO) = -113.065471925016254

	Input parameters:
	-----------------
	Maxiter           =     50
	Convergence       = 1.0e-07
	Restart           =     No
	Cache Level       =     2
	Model III         =     No
	DIIS              =     Yes
	AO Basis          =     No
	ABCD              =     NEW
	Local CC          =     No
	Parameters for left-handed eigenvectors:
	    Irr   Root  Ground-State?    EOM energy        R0
	  1   0     0        Yes       0.0000000000   1.0000000000
	Labels for eigenvector 1:
	LIA 0 -1, Lia 0 -1, LIJAB 0 -1, Lijab 0 -1, LIjAb 0 -1, 2LIjAb - LIjbA 0 -1
	Symmetry of left-hand state: A1
	Symmetry of left-hand eigenvector: A1

	          Solving Lambda Equations
	          ------------------------
	Iter     PseudoEnergy or Norm         RMS  
	----     ---------------------     --------
	   0        -0.313725939700261    0.000e+00
	   1        -0.305576815385261    4.231e-02
	   2        -0.303028762248214    8.341e-03
	   3        -0.302628906524810    5.159e-03
	   4        -0.302376321350572    1.445e-03
	   5        -0.302427882768132    3.902e-04
	   6        -0.302422652218773    9.129e-05
	   7        -0.302421611032436    2.329e-05
	   8        -0.302421685655193    5.984e-06
	   9        -0.302421628124185    1.776e-06
	  10        -0.302421630830747    5.530e-07
	  11        -0.302421625992319    1.486e-07
	  12        -0.302421621392647    4.154e-08

	Largest LIA Amplitudes:
	          5  22        -0.0137155057
	          6  31        -0.0137155057
	          4   3         0.0129813926
	          4   0        -0.0119090424
	          5  27         0.0107586504
	          6  36         0.0107586504
	          4   7         0.0087040979
	          4   8         0.0083761447
	          5  21        -0.0071806601
	          6  30        -0.0071806601

	Largest LIjAb Amplitudes:
	  4   4  22  22        -0.0432774724
	  4   4  31  31        -0.0432774724
	  5   5  22  22        -0.0412160432
	  6   6  31  31        -0.0412160432
	  5   5  21  22        -0.0274815213
	  5   5  22  21        -0.0274815213
	  6   6  30  31        -0.0274815213
	  6   6  31  30        -0.0274815213
	  4   4   8   8        -0.0273459769
	  5   6  22  31        -0.0272155150

	Iterations converged.

	Overlap <L|e^T> =        0.88772035883

			**************************
			*                        *
			*        CCDENSITY       *
			*                        *
			**************************


	Input parameters:
	-----------------
	Wave function    =   CCSD
	Reference wfn    =   RHF
	Dertype          = 1
	Tolerance        = 1.0e-14
	Cache Level      = 2
	AO Basis         = No
	OPDM Only        = No
	Relax OPDM       = Yes
	Compute Xi       = No
	Use Zeta         = No
	Xi connected     = Yes
	Compute NO       = No

	Nuclear Rep. energy (wfn)     =   22.151346593783796
	SCF energy          (wfn)     = -112.752301513779372
	Reference energy    (file100) = -112.752301513779329
	CCSD energy         (CC_INFO) =   -0.313170411236932
	Total CCSD energy   (CC_INFO) = -113.065471925016254
	Number of States = 1

	Ground?  State     EOM Energy       R0
	  Yes     0 A1    0.0000000000   1.00000000

	Virial Theorem Data:
	--------------------
	Kinetic energy (ref)   =  112.472230849690902
	Kinetic energy (corr)  =    0.269125976949170
	Kinetic energy (total) =  112.741356826640072
	-V/T (ref)             =    2.002490131670481
	-V/T (corr)            =    2.163657313155172
	-V/T (total)           =    2.002874855399111
  Cartesian Displacement SALCs
  By SALC:
  Number of SALCs: 2, nirreps: A1
  Project out translations: False
  Project out rotations: False
	irrep = 0, ncomponent = 1
		0: atom 0, direction z, coef 1.000000
	irrep = 0, ncomponent = 1
		0: atom 1, direction z, coef 1.000000

  By Atomic Center:
  Number of atomic centers: 2
   Atomic Center 0:
	x component, size = 0
	y component, size = 0
	z component, size = 1
		0: salc 0, irrep 0, coef 1.000000
   Atomic Center 1:
	x component, size = 0
	y component, size = 0
	z component, size = 1
		0: salc 1, irrep 0, coef 1.000000

    Molecular point group: c2v
    Full point group: C_inf_v

    Geometry (in Bohr), charge = 0, multiplicity = 1:

       Center              X                  Y                   Z       
    ------------   -----------------  -----------------  -----------------
         O            0.000000000000     0.000000000000     0.928844906150
         C            0.000000000000     0.000000000000    -1.238066247390

	Presorting MO-basis TPDM.
	Sorting File: MO TPDM (AA|AA) nbuckets = 1
	Starting first half-transformation.
	Sorting half-transformed TPDM.
	First half integral transformation complete.


  -Nuclear Repulsion Energy 1st Derivatives:
     Atom            X                  Y                   Z
    ------   -----------------  -----------------  -----------------
       1        0.000000000000     0.000000000000   -10.222544914957
       2        0.000000000000     0.000000000000    10.222544914957


  -Core Hamiltonian Gradient:
     Atom            X                  Y                   Z
    ------   -----------------  -----------------  -----------------
       1        0.000000000000     0.000000000000    24.843284610821
       2        0.000000000000     0.000000000000   -24.843284610821


  -Lagrangian contribution to gradient:
     Atom            X                  Y                   Z
    ------   -----------------  -----------------  -----------------
       1        0.000000000000     0.000000000000    -0.839680215900
       2        0.000000000000     0.000000000000     0.839680215900


  -Two-electron contribution to gradient:
     Atom            X                  Y                   Z
    ------   -----------------  -----------------  -----------------
       1        0.000000000000     0.000000000000   -13.765486934353
       2        0.000000000000     0.000000000000    13.765486934353


  -Total gradient:
     Atom            X                  Y                   Z
    ------   -----------------  -----------------  -----------------
       1        0.000000000000     0.000000000000     0.015572545611
       2        0.000000000000     0.000000000000    -0.015572545611


  Based on options and gradient (rms=8.99E-03), recommend projecting translations and projecting rotations.
hessian() will perform frequency computation by finite difference of analytic gradients.

         ----------------------------------------------------------
                                   FINDIF
                     R. A. King and Jonathon Misiewicz
         ---------------------------------------------------------

  Using finite-differences of gradients to determine vibrational frequencies and 
  normal modes.  Resulting frequencies are only valid at stationary points.
    Generating geometries for use with 3-point formula.
    Displacement size will be 5.00e-03.
    Number of atoms is 2.
    Number of irreps is 4.
    Number of SALCs is 1.
    Translations projected? 1. Rotations projected? 1.
    Index of SALCs per irrep:
     1 :  0 
     2 : 
     3 : 
     4 : 
    Number of SALCs per irrep:
     Irrep 1: 1
     Irrep 2: 0
     Irrep 3: 0
     Irrep 4: 0
    Number of geometries (including reference) is 3.
    Number of displacements per irrep:
      Irrep 1: 2
      Irrep 2: 0
      Irrep 3: 0
      Irrep 4: 0

  //>>>>>>>>>>>>>>>>>>>>>>>>>>>>>>>>>>>//
  //    Loading displacement 1 of 3    //
  //<<<<<<<<<<<<<<<<<<<<<<<<<<<<<<<<<<<//
gradient() will perform analytic gradient computation.

*** tstart() called on atlantis
*** at Tue Apr 19 00:32:38 2022

   => Loading Basis Set <=

    Name: AUG-CC-PVDZ
    Role: ORBITAL
    Keyword: BASIS
    atoms 1 entry O          line   250 file /home/akrom/software/anaconda3/envs/ffpenv/share/psi4/basis/aug-cc-pvdz.gbs 
    atoms 2 entry C          line   178 file /home/akrom/software/anaconda3/envs/ffpenv/share/psi4/basis/aug-cc-pvdz.gbs 


         ---------------------------------------------------------
                                   SCF
               by Justin Turney, Rob Parrish, Andy Simmonett
                          and Daniel G. A. Smith
                              RHF Reference
                        1 Threads,    500 MiB Core
         ---------------------------------------------------------

  ==> Geometry <==

    Molecular point group: c2v
    Full point group: C_inf_v

    Geometry (in Angstrom), charge = 0, multiplicity = 1:

       Center              X                  Y                   Z               Mass       
    ------------   -----------------  -----------------  -----------------  -----------------
         O            0.000000000000     0.000000000000     0.491523556581    15.994914619570
         C            0.000000000000     0.000000000000    -0.655156443419    12.000000000000

  Running in c2v symmetry.

  Rotational constants: A = ************  B =      1.86994  C =      1.86994 [cm^-1]
  Rotational constants: A = ************  B =  56059.43274  C =  56059.43274 [MHz]
  Nuclear repulsion =   22.151346593783796

  Charge       = 0
  Multiplicity = 1
  Electrons    = 14
  Nalpha       = 7
  Nbeta        = 7

  ==> Algorithm <==

  SCF Algorithm Type is PK.
  DIIS enabled.
  MOM disabled.
  Fractional occupation disabled.
  Guess Type is SAD.
  Energy threshold   = 1.00e-10
  Density threshold  = 1.00e-10
  Integral threshold = 0.00e+00

  ==> Primary Basis <==

  Basis Set: AUG-CC-PVDZ
    Blend: AUG-CC-PVDZ
    Number of shells: 18
    Number of basis function: 46
    Number of Cartesian functions: 50
    Spherical Harmonics?: true
    Max angular momentum: 2

  ==> Pre-Iterations <==

   -------------------------------------------------------
    Irrep   Nso     Nmo     Nalpha   Nbeta   Ndocc  Nsocc
   -------------------------------------------------------
     A1        22      22       0       0       0       0
     A2         4       4       0       0       0       0
     B1        10      10       0       0       0       0
     B2        10      10       0       0       0       0
   -------------------------------------------------------
    Total      46      46       7       7       7       0
   -------------------------------------------------------

  ==> Integral Setup <==

  Using in-core PK algorithm.
   Calculation information:
      Number of atoms:                   2
      Number of AO shells:              18
      Number of primitives:             50
      Number of atomic orbitals:        50
      Number of basis functions:        46

      Integral cutoff                 1.00e-12
      Number of threads:                 1

  Performing in-core PK
  Using 1169642 doubles for integral storage.
  We computed 14706 shell quartets total.
  Whereas there are 14706 unique shell quartets.

  ==> DiskJK: Disk-Based J/K Matrices <==

    J tasked:                  Yes
    K tasked:                  Yes
    wK tasked:                  No
    Memory [MiB]:              375
    Schwarz Cutoff:          1E-12

    OpenMP threads:              1

  Minimum eigenvalue in the overlap matrix is 2.5355034729E-03.
  Using Symmetric Orthogonalization.

  SCF Guess: Superposition of Atomic Densities via on-the-fly atomic UHF.

  ==> Iterations <==

                        Total Energy        Delta E     RMS |[F,P]|

   @RHF iter SAD:  -111.81675323649306   -1.11817e+02   0.00000e+00 
   @RHF iter   1:  -112.72317059436723   -9.06417e-01   1.06122e-02 DIIS
   @RHF iter   2:  -112.73184078472039   -8.67019e-03   8.96650e-03 DIIS
   @RHF iter   3:  -112.75217155784595   -2.03308e-02   5.99582e-04 DIIS
   @RHF iter   4:  -112.75229910682270   -1.27549e-04   6.49790e-05 DIIS
   @RHF iter   5:  -112.75230137524377   -2.26842e-06   1.34745e-05 DIIS
   @RHF iter   6:  -112.75230150881534   -1.33572e-07   2.81708e-06 DIIS
   @RHF iter   7:  -112.75230151365746   -4.84212e-09   4.46169e-07 DIIS
   @RHF iter   8:  -112.75230151377446   -1.16998e-10   9.05074e-08 DIIS
   @RHF iter   9:  -112.75230151377906   -4.60432e-12   1.75918e-08 DIIS
   @RHF iter  10:  -112.75230151377932   -2.55795e-13   2.54069e-09 DIIS
   @RHF iter  11:  -112.75230151377947   -1.56319e-13   2.49749e-10 DIIS
   @RHF iter  12:  -112.75230151377937    9.94760e-14   3.32713e-11 DIIS
  Energy and wave function converged.


  ==> Post-Iterations <==

    Orbital Energies [Eh]
    ---------------------

    Doubly Occupied:                                                      

       1A1   -20.679044     2A1   -11.381497     3A1    -1.517125  
       4A1    -0.806728     1B1    -0.633130     1B2    -0.633130  
       5A1    -0.556771  

    Virtual:                                                              

       2B1     0.077391     2B2     0.077391     6A1     0.081709  
       7A1     0.105069     3B2     0.165859     3B1     0.165859  
       8A1     0.225049     4B1     0.247789     4B2     0.247789  
       9A1     0.335113    10A1     0.433338     1A2     0.433338  
      11A1     0.519449     5B1     0.599347     5B2     0.599347  
      12A1     0.696923     6B1     0.748422     6B2     0.748422  
      13A1     0.923409    14A1     1.050862     2A2     1.053575  
      15A1     1.053575     7B2     1.203657     7B1     1.203657  
      16A1     1.428768     3A2     1.649713    17A1     1.649713  
       8B1     1.660099     8B2     1.660099     9B1     1.960185  
       9B2     1.960185    18A1     2.116612    19A1     2.204857  
      20A1     2.966083    21A1     3.551037     4A2     3.551037  
      10B2     3.670451    10B1     3.670451    22A1     4.012424  

    Final Occupation by Irrep:
             A1    A2    B1    B2 
    DOCC [     5,    0,    1,    1 ]

  @RHF Final Energy:  -112.75230151377937

   => Energetics <=

    Nuclear Repulsion Energy =             22.1513465937837957
    One-Electron Energy =                -197.3924491579377332
    Two-Electron Energy =                  62.4888010503745761
    Total Energy =                       -112.7523015137793720

Computation Completed


Properties will be evaluated at   0.000000,   0.000000,   0.000000 [a0]

Properties computed using the SCF density matrix

  Nuclear Dipole Moment: [e a0]
     X:     0.0000      Y:     0.0000      Z:     0.0024

  Electronic Dipole Moment: [e a0]
     X:     0.0000      Y:     0.0000      Z:    -0.1402

  Dipole Moment: [e a0]
     X:     0.0000      Y:     0.0000      Z:    -0.1379     Total:     0.1379

  Dipole Moment: [D]
     X:     0.0000      Y:     0.0000      Z:    -0.3505     Total:     0.3505


*** tstop() called on atlantis at Tue Apr 19 00:32:39 2022
Module time:
	user time   =       0.31 seconds =       0.01 minutes
	system time =       0.01 seconds =       0.00 minutes
	total time  =          1 seconds =       0.02 minutes
Total time:
	user time   =       1.98 seconds =       0.03 minutes
	system time =       0.31 seconds =       0.01 minutes
	total time  =          3 seconds =       0.05 minutes
 MINTS: Wrapper to libmints.
   by Justin Turney

   Calculation information:
      Number of threads:                 1
      Number of atoms:                   2
      Number of AO shells:              18
      Number of SO shells:              18
      Number of primitives:             50
      Number of atomic orbitals:        50
      Number of basis functions:        46

      Number of irreps:                  4
      Integral cutoff                 0.00e+00
      Number of functions per irrep: [  22    4   10   10 ]

 OEINTS: Overlap, kinetic, potential, dipole, and quadrupole integrals
         stored in file 35.

      Computing two-electron integrals...done
      Computed 132431 non-zero two-electron integrals.
        Stored in file 33.


*** tstart() called on atlantis
*** at Tue Apr 19 00:32:39 2022


	Wfn Parameters:
	--------------------
	Wavefunction         = CCSD
	Number of irreps     = 4
	Number of MOs        = 46
	Number of active MOs = 46
	AO-Basis             = NONE
	Semicanonical        = false
	Reference            = RHF
	Print Level          = 1

	IRREP	# MOs	# FZDC	# DOCC	# SOCC	# VIRT	# FZVR
	-----	-----	------	------	------	------	------
	 A1	   22	    0	    5	    0	    17	    0
	 A2	   4	    0	    0	    0	    4	    0
	 B1	   10	    0	    1	    0	    9	    0
	 B2	   10	    0	    1	    0	    9	    0
	Transforming integrals...
	IWL integrals will be deleted.
	(OO|OO)...
	Presorting SO-basis two-electron integrals.
	Sorting File: SO Ints (nn|nn) nbuckets = 1
	Transforming the one-electron integrals and constructing Fock matrices
	Starting first half-transformation.
	Sorting half-transformed integrals.
	First half integral transformation complete.
	Starting second half-transformation.
	Two-electron integral transformation complete.
	(OO|OV)...
	Starting second half-transformation.
	Two-electron integral transformation complete.
	(OO|VV)...
	Starting second half-transformation.
	Two-electron integral transformation complete.
	(OV|OO)...
	Starting first half-transformation.
	Sorting half-transformed integrals.
	First half integral transformation complete.
	Starting second half-transformation.
	Two-electron integral transformation complete.
	(OV|OV)...
	Starting second half-transformation.
	Two-electron integral transformation complete.
	(OV|VV)...
	Starting second half-transformation.
	Two-electron integral transformation complete.
	(VV|OO)...
	Starting first half-transformation.
	Sorting half-transformed integrals.
	First half integral transformation complete.
	Starting second half-transformation.
	Two-electron integral transformation complete.
	(VV|OV)...
	Starting second half-transformation.
	Two-electron integral transformation complete.
	(VV|VV)...
	Starting second half-transformation.
	Two-electron integral transformation complete.
	Frozen core energy     =      0.00000000000000

	Size of irrep 0 of <ab|cd> integrals:      0.218 (MW) /      1.745 (MB)
	Size of irrep 1 of <ab|cd> integrals:      0.089 (MW) /      0.710 (MB)
	Size of irrep 2 of <ab|cd> integrals:      0.143 (MW) /      1.143 (MB)
	Size of irrep 3 of <ab|cd> integrals:      0.143 (MW) /      1.143 (MB)
	Total:                                     0.593 (MW) /      4.741 (MB)

	Size of irrep 0 of <ia|bc> integrals:      0.048 (MW) /      0.385 (MB)
	Size of irrep 1 of <ia|bc> integrals:      0.011 (MW) /      0.091 (MB)
	Size of irrep 2 of <ia|bc> integrals:      0.025 (MW) /      0.200 (MB)
	Size of irrep 3 of <ia|bc> integrals:      0.025 (MW) /      0.200 (MB)
	Total:                                     0.109 (MW) /      0.875 (MB)

	Size of irrep 0 of tijab amplitudes:       0.013 (MW) /      0.101 (MB)
	Size of irrep 1 of tijab amplitudes:       0.001 (MW) /      0.005 (MB)
	Size of irrep 2 of tijab amplitudes:       0.004 (MW) /      0.030 (MB)
	Size of irrep 3 of tijab amplitudes:       0.004 (MW) /      0.030 (MB)
	Total:                                     0.021 (MW) /      0.166 (MB)

	Nuclear Rep. energy          =     22.15134659378380
	SCF energy                   =   -112.75230151377937
	One-electron energy          =   -197.39244915689125
	Two-electron energy          =     62.48880104932812
	Reference energy             =   -112.75230151377933

*** tstop() called on atlantis at Tue Apr 19 00:32:39 2022
Module time:
	user time   =       0.04 seconds =       0.00 minutes
	system time =       0.02 seconds =       0.00 minutes
	total time  =          0 seconds =       0.00 minutes
Total time:
	user time   =       2.09 seconds =       0.03 minutes
	system time =       0.33 seconds =       0.01 minutes
	total time  =          3 seconds =       0.05 minutes
            **************************
            *                        *
            *        CCENERGY        *
            *                        *
            **************************

    Nuclear Rep. energy (wfn)     =   22.151346593783796
    SCF energy          (wfn)     = -112.752301513779372
    Reference energy    (file100) = -112.752301513779329

    Input parameters:
    -----------------
    Wave function   =     CCSD
    Reference wfn   =     RHF
    Brueckner       =     No
    Memory (Mbytes) =     524.3
    Maxiter         =     50
    R_Convergence   =     1.0e-07
    E_Convergence   =     1.0e-08
    Restart         =     Yes
    DIIS            =     Yes
    AO Basis        =     NONE
    ABCD            =     NEW
    Cache Level     =     2
    Cache Type      =     LOW
    Print Level     =     1
    Num. of threads =     1
    # Amps to Print =     10
    Print MP2 Amps? =     No
    Analyze T2 Amps =     No
    Print Pair Ener =     No
    Local CC        =     No
    SCS-MP2         =     False
    SCSN-MP2        =     False
    SCS-CCSD        =     False

MP2 correlation energy -0.3073574312735573
                Solving CC Amplitude Equations
                ------------------------------
  Iter             Energy              RMS        T1Diag      D1Diag    New D1Diag    D2Diag
  ----     ---------------------    ---------   ----------  ----------  ----------   --------
     0        -0.307357431273557    0.000e+00    0.000000    0.000000    0.000000    0.145478
     1        -0.298496190959645    7.269e-02    0.014811    0.037232    0.037232    0.146531
     2        -0.309882966517086    2.883e-02    0.013490    0.033216    0.033216    0.155360
     3        -0.313316612287996    1.195e-02    0.016448    0.040554    0.040554    0.162962
     4        -0.313062941322787    2.251e-03    0.016754    0.041185    0.041185    0.163172
     5        -0.313168820575393    8.701e-04    0.016928    0.041604    0.041604    0.163091
     6        -0.313170334338398    1.810e-04    0.016958    0.041678    0.041678    0.162989
     7        -0.313170448210119    4.161e-05    0.016963    0.041690    0.041690    0.162968
     8        -0.313170768373490    1.369e-05    0.016965    0.041695    0.041695    0.162964
     9        -0.313170538671634    3.883e-06    0.016966    0.041697    0.041697    0.162963
    10        -0.313170396446721    1.004e-06    0.016966    0.041697    0.041697    0.162963
    11        -0.313170423688786    3.113e-07    0.016966    0.041697    0.041697    0.162963
    12        -0.313170406826387    1.099e-07    0.016966    0.041697    0.041697    0.162963
    13        -0.313170409989745    3.218e-08    0.016966    0.041697    0.041697    0.162963
    14        -0.313170410914342    7.159e-09    0.016966    0.041697    0.041697    0.162963

    Iterations converged.


    Largest TIA Amplitudes:
              5  22        -0.0318955868
              6  31        -0.0318955868
              5  21        -0.0193414099
              6  30        -0.0193414099
              5  27         0.0124251019
              6  36         0.0124251019
              4   3         0.0114568084
              5  25         0.0112245468
              6  34         0.0112245468
              4   0        -0.0106440246

    Largest TIjAb Amplitudes:
      4   4  22  22        -0.0451544376
      4   4  31  31        -0.0451544376
      5   5  22  22        -0.0447101880
      6   6  31  31        -0.0447101880
      5   6  22  31        -0.0300384022
      6   5  31  22        -0.0300384022
      5   5  21  22        -0.0297154022
      5   5  22  21        -0.0297154022
      6   6  30  31        -0.0297154022
      6   6  31  30        -0.0297154022

    SCF energy       (wfn)                    = -112.752301513779372
    Reference energy (file100)                = -112.752301513779329

    Opposite-spin MP2 correlation energy      =   -0.225895126453331
    Same-spin MP2 correlation energy          =   -0.081462304820226
    MP2 correlation energy                    =   -0.307357431273557
      * MP2 total energy                      = -113.059658945052888

    Opposite-spin CCSD correlation energy     =   -0.244310325280760
    Same-spin CCSD correlation energy         =   -0.068860085633582
    CCSD correlation energy                   =   -0.313170410914342
      * CCSD total energy                     = -113.065471924693668


			**************************
			*                        *
			*         CCHBAR         *
			*                        *
			**************************


			**************************
			*        CCLAMBDA        *
			**************************


	Nuclear Rep. energy (wfn)     =   22.151346593783796
	Reference           (wfn)     =                    0
	SCF energy          (wfn)     = -112.752301513779372
	Reference energy    (CC_INFO) = -112.752301513779329
	CCSD energy         (CC_INFO) =   -0.313170410914342
	Total CCSD energy   (CC_INFO) = -113.065471924693668

	Input parameters:
	-----------------
	Maxiter           =     50
	Convergence       = 1.0e-07
	Restart           =     No
	Cache Level       =     2
	Model III         =     No
	DIIS              =     Yes
	AO Basis          =     No
	ABCD              =     NEW
	Local CC          =     No
	Parameters for left-handed eigenvectors:
	    Irr   Root  Ground-State?    EOM energy        R0
	  1   0     0        Yes       0.0000000000   1.0000000000
	Labels for eigenvector 1:
	LIA 0 -1, Lia 0 -1, LIJAB 0 -1, Lijab 0 -1, LIjAb 0 -1, 2LIjAb - LIjbA 0 -1
	Symmetry of left-hand state: A1
	Symmetry of left-hand eigenvector: A1

	          Solving Lambda Equations
	          ------------------------
	Iter     PseudoEnergy or Norm         RMS  
	----     ---------------------     --------
	   0        -0.313725939386732    4.154e-08
	   1        -0.305576815350721    4.231e-02
	   2        -0.303028762231367    8.341e-03
	   3        -0.302628906544560    5.159e-03
	   4        -0.302376321382569    1.445e-03
	   5        -0.302427882792785    3.902e-04
	   6        -0.302422652243506    9.129e-05
	   7        -0.302421611056881    2.329e-05
	   8        -0.302421685679567    5.984e-06
	   9        -0.302421628148546    1.776e-06
	  10        -0.302421630855103    5.530e-07
	  11        -0.302421626016674    1.486e-07
	  12        -0.302421621417002    4.154e-08

	Largest LIA Amplitudes:
	          5  22        -0.0137155056
	          6  31        -0.0137155056
	          4   3         0.0129813926
	          4   0        -0.0119090424
	          5  27         0.0107586504
	          6  36         0.0107586504
	          4   7         0.0087040979
	          4   8         0.0083761447
	          5  21        -0.0071806601
	          6  30        -0.0071806601

	Largest LIjAb Amplitudes:
	  4   4  22  22        -0.0432774725
	  4   4  31  31        -0.0432774725
	  5   5  22  22        -0.0412160431
	  6   6  31  31        -0.0412160431
	  5   5  21  22        -0.0274815212
	  5   5  22  21        -0.0274815212
	  6   6  30  31        -0.0274815212
	  6   6  31  30        -0.0274815212
	  4   4   8   8        -0.0273459769
	  5   6  22  31        -0.0272155149

	Iterations converged.

	Overlap <L|e^T> =        0.88772035918

			**************************
			*                        *
			*        CCDENSITY       *
			*                        *
			**************************


	Input parameters:
	-----------------
	Wave function    =   CCSD
	Reference wfn    =   RHF
	Dertype          = 1
	Tolerance        = 1.0e-14
	Cache Level      = 2
	AO Basis         = No
	OPDM Only        = No
	Relax OPDM       = Yes
	Compute Xi       = No
	Use Zeta         = No
	Xi connected     = Yes
	Compute NO       = No

	Nuclear Rep. energy (wfn)     =   22.151346593783796
	SCF energy          (wfn)     = -112.752301513779372
	Reference energy    (file100) = -112.752301513779329
	CCSD energy         (CC_INFO) =   -0.313170410914342
	Total CCSD energy   (CC_INFO) = -113.065471924693668
	Number of States = 1

	Ground?  State     EOM Energy       R0
	  Yes     0 A1    0.0000000000   1.00000000

	Virial Theorem Data:
	--------------------
	Kinetic energy (ref)   =  112.472230849690902
	Kinetic energy (corr)  =    0.269125974881482
	Kinetic energy (total) =  112.741356824572378
	-V/T (ref)             =    2.002490131670481
	-V/T (corr)            =    2.163657320896864
	-V/T (total)           =    2.002874855414643
  Cartesian Displacement SALCs
  By SALC:
  Number of SALCs: 2, nirreps: A1
  Project out translations: False
  Project out rotations: False
	irrep = 0, ncomponent = 1
		0: atom 0, direction z, coef 1.000000
	irrep = 0, ncomponent = 1
		0: atom 1, direction z, coef 1.000000

  By Atomic Center:
  Number of atomic centers: 2
   Atomic Center 0:
	x component, size = 0
	y component, size = 0
	z component, size = 1
		0: salc 0, irrep 0, coef 1.000000
   Atomic Center 1:
	x component, size = 0
	y component, size = 0
	z component, size = 1
		0: salc 1, irrep 0, coef 1.000000

    Molecular point group: c2v
    Full point group: C_inf_v

    Geometry (in Bohr), charge = 0, multiplicity = 1:

       Center              X                  Y                   Z       
    ------------   -----------------  -----------------  -----------------
         O            0.000000000000     0.000000000000     0.928844906150
         C            0.000000000000     0.000000000000    -1.238066247390

	Presorting MO-basis TPDM.
	Sorting File: MO TPDM (AA|AA) nbuckets = 1
	Starting first half-transformation.
	Sorting half-transformed TPDM.
	First half integral transformation complete.


  -Nuclear Repulsion Energy 1st Derivatives:
     Atom            X                  Y                   Z
    ------   -----------------  -----------------  -----------------
       1        0.000000000000     0.000000000000   -10.222544914957
       2        0.000000000000     0.000000000000    10.222544914957


  -Core Hamiltonian Gradient:
     Atom            X                  Y                   Z
    ------   -----------------  -----------------  -----------------
       1        0.000000000000     0.000000000000    24.843284611418
       2        0.000000000000     0.000000000000   -24.843284611418


  -Lagrangian contribution to gradient:
     Atom            X                  Y                   Z
    ------   -----------------  -----------------  -----------------
       1        0.000000000000     0.000000000000    -0.839680216012
       2        0.000000000000     0.000000000000     0.839680216012


  -Two-electron contribution to gradient:
     Atom            X                  Y                   Z
    ------   -----------------  -----------------  -----------------
       1        0.000000000000     0.000000000000   -13.765486934609
       2        0.000000000000     0.000000000000    13.765486934609


  -Total gradient:
     Atom            X                  Y                   Z
    ------   -----------------  -----------------  -----------------
       1        0.000000000000     0.000000000000     0.015572545839
       2        0.000000000000     0.000000000000    -0.015572545840


  //>>>>>>>>>>>>>>>>>>>>>>>>>>>>>>>>>>>//
  //    Loading displacement 2 of 3    //
  //<<<<<<<<<<<<<<<<<<<<<<<<<<<<<<<<<<<//
gradient() will perform analytic gradient computation.

*** tstart() called on atlantis
*** at Tue Apr 19 00:32:40 2022

   => Loading Basis Set <=

    Name: AUG-CC-PVDZ
    Role: ORBITAL
    Keyword: BASIS
    atoms 1 entry O          line   250 file /home/akrom/software/anaconda3/envs/ffpenv/share/psi4/basis/aug-cc-pvdz.gbs 
    atoms 2 entry C          line   178 file /home/akrom/software/anaconda3/envs/ffpenv/share/psi4/basis/aug-cc-pvdz.gbs 


         ---------------------------------------------------------
                                   SCF
               by Justin Turney, Rob Parrish, Andy Simmonett
                          and Daniel G. A. Smith
                              RHF Reference
                        1 Threads,    500 MiB Core
         ---------------------------------------------------------

  ==> Geometry <==

    Molecular point group: c2v
    Full point group: C_inf_v

    Geometry (in Angstrom), charge = 0, multiplicity = 1:

       Center              X                  Y                   Z               Mass       
    ------------   -----------------  -----------------  -----------------  -----------------
         O            0.000000000000     0.000000000000     0.491090413658    15.994914619570
         C            0.000000000000     0.000000000000    -0.654579103079    12.000000000000

  Running in c2v symmetry.

  Rotational constants: A = ************  B =      1.87324  C =      1.87324 [cm^-1]
  Rotational constants: A = ************  B =  56158.36546  C =  56158.36546 [MHz]
  Nuclear repulsion =   22.170884134640527

  Charge       = 0
  Multiplicity = 1
  Electrons    = 14
  Nalpha       = 7
  Nbeta        = 7

  ==> Algorithm <==

  SCF Algorithm Type is PK.
  DIIS enabled.
  MOM disabled.
  Fractional occupation disabled.
  Guess Type is SAD.
  Energy threshold   = 1.00e-10
  Density threshold  = 1.00e-10
  Integral threshold = 0.00e+00

  ==> Primary Basis <==

  Basis Set: AUG-CC-PVDZ
    Blend: AUG-CC-PVDZ
    Number of shells: 18
    Number of basis function: 46
    Number of Cartesian functions: 50
    Spherical Harmonics?: true
    Max angular momentum: 2

  ==> Pre-Iterations <==

   -------------------------------------------------------
    Irrep   Nso     Nmo     Nalpha   Nbeta   Ndocc  Nsocc
   -------------------------------------------------------
     A1        22      22       0       0       0       0
     A2         4       4       0       0       0       0
     B1        10      10       0       0       0       0
     B2        10      10       0       0       0       0
   -------------------------------------------------------
    Total      46      46       7       7       7       0
   -------------------------------------------------------

  ==> Integral Setup <==

  Using in-core PK algorithm.
   Calculation information:
      Number of atoms:                   2
      Number of AO shells:              18
      Number of primitives:             50
      Number of atomic orbitals:        50
      Number of basis functions:        46

      Integral cutoff                 1.00e-12
      Number of threads:                 1

  Performing in-core PK
  Using 1169642 doubles for integral storage.
  We computed 14706 shell quartets total.
  Whereas there are 14706 unique shell quartets.

  ==> DiskJK: Disk-Based J/K Matrices <==

    J tasked:                  Yes
    K tasked:                  Yes
    wK tasked:                  No
    Memory [MiB]:              375
    Schwarz Cutoff:          1E-12

    OpenMP threads:              1

  Minimum eigenvalue in the overlap matrix is 2.5328151162E-03.
  Using Symmetric Orthogonalization.

  SCF Guess: Superposition of Atomic Densities via on-the-fly atomic UHF.

  ==> Iterations <==

                        Total Energy        Delta E     RMS |[F,P]|

   @RHF iter SAD:  -111.81886383721472   -1.11819e+02   0.00000e+00 
   @RHF iter   1:  -112.72345764858237   -9.04594e-01   1.05951e-02 DIIS
   @RHF iter   2:  -112.73216755714299   -8.70991e-03   8.93449e-03 DIIS
   @RHF iter   3:  -112.75234177337464   -2.01742e-02   5.98904e-04 DIIS
   @RHF iter   4:  -112.75246895899836   -1.27186e-04   6.46586e-05 DIIS
   @RHF iter   5:  -112.75247120242133   -2.24342e-06   1.33900e-05 DIIS
   @RHF iter   6:  -112.75247133379364   -1.31372e-07   2.76944e-06 DIIS
   @RHF iter   7:  -112.75247133850137   -4.70773e-09   4.29999e-07 DIIS
   @RHF iter   8:  -112.75247133861204   -1.10674e-10   8.44619e-08 DIIS
   @RHF iter   9:  -112.75247133861605   -4.00746e-12   1.67928e-08 DIIS
   @RHF iter  10:  -112.75247133861617   -1.27898e-13   2.55967e-09 DIIS
   @RHF iter  11:  -112.75247133861625   -7.10543e-14   2.52031e-10 DIIS
   @RHF iter  12:  -112.75247133861619    5.68434e-14   3.32820e-11 DIIS
  Energy and wave function converged.


  ==> Post-Iterations <==

    Orbital Energies [Eh]
    ---------------------

    Doubly Occupied:                                                      

       1A1   -20.679015     2A1   -11.381075     3A1    -1.517823  
       4A1    -0.806813     1B2    -0.633556     1B1    -0.633556  
       5A1    -0.556661  

    Virtual:                                                              

       2B1     0.077487     2B2     0.077487     6A1     0.081688  
       7A1     0.105104     3B2     0.166133     3B1     0.166133  
       8A1     0.225059     4B1     0.247793     4B2     0.247793  
       9A1     0.335105     1A2     0.433370    10A1     0.433370  
      11A1     0.519643     5B2     0.599554     5B1     0.599554  
      12A1     0.696956     6B1     0.748293     6B2     0.748293  
      13A1     0.924509    14A1     1.051228     2A2     1.053620  
      15A1     1.053620     7B1     1.203851     7B2     1.203851  
      16A1     1.428628    17A1     1.649897     3A2     1.649897  
       8B2     1.660791     8B1     1.660791     9B2     1.960570  
       9B1     1.960570    18A1     2.118096    19A1     2.206335  
      20A1     2.967406    21A1     3.550974     4A2     3.550974  
      10B1     3.670457    10B2     3.670457    22A1     4.013866  

    Final Occupation by Irrep:
             A1    A2    B1    B2 
    DOCC [     5,    0,    1,    1 ]

  @RHF Final Energy:  -112.75247133861619

   => Energetics <=

    Nuclear Repulsion Energy =             22.1708841346405272
    One-Electron Energy =                -197.4297098176364216
    Two-Electron Energy =                  62.5063543443797158
    Total Energy =                       -112.7524713386161892

Computation Completed


Properties will be evaluated at   0.000000,   0.000000,   0.000000 [a0]

Properties computed using the SCF density matrix

  Nuclear Dipole Moment: [e a0]
     X:     0.0000      Y:     0.0000      Z:     0.0024

  Electronic Dipole Moment: [e a0]
     X:     0.0000      Y:     0.0000      Z:    -0.1383

  Dipole Moment: [e a0]
     X:     0.0000      Y:     0.0000      Z:    -0.1359     Total:     0.1359

  Dipole Moment: [D]
     X:     0.0000      Y:     0.0000      Z:    -0.3454     Total:     0.3454


*** tstop() called on atlantis at Tue Apr 19 00:32:40 2022
Module time:
	user time   =       0.31 seconds =       0.01 minutes
	system time =       0.00 seconds =       0.00 minutes
	total time  =          0 seconds =       0.00 minutes
Total time:
	user time   =       2.98 seconds =       0.05 minutes
	system time =       0.52 seconds =       0.01 minutes
	total time  =          4 seconds =       0.07 minutes
 MINTS: Wrapper to libmints.
   by Justin Turney

   Calculation information:
      Number of threads:                 1
      Number of atoms:                   2
      Number of AO shells:              18
      Number of SO shells:              18
      Number of primitives:             50
      Number of atomic orbitals:        50
      Number of basis functions:        46

      Number of irreps:                  4
      Integral cutoff                 0.00e+00
      Number of functions per irrep: [  22    4   10   10 ]

 OEINTS: Overlap, kinetic, potential, dipole, and quadrupole integrals
         stored in file 35.

      Computing two-electron integrals...done
      Computed 132498 non-zero two-electron integrals.
        Stored in file 33.


*** tstart() called on atlantis
*** at Tue Apr 19 00:32:40 2022


	Wfn Parameters:
	--------------------
	Wavefunction         = CCSD
	Number of irreps     = 4
	Number of MOs        = 46
	Number of active MOs = 46
	AO-Basis             = NONE
	Semicanonical        = false
	Reference            = RHF
	Print Level          = 1

	IRREP	# MOs	# FZDC	# DOCC	# SOCC	# VIRT	# FZVR
	-----	-----	------	------	------	------	------
	 A1	   22	    0	    5	    0	    17	    0
	 A2	   4	    0	    0	    0	    4	    0
	 B1	   10	    0	    1	    0	    9	    0
	 B2	   10	    0	    1	    0	    9	    0
	Transforming integrals...
	IWL integrals will be deleted.
	(OO|OO)...
	Presorting SO-basis two-electron integrals.
	Sorting File: SO Ints (nn|nn) nbuckets = 1
	Transforming the one-electron integrals and constructing Fock matrices
	Starting first half-transformation.
	Sorting half-transformed integrals.
	First half integral transformation complete.
	Starting second half-transformation.
	Two-electron integral transformation complete.
	(OO|OV)...
	Starting second half-transformation.
	Two-electron integral transformation complete.
	(OO|VV)...
	Starting second half-transformation.
	Two-electron integral transformation complete.
	(OV|OO)...
	Starting first half-transformation.
	Sorting half-transformed integrals.
	First half integral transformation complete.
	Starting second half-transformation.
	Two-electron integral transformation complete.
	(OV|OV)...
	Starting second half-transformation.
	Two-electron integral transformation complete.
	(OV|VV)...
	Starting second half-transformation.
	Two-electron integral transformation complete.
	(VV|OO)...
	Starting first half-transformation.
	Sorting half-transformed integrals.
	First half integral transformation complete.
	Starting second half-transformation.
	Two-electron integral transformation complete.
	(VV|OV)...
	Starting second half-transformation.
	Two-electron integral transformation complete.
	(VV|VV)...
	Starting second half-transformation.
	Two-electron integral transformation complete.
	Frozen core energy     =      0.00000000000000

	Size of irrep 0 of <ab|cd> integrals:      0.218 (MW) /      1.745 (MB)
	Size of irrep 1 of <ab|cd> integrals:      0.089 (MW) /      0.710 (MB)
	Size of irrep 2 of <ab|cd> integrals:      0.143 (MW) /      1.143 (MB)
	Size of irrep 3 of <ab|cd> integrals:      0.143 (MW) /      1.143 (MB)
	Total:                                     0.593 (MW) /      4.741 (MB)

	Size of irrep 0 of <ia|bc> integrals:      0.048 (MW) /      0.385 (MB)
	Size of irrep 1 of <ia|bc> integrals:      0.011 (MW) /      0.091 (MB)
	Size of irrep 2 of <ia|bc> integrals:      0.025 (MW) /      0.200 (MB)
	Size of irrep 3 of <ia|bc> integrals:      0.025 (MW) /      0.200 (MB)
	Total:                                     0.109 (MW) /      0.875 (MB)

	Size of irrep 0 of tijab amplitudes:       0.013 (MW) /      0.101 (MB)
	Size of irrep 1 of tijab amplitudes:       0.001 (MW) /      0.005 (MB)
	Size of irrep 2 of tijab amplitudes:       0.004 (MW) /      0.030 (MB)
	Size of irrep 3 of tijab amplitudes:       0.004 (MW) /      0.030 (MB)
	Total:                                     0.021 (MW) /      0.166 (MB)

	Nuclear Rep. energy          =     22.17088413464053
	SCF energy                   =   -112.75247133861619
	One-electron energy          =   -197.42970981658308
	Two-electron energy          =     62.50635434332629
	Reference energy             =   -112.75247133861625

*** tstop() called on atlantis at Tue Apr 19 00:32:40 2022
Module time:
	user time   =       0.04 seconds =       0.00 minutes
	system time =       0.02 seconds =       0.00 minutes
	total time  =          0 seconds =       0.00 minutes
Total time:
	user time   =       3.09 seconds =       0.05 minutes
	system time =       0.54 seconds =       0.01 minutes
	total time  =          4 seconds =       0.07 minutes
            **************************
            *                        *
            *        CCENERGY        *
            *                        *
            **************************

    Nuclear Rep. energy (wfn)     =   22.170884134640527
    SCF energy          (wfn)     = -112.752471338616189
    Reference energy    (file100) = -112.752471338616246

    Input parameters:
    -----------------
    Wave function   =     CCSD
    Reference wfn   =     RHF
    Brueckner       =     No
    Memory (Mbytes) =     524.3
    Maxiter         =     50
    R_Convergence   =     1.0e-07
    E_Convergence   =     1.0e-08
    Restart         =     Yes
    DIIS            =     Yes
    AO Basis        =     NONE
    ABCD            =     NEW
    Cache Level     =     2
    Cache Type      =     LOW
    Print Level     =     1
    Num. of threads =     1
    # Amps to Print =     10
    Print MP2 Amps? =     No
    Analyze T2 Amps =     No
    Print Pair Ener =     No
    Local CC        =     No
    SCS-MP2         =     False
    SCSN-MP2        =     False
    SCS-CCSD        =     False

MP2 correlation energy -0.3071743656446921
                Solving CC Amplitude Equations
                ------------------------------
  Iter             Energy              RMS        T1Diag      D1Diag    New D1Diag    D2Diag
  ----     ---------------------    ---------   ----------  ----------  ----------   --------
     0        -0.307174365644692    0.000e+00    0.000000    0.000000    0.000000    0.145358
     1        -0.298399752445900    7.250e-02    0.014763    0.037104    0.037104    0.146490
     2        -0.309753438865208    2.872e-02    0.013456    0.033122    0.033122    0.155318
     3        -0.313173788814915    1.191e-02    0.016402    0.040428    0.040428    0.162901
     4        -0.312921272354022    2.241e-03    0.016706    0.041055    0.041055    0.163110
     5        -0.313026561919042    8.654e-04    0.016879    0.041470    0.041470    0.163030
     6        -0.313028110284887    1.801e-04    0.016908    0.041543    0.041543    0.162928
     7        -0.313028219488523    4.144e-05    0.016913    0.041555    0.041555    0.162907
     8        -0.313028538570570    1.363e-05    0.016915    0.041561    0.041561    0.162903
     9        -0.313028310990145    3.862e-06    0.016916    0.041563    0.041563    0.162902
    10        -0.313028169682274    9.985e-07    0.016916    0.041563    0.041563    0.162902
    11        -0.313028196731394    3.097e-07    0.016916    0.041563    0.041563    0.162902
    12        -0.313028179999139    1.091e-07    0.016916    0.041563    0.041563    0.162902
    13        -0.313028183167379    3.200e-08    0.016916    0.041563    0.041563    0.162902
    14        -0.313028184080411    7.121e-09    0.016916    0.041563    0.041563    0.162902

    Iterations converged.


    Largest TIA Amplitudes:
              5  22        -0.0318084959
              6  31        -0.0318084959
              5  21        -0.0192088616
              6  30        -0.0192088616
              5  27         0.0124090158
[...]
	Starting second half-transformation.
	Two-electron integral transformation complete.
	Frozen core energy     =      0.00000000000000

	Size of irrep 0 of <ab|cd> integrals:      0.218 (MW) /      1.745 (MB)
	Size of irrep 1 of <ab|cd> integrals:      0.089 (MW) /      0.710 (MB)
	Size of irrep 2 of <ab|cd> integrals:      0.143 (MW) /      1.143 (MB)
	Size of irrep 3 of <ab|cd> integrals:      0.143 (MW) /      1.143 (MB)
	Total:                                     0.593 (MW) /      4.741 (MB)

	Size of irrep 0 of <ia|bc> integrals:      0.048 (MW) /      0.385 (MB)
	Size of irrep 1 of <ia|bc> integrals:      0.011 (MW) /      0.091 (MB)
	Size of irrep 2 of <ia|bc> integrals:      0.025 (MW) /      0.200 (MB)
	Size of irrep 3 of <ia|bc> integrals:      0.025 (MW) /      0.200 (MB)
	Total:                                     0.109 (MW) /      0.875 (MB)

	Size of irrep 0 of tijab amplitudes:       0.013 (MW) /      0.101 (MB)
	Size of irrep 1 of tijab amplitudes:       0.001 (MW) /      0.005 (MB)
	Size of irrep 2 of tijab amplitudes:       0.004 (MW) /      0.030 (MB)
	Size of irrep 3 of tijab amplitudes:       0.004 (MW) /      0.030 (MB)
	Total:                                     0.021 (MW) /      0.166 (MB)

	Nuclear Rep. energy          =     22.13184345655475
	SCF energy                   =   -112.75212742585958
	One-electron energy          =   -197.35524663055207
	Two-electron energy          =     62.47127574813780
	Reference energy             =   -112.75212742585953

*** tstop() called on atlantis at Tue Apr 19 00:32:41 2022
Module time:
	user time   =       0.03 seconds =       0.00 minutes
	system time =       0.03 seconds =       0.00 minutes
	total time  =          0 seconds =       0.00 minutes
Total time:
	user time   =       4.09 seconds =       0.07 minutes
	system time =       0.75 seconds =       0.01 minutes
	total time  =          5 seconds =       0.08 minutes
            **************************
            *                        *
            *        CCENERGY        *
            *                        *
            **************************

    Nuclear Rep. energy (wfn)     =   22.131843456554755
    SCF energy          (wfn)     = -112.752127425859584
    Reference energy    (file100) = -112.752127425859527

    Input parameters:
    -----------------
    Wave function   =     CCSD
    Reference wfn   =     RHF
    Brueckner       =     No
    Memory (Mbytes) =     524.3
    Maxiter         =     50
    R_Convergence   =     1.0e-07
    E_Convergence   =     1.0e-08
    Restart         =     Yes
    DIIS            =     Yes
    AO Basis        =     NONE
    ABCD            =     NEW
    Cache Level     =     2
    Cache Type      =     LOW
    Print Level     =     1
    Num. of threads =     1
    # Amps to Print =     10
    Print MP2 Amps? =     No
    Analyze T2 Amps =     No
    Print Pair Ener =     No
    Local CC        =     No
    SCS-MP2         =     False
    SCSN-MP2        =     False
    SCS-CCSD        =     False

MP2 correlation energy -0.3075406033268627
                Solving CC Amplitude Equations
                ------------------------------
  Iter             Energy              RMS        T1Diag      D1Diag    New D1Diag    D2Diag
  ----     ---------------------    ---------   ----------  ----------  ----------   --------
     0        -0.307540603326863    0.000e+00    0.000000    0.000000    0.000000    0.145597
     1        -0.298592460928445    7.288e-02    0.014858    0.037360    0.037360    0.146573
     2        -0.310012470760664    2.894e-02    0.013525    0.033309    0.033309    0.155403
     3        -0.313459431258547    1.199e-02    0.016495    0.040679    0.040679    0.163023
     4        -0.313204604427524    2.260e-03    0.016803    0.041315    0.041315    0.163235
     5        -0.313311076544147    8.748e-04    0.016978    0.041738    0.041738    0.163153
     6        -0.313312554868634    1.818e-04    0.017008    0.041812    0.041812    0.163049
     7        -0.313312673422777    4.178e-05    0.017013    0.041824    0.041824    0.163029
     8        -0.313312994657683    1.374e-05    0.017015    0.041830    0.041830    0.163024
     9        -0.313312762808068    3.904e-06    0.017016    0.041832    0.041832    0.163024
    10        -0.313312619658302    1.009e-06    0.017016    0.041832    0.041832    0.163023
    11        -0.313312647093991    3.129e-07    0.017016    0.041832    0.041832    0.163023
    12        -0.313312630100994    1.107e-07    0.017016    0.041832    0.041832    0.163023
    13        -0.313312633259032    3.237e-08    0.017016    0.041832    0.041832    0.163023
    14        -0.313312634195368    7.197e-09    0.017016    0.041832    0.041832    0.163023

    Iterations converged.


    Largest TIA Amplitudes:
              5  22        -0.0319823370
              6  31        -0.0319823370
              5  21        -0.0194747709
              6  30        -0.0194747709
              5  27         0.0124411364
              6  36         0.0124411364
              4   3         0.0114698901
              5  25         0.0112482743
              6  34         0.0112482743
              4   0        -0.0106502109

    Largest TIjAb Amplitudes:
      4   4  22  22        -0.0450842009
      4   4  31  31        -0.0450842009
      5   5  22  22        -0.0447114664
      6   6  31  31        -0.0447114664
      5   6  22  31        -0.0300354976
      6   5  31  22        -0.0300354976
      5   5  21  22        -0.0298363110
      5   5  22  21        -0.0298363110
      6   6  30  31        -0.0298363110
      6   6  31  30        -0.0298363110

    SCF energy       (wfn)                    = -112.752127425859584
    Reference energy (file100)                = -112.752127425859527

    Opposite-spin MP2 correlation energy      =   -0.226022722370470
    Same-spin MP2 correlation energy          =   -0.081517880956392
    MP2 correlation energy                    =   -0.307540603326863
      * MP2 total energy                      = -113.059668029186383

    Opposite-spin CCSD correlation energy     =   -0.244427999998146
    Same-spin CCSD correlation energy         =   -0.068884634197222
    CCSD correlation energy                   =   -0.313312634195368
      * CCSD total energy                     = -113.065440060054897


			**************************
			*                        *
			*         CCHBAR         *
			*                        *
			**************************


			**************************
			*        CCLAMBDA        *
			**************************


	Nuclear Rep. energy (wfn)     =   22.131843456554755
	Reference           (wfn)     =                    0
	SCF energy          (wfn)     = -112.752127425859584
	Reference energy    (CC_INFO) = -112.752127425859527
	CCSD energy         (CC_INFO) =   -0.313312634195368
	Total CCSD energy   (CC_INFO) = -113.065440060054897

	Input parameters:
	-----------------
	Maxiter           =     50
	Convergence       = 1.0e-07
	Restart           =     No
	Cache Level       =     2
	Model III         =     No
	DIIS              =     Yes
	AO Basis          =     No
	ABCD              =     NEW
	Local CC          =     No
	Parameters for left-handed eigenvectors:
	    Irr   Root  Ground-State?    EOM energy        R0
	  1   0     0        Yes       0.0000000000   1.0000000000
	Labels for eigenvector 1:
	LIA 0 -1, Lia 0 -1, LIJAB 0 -1, Lijab 0 -1, LIjAb 0 -1, 2LIjAb - LIjbA 0 -1
	Symmetry of left-hand state: A1
	Symmetry of left-hand eigenvector: A1

	          Solving Lambda Equations
	          ------------------------
	Iter     PseudoEnergy or Norm         RMS  
	----     ---------------------     --------
	   0        -0.313871729124602    4.124e-08
	   1        -0.305709015027914    4.247e-02
	   2        -0.303149215583478    8.381e-03
	   3        -0.302748780196355    5.187e-03
	   4        -0.302494223157262    1.454e-03
	   5        -0.302546109941892    3.930e-04
	   6        -0.302540857699203    9.188e-05
	   7        -0.302539809287164    2.343e-05
	   8        -0.302539883716194    6.024e-06
	   9        -0.302539825590597    1.787e-06
	  10        -0.302539828179074    5.569e-07
	  11        -0.302539823296228    1.496e-07
	  12        -0.302539818645738    4.185e-08

	Largest LIA Amplitudes:
	          5  22        -0.0137364016
	          6  31        -0.0137364016
	          4   3         0.0130023264
	          4   0        -0.0119226526
	          5  27         0.0107716949
	          6  36         0.0107716949
	          4   7         0.0087797525
	          4   8         0.0083574372
	          5  21        -0.0072249574
	          6  30        -0.0072249574

	Largest LIjAb Amplitudes:
	  4   4  22  22        -0.0432094906
	  4   4  31  31        -0.0432094906
	  5   5  22  22        -0.0412068187
	  6   6  31  31        -0.0412068187
	  5   5  21  22        -0.0275869328
	  5   5  22  21        -0.0275869328
	  6   6  30  31        -0.0275869328
	  6   6  31  30        -0.0275869328
	  4   4   8   8        -0.0272266529
	  5   6  22  31        -0.0272056352

	Iterations converged.

	Overlap <L|e^T> =        0.88758134162

			**************************
			*                        *
			*        CCDENSITY       *
			*                        *
			**************************


	Input parameters:
	-----------------
	Wave function    =   CCSD
	Reference wfn    =   RHF
	Dertype          = 1
	Tolerance        = 1.0e-14
	Cache Level      = 2
	AO Basis         = No
	OPDM Only        = No
	Relax OPDM       = Yes
	Compute Xi       = No
	Use Zeta         = No
	Xi connected     = Yes
	Compute NO       = No

	Nuclear Rep. energy (wfn)     =   22.131843456554755
	SCF energy          (wfn)     = -112.752127425859584
	Reference energy    (file100) = -112.752127425859527
	CCSD energy         (CC_INFO) =   -0.313312634195368
	Total CCSD energy   (CC_INFO) = -113.065440060054897
	Number of States = 1

	Ground?  State     EOM Energy       R0
	  Yes     0 A1    0.0000000000   1.00000000

	Virial Theorem Data:
	--------------------
	Kinetic energy (ref)   =  112.466929466678977
	Kinetic energy (corr)  =    0.269617475738918
	Kinetic energy (total) =  112.736546942417888
	-V/T (ref)             =    2.002535838406303
	-V/T (corr)            =    2.162063524764849
	-V/T (total)           =    2.002917360222191
  Cartesian Displacement SALCs
  By SALC:
  Number of SALCs: 2, nirreps: A1
  Project out translations: False
  Project out rotations: False
	irrep = 0, ncomponent = 1
		0: atom 0, direction z, coef 1.000000
	irrep = 0, ncomponent = 1
		0: atom 1, direction z, coef 1.000000

  By Atomic Center:
  Number of atomic centers: 2
   Atomic Center 0:
	x component, size = 0
	y component, size = 0
	z component, size = 1
		0: salc 0, irrep 0, coef 1.000000
   Atomic Center 1:
	x component, size = 0
	y component, size = 0
	z component, size = 1
		0: salc 1, irrep 0, coef 1.000000

    Molecular point group: c2v
    Full point group: C_inf_v

    Geometry (in Bohr), charge = 0, multiplicity = 1:

       Center              X                  Y                   Z       
    ------------   -----------------  -----------------  -----------------
         O            0.000000000000     0.000000000000     0.929663427648
         C            0.000000000000     0.000000000000    -1.239157262514

	Presorting MO-basis TPDM.
	Sorting File: MO TPDM (AA|AA) nbuckets = 1
	Starting first half-transformation.
	Sorting half-transformed TPDM.
	First half integral transformation complete.


  -Nuclear Repulsion Energy 1st Derivatives:
     Atom            X                  Y                   Z
    ------   -----------------  -----------------  -----------------
       1        0.000000000000     0.000000000000   -10.204551974697
       2        0.000000000000     0.000000000000    10.204551974697


  -Core Hamiltonian Gradient:
     Atom            X                  Y                   Z
    ------   -----------------  -----------------  -----------------
       1        0.000000000000     0.000000000000    24.808425537361
       2        0.000000000000     0.000000000000   -24.808425537361


  -Lagrangian contribution to gradient:
     Atom            X                  Y                   Z
    ------   -----------------  -----------------  -----------------
       1        0.000000000000     0.000000000000    -0.838393795735
       2        0.000000000000     0.000000000000     0.838393795735


  -Two-electron contribution to gradient:
     Atom            X                  Y                   Z
    ------   -----------------  -----------------  -----------------
       1        0.000000000000     0.000000000000   -13.747680723031
       2        0.000000000000     0.000000000000    13.747680723031


  -Total gradient:
     Atom            X                  Y                   Z
    ------   -----------------  -----------------  -----------------
       1        0.000000000000     0.000000000000     0.017799043898
       2        0.000000000000     0.000000000000    -0.017799043898


         ----------------------------------------------------------
                                   FINDIF
                     R. A. King and Jonathon Misiewicz
         ---------------------------------------------------------

  Computing second-derivative from gradients using projected, 
  symmetry-adapted, cartesian coordinates.

  3 gradients passed in, including the reference geometry.
  Generating complete list of displacements from unique ones.


-------------------------------------------------------------


  ==> Harmonic Vibrational Analysis <==

  non-mass-weighted Hessian:       Symmetric? True   Hermitian? True   Lin Dep Dim?  5 (0)
  projection of translations (True) and rotations (True) removed 5 degrees of freedom (5)
  total projector:                 Symmetric? True   Hermitian? True   Lin Dep Dim?  5 (5)
  mass-weighted Hessian:           Symmetric? True   Hermitian? True   Lin Dep Dim?  5 (0)
  pre-proj  low-frequency mode:    0.0000  [cm^-1]
  pre-proj  low-frequency mode:    0.0000  [cm^-1]
  pre-proj  low-frequency mode:    0.0000  [cm^-1]
  pre-proj  low-frequency mode:    0.0000  [cm^-1]
  pre-proj  low-frequency mode:    0.0000  [cm^-1]
  pre-proj  all modes:['0.0000' '0.0000' '0.0000' '0.0000' '0.0000' '2123.6250']
  projected mass-weighted Hessian: Symmetric? True   Hermitian? True   Lin Dep Dim?  5 (5)
  post-proj low-frequency mode:    0.0000  [cm^-1] (TR)
  post-proj low-frequency mode:    0.0000  [cm^-1] (TR)
  post-proj low-frequency mode:    0.0000  [cm^-1] (TR)
  post-proj low-frequency mode:    0.0000  [cm^-1] (TR)
  post-proj low-frequency mode:    0.0000  [cm^-1] (TR)
  post-proj  all modes:['0.0000' '0.0000' '0.0000' '0.0000' '0.0000' '2123.6250']

  Vibration                       6           
  Freq [cm^-1]                2123.6250       
  Irrep                           A1          
  Reduced mass [u]             13.4388        
  Force const [mDyne/A]        35.7079        
  Turning point v=0 [a0]        0.0650        
  RMS dev v=0 [a0 u^1/2]        0.1684        
  Char temp [K]               3055.4235       
  ----------------------------------------------------------------------------------
      1   O                0.00  0.00 -0.60   
      2   C                0.00  0.00  0.80   

  ==> Thermochemistry Components <==

  Entropy, S
    Electronic S            0.000 [cal/(mol K)]        0.000 [J/(mol K)]       0.00000000 [mEh/K] (multiplicity = 1)
    Translational S        35.923 [cal/(mol K)]      150.302 [J/(mol K)]       0.05724692 [mEh/K] (mol. weight = 27.9949 [u], P = 101325.00 [Pa])
    Rotational S           11.343 [cal/(mol K)]       47.458 [J/(mol K)]       0.01807582 [mEh/K] (symmetry no. = 1)
    Vibrational S           0.001 [cal/(mol K)]        0.003 [J/(mol K)]       0.00000126 [mEh/K]
  Total S                  47.267 [cal/(mol K)]      197.763 [J/(mol K)]       0.07532401 [mEh/K]
  Correction S              0.000 [cal/(mol K)]        0.000 [J/(mol K)]       0.00000000 [mEh/K]

  Constant volume heat capacity, Cv
    Electronic Cv           0.000 [cal/(mol K)]        0.000 [J/(mol K)]       0.00000000 [mEh/K]
    Translational Cv        2.981 [cal/(mol K)]       12.472 [J/(mol K)]       0.00475022 [mEh/K]
    Rotational Cv           1.987 [cal/(mol K)]        8.314 [J/(mol K)]       0.00316681 [mEh/K]
    Vibrational Cv          0.007 [cal/(mol K)]        0.031 [J/(mol K)]       0.00001178 [mEh/K]
  Total Cv                  4.975 [cal/(mol K)]       20.817 [J/(mol K)]       0.00792881 [mEh/K]
  Correction Cv             0.000 [cal/(mol K)]        0.000 [J/(mol K)]       0.00000000 [mEh/K]

  Constant pressure heat capacity, Cp
    Electronic Cp           0.000 [cal/(mol K)]        0.000 [J/(mol K)]       0.00000000 [mEh/K]
    Translational Cp        4.968 [cal/(mol K)]       20.786 [J/(mol K)]       0.00791703 [mEh/K]
    Rotational Cp           1.987 [cal/(mol K)]        8.314 [J/(mol K)]       0.00316681 [mEh/K]
    Vibrational Cp          0.007 [cal/(mol K)]        0.031 [J/(mol K)]       0.00001178 [mEh/K]
  Total Cp                  6.963 [cal/(mol K)]       29.132 [J/(mol K)]       0.01109562 [mEh/K]
  Correction Cp             0.000 [cal/(mol K)]        0.000 [J/(mol K)]       0.00000000 [mEh/K]

  ==> Thermochemistry Energy Analysis <==

  Raw electronic energy, E0
  Total E0, Electronic energy at well bottom at 0 [K]                 -113.06547192 [Eh]

  Zero-point energy, ZPE_vib = Sum_i nu_i / 2
    Electronic ZPE          0.000 [kcal/mol]        0.000 [kJ/mol]       0.00000000 [Eh]
    Translational ZPE       0.000 [kcal/mol]        0.000 [kJ/mol]       0.00000000 [Eh]
    Rotational ZPE          0.000 [kcal/mol]        0.000 [kJ/mol]       0.00000000 [Eh]
    Vibrational ZPE         3.036 [kcal/mol]       12.702 [kJ/mol]       0.00483797 [Eh]        1061.812 [cm^-1]
  Correction ZPE            3.036 [kcal/mol]       12.702 [kJ/mol]       0.00483797 [Eh]        1061.812 [cm^-1]
  Total ZPE, Electronic energy at 0 [K]                               -113.06063395 [Eh]

  Thermal Energy, E (includes ZPE)
    Electronic E            0.000 [kcal/mol]        0.000 [kJ/mol]       0.00000000 [Eh]
    Translational E         0.889 [kcal/mol]        3.718 [kJ/mol]       0.00141628 [Eh]
    Rotational E            0.592 [kcal/mol]        2.479 [kJ/mol]       0.00094418 [Eh]
    Vibrational E           3.036 [kcal/mol]       12.703 [kJ/mol]       0.00483832 [Eh]
  Correction E              4.517 [kcal/mol]       18.900 [kJ/mol]       0.00719878 [Eh]
  Total E, Electronic energy at  298.15 [K]                           -113.05827315 [Eh]

  Enthalpy, H_trans = E_trans + k_B * T
    Electronic H            0.000 [kcal/mol]        0.000 [kJ/mol]       0.00000000 [Eh]
    Translational H         1.481 [kcal/mol]        6.197 [kJ/mol]       0.00236046 [Eh]
    Rotational H            0.592 [kcal/mol]        2.479 [kJ/mol]       0.00094418 [Eh]
    Vibrational H           3.036 [kcal/mol]       12.703 [kJ/mol]       0.00483832 [Eh]
  Correction H              5.110 [kcal/mol]       21.379 [kJ/mol]       0.00814296 [Eh]
  Total H, Enthalpy at  298.15 [K]                                    -113.05732896 [Eh]

  Gibbs free energy, G = H - T * S
    Electronic G            0.000 [kcal/mol]        0.000 [kJ/mol]       0.00000000 [Eh]
    Translational G        -9.229 [kcal/mol]      -38.615 [kJ/mol]      -0.01470771 [Eh]
    Rotational G           -2.789 [kcal/mol]      -11.671 [kJ/mol]      -0.00444512 [Eh]
    Vibrational G           3.036 [kcal/mol]       12.702 [kJ/mol]       0.00483794 [Eh]
  Correction G             -8.983 [kcal/mol]      -37.584 [kJ/mol]      -0.01431489 [Eh]
  Total G, Free enthalpy at  298.15 [K]                               -113.07978682 [Eh]

    Psi4 stopped on: Tuesday, 19 April 2022 12:32AM
    Psi4 wall time for execution: 0:00:06.14

*** Psi4 exiting successfully. Buy a developer a beer!
