
    -----------------------------------------------------------------------
          Psi4: An Open-Source Ab Initio Electronic Structure Package
                               Psi4 1.3.2 release

                         Git: Rev {HEAD} ecbda83 


    R. M. Parrish, L. A. Burns, D. G. A. Smith, A. C. Simmonett,
    A. E. DePrince III, E. G. Hohenstein, U. Bozkaya, A. Yu. Sokolov,
    R. Di Remigio, R. M. Richard, J. F. Gonthier, A. M. James,
    H. R. McAlexander, A. Kumar, M. Saitow, X. Wang, B. P. Pritchard,
    P. Verma, H. F. Schaefer III, K. Patkowski, R. A. King, E. F. Valeev,
    F. A. Evangelista, J. M. Turney, T. D. Crawford, and C. D. Sherrill,
    J. Chem. Theory Comput. 13(7) pp 3185--3197 (2017).
    (doi: 10.1021/acs.jctc.7b00174)


                         Additional Contributions by
    P. Kraus, H. Kruse, M. H. Lechner, M. C. Schieber, R. A. Shaw,
    A. Alenaizan, R. Galvelis, Z. L. Glick, S. Lehtola, and J. P. Misiewicz

    -----------------------------------------------------------------------


    Psi4 started on: Tuesday, 19 April 2022 12:11AM

    Process ID: 25179
    Host:       atlantis
    PSIDATADIR: /home/akrom/software/anaconda3/envs/ffpenv/share/psi4
    Memory:     500.0 MiB
    Threads:    1
    
  ==> Input File <==

--------------------------------------------------------------------------
set basis  6-311++G**
molecule {
0 1
   O        0.00000        0.00000       -0.06797
   H        0.74903        0.00000        0.53936
   H       -0.74903        0.00000        0.53936
}
energy('MP2')
frequencies('MP2')


--------------------------------------------------------------------------
    SCF Algorithm Type (re)set to DF.

*** tstart() called on atlantis
*** at Tue Apr 19 00:11:53 2022

   => Loading Basis Set <=

    Name: 6-311++G**
    Role: ORBITAL
    Keyword: BASIS
    atoms 1   entry O          line   161 file /home/akrom/software/anaconda3/envs/ffpenv/share/psi4/basis/6-311ppgss.gbs 
    atoms 2-3 entry H          line    42 file /home/akrom/software/anaconda3/envs/ffpenv/share/psi4/basis/6-311ppgss.gbs 


         ---------------------------------------------------------
                                   SCF
               by Justin Turney, Rob Parrish, Andy Simmonett
                          and Daniel G. A. Smith
                              RHF Reference
                        1 Threads,    500 MiB Core
         ---------------------------------------------------------

  ==> Geometry <==

    Molecular point group: c2v
    Full point group: C2v

    Geometry (in Angstrom), charge = 0, multiplicity = 1:

       Center              X                  Y                   Z               Mass       
    ------------   -----------------  -----------------  -----------------  -----------------
         O            0.000000000000     0.000000000000    -0.067969259994    15.994914619570
         H            0.749030000000     0.000000000000     0.539360740006     1.007825032230
         H           -0.749030000000    -0.000000000000     0.539360740006     1.007825032230

  Running in c2v symmetry.

  Rotational constants: A =     25.53156  B =     14.90675  C =      9.41168 [cm^-1]
  Rotational constants: A = 765416.81232  B = 446893.08836  C = 282155.15104 [MHz]
  Nuclear repulsion =    9.133433460995141

  Charge       = 0
  Multiplicity = 1
  Electrons    = 10
  Nalpha       = 5
  Nbeta        = 5

  ==> Algorithm <==

  SCF Algorithm Type is DF.
  DIIS enabled.
  MOM disabled.
  Fractional occupation disabled.
  Guess Type is SAD.
  Energy threshold   = 1.00e-08
  Density threshold  = 1.00e-08
  Integral threshold = 0.00e+00

  ==> Primary Basis <==

  Basis Set: 6-311++G**
    Blend: 6-311++G**
    Number of shells: 20
    Number of basis function: 36
    Number of Cartesian functions: 37
    Spherical Harmonics?: true
    Max angular momentum: 2

   => Loading Basis Set <=

    Name: (6-311++G** AUX)
    Role: JKFIT
    Keyword: DF_BASIS_SCF
    atoms 1   entry O          line   286 file /home/akrom/software/anaconda3/envs/ffpenv/share/psi4/basis/aug-cc-pvtz-jkfit.gbs 
    atoms 2-3 entry H          line    70 file /home/akrom/software/anaconda3/envs/ffpenv/share/psi4/basis/aug-cc-pvtz-jkfit.gbs 

  ==> Pre-Iterations <==

   -------------------------------------------------------
    Irrep   Nso     Nmo     Nalpha   Nbeta   Ndocc  Nsocc
   -------------------------------------------------------
     A1        17      17       0       0       0       0
     A2         2       2       0       0       0       0
     B1        11      11       0       0       0       0
     B2         6       6       0       0       0       0
   -------------------------------------------------------
    Total      36      36       5       5       5       0
   -------------------------------------------------------

  ==> Integral Setup <==

  DFHelper Memory: AOs need 0.002 GiB; user supplied 0.366 GiB. Using in-core AOs.

  ==> MemDFJK: Density-Fitted J/K Matrices <==

    J tasked:                   Yes
    K tasked:                   Yes
    wK tasked:                   No
    OpenMP threads:               1
    Memory [MiB]:               375
    Algorithm:                 Core
    Schwarz Cutoff:           1E-12
    Mask sparsity (%):       0.0000
    Fitting Condition:        1E-10

   => Auxiliary Basis Set <=

  Basis Set: (6-311++G** AUX)
    Blend: AUG-CC-PVTZ-JKFIT
    Number of shells: 58
    Number of basis function: 196
    Number of Cartesian functions: 241
    Spherical Harmonics?: true
    Max angular momentum: 4

  Minimum eigenvalue in the overlap matrix is 3.4007575506E-03.
  Using Symmetric Orthogonalization.

  SCF Guess: Superposition of Atomic Densities via on-the-fly atomic UHF.

  ==> Iterations <==

                           Total Energy        Delta E     RMS |[F,P]|

   @DF-RHF iter SAD:   -75.46549424054028   -7.54655e+01   0.00000e+00 
   @DF-RHF iter   1:   -75.96563182202826   -5.00138e-01   2.21186e-02 DIIS
   @DF-RHF iter   2:   -76.02056250739780   -5.49307e-02   1.47501e-02 DIIS
   @DF-RHF iter   3:   -76.05156461945498   -3.10021e-02   1.06027e-03 DIIS
   @DF-RHF iter   4:   -76.05195798742240   -3.93368e-04   2.41993e-04 DIIS
   @DF-RHF iter   5:   -76.05198089594512   -2.29085e-05   4.81154e-05 DIIS
   @DF-RHF iter   6:   -76.05198228451974   -1.38857e-06   1.11596e-05 DIIS
   @DF-RHF iter   7:   -76.05198237105623   -8.65365e-08   1.55088e-06 DIIS
   @DF-RHF iter   8:   -76.05198237237958   -1.32336e-09   2.80075e-07 DIIS
   @DF-RHF iter   9:   -76.05198237241953   -3.99467e-11   7.27801e-08 DIIS
   @DF-RHF iter  10:   -76.05198237242220   -2.67164e-12   9.23667e-09 DIIS
  Energy and wave function converged.


  ==> Post-Iterations <==

    Orbital Energies [Eh]
    ---------------------

    Doubly Occupied:                                                      

       1A1   -20.569000     2A1    -1.353790     1B1    -0.711653  
       3A1    -0.588017     1B2    -0.510340  

    Virtual:                                                              

       4A1     0.042598     2B1     0.072361     5A1     0.242121  
       2B2     0.245473     6A1     0.247861     3B1     0.258078  
       4B1     0.319416     7A1     0.325306     5B1     0.674165  
       8A1     0.739064     9A1     1.200731     3B2     1.243732  
       6B1     1.250363    10A1     1.435060     1A2     1.512728  
      11A1     1.609989     4B2     1.698116     7B1     1.946230  
       8B1     2.282511    12A1     2.449651    13A1     2.706616  
       9B1     2.890263     5B2     3.491173     2A2     3.520375  
      14A1     3.704426    15A1     4.065229    10B1     4.337829  
       6B2     5.488561    16A1     5.885672    11B1     6.160145  
      17A1    51.561575  

    Final Occupation by Irrep:
             A1    A2    B1    B2 
    DOCC [     3,    0,    1,    1 ]

  @DF-RHF Final Energy:   -76.05198237242220

   => Energetics <=

    Nuclear Repulsion Energy =              9.1334334609951409
    One-Electron Energy =                -122.9052327356856864
    Two-Electron Energy =                  37.7198169022683487
    Total Energy =                        -76.0519823724222022

Computation Completed


Properties will be evaluated at   0.000000,   0.000000,   0.000000 [a0]

Properties computed using the SCF density matrix

  Nuclear Dipole Moment: [e a0]
     X:     0.0000      Y:     0.0000      Z:     1.0109

  Electronic Dipole Moment: [e a0]
     X:     0.0000      Y:     0.0000      Z:    -0.1120

  Dipole Moment: [e a0]
     X:     0.0000      Y:     0.0000      Z:     0.8990     Total:     0.8990

  Dipole Moment: [D]
     X:     0.0000      Y:     0.0000      Z:     2.2849     Total:     2.2849


*** tstop() called on atlantis at Tue Apr 19 00:11:53 2022
Module time:
	user time   =       0.28 seconds =       0.00 minutes
	system time =       0.01 seconds =       0.00 minutes
	total time  =          0 seconds =       0.00 minutes
Total time:
	user time   =       0.28 seconds =       0.00 minutes
	system time =       0.01 seconds =       0.00 minutes
	total time  =          0 seconds =       0.00 minutes

*** tstart() called on atlantis
*** at Tue Apr 19 00:11:53 2022


  //>>>>>>>>>>>>>>>>>>>>>>>>>>>>>>>>>>>//
  //               DFMP2               //
  //<<<<<<<<<<<<<<<<<<<<<<<<<<<<<<<<<<<//

   => Loading Basis Set <=

    Name: (6-311++G** AUX)
    Role: RIFIT
    Keyword: DF_BASIS_MP2
    atoms 1   entry O          line   264 file /home/akrom/software/anaconda3/envs/ffpenv/share/psi4/basis/aug-cc-pvtz-ri.gbs 
    atoms 2-3 entry H          line    30 file /home/akrom/software/anaconda3/envs/ffpenv/share/psi4/basis/aug-cc-pvtz-ri.gbs 

	 --------------------------------------------------------
	                          DF-MP2                         
	      2nd-Order Density-Fitted Moller-Plesset Theory     
	              RMP2 Wavefunction,   1 Threads             
	                                                         
	        Rob Parrish, Justin Turney, Andy Simmonett,      
	           Ed Hohenstein, and C. David Sherrill          
	 --------------------------------------------------------

   => Auxiliary Basis Set <=

  Basis Set: (6-311++G** AUX)
    Blend: AUG-CC-PVTZ-RI
    Number of shells: 56
    Number of basis function: 198
    Number of Cartesian functions: 246
    Spherical Harmonics?: true
    Max angular momentum: 4

	 --------------------------------------------------------
	                 NBF =    36, NAUX =   198
	 --------------------------------------------------------
	   CLASS    FOCC     OCC    AOCC    AVIR     VIR    FVIR
	   PAIRS       0       5       5      31      31       0
	 --------------------------------------------------------

	-----------------------------------------------------------
	 ==================> DF-MP2 Energies <==================== 
	-----------------------------------------------------------
	 Reference Energy          =     -76.0519823724222022 [Eh]
	 Singles Energy            =      -0.0000000000000000 [Eh]
	 Same-Spin Energy          =      -0.0587917678722833 [Eh]
	 Opposite-Spin Energy      =      -0.1830521649697239 [Eh]
	 Correlation Energy        =      -0.2418439328420072 [Eh]
	 Total Energy              =     -76.2938263052642043 [Eh]
	-----------------------------------------------------------
	 ================> DF-SCS-MP2 Energies <================== 
	-----------------------------------------------------------
	 SCS Same-Spin Scale       =       0.3333333333333333 [-]
	 SCS Opposite-Spin Scale   =       1.2000000000000000 [-]
	 SCS Same-Spin Energy      =      -0.0195972559574278 [Eh]
	 SCS Opposite-Spin Energy  =      -0.2196625979636686 [Eh]
	 SCS Correlation Energy    =      -0.2392598539210964 [Eh]
	 SCS Total Energy          =     -76.2912422263433001 [Eh]
	-----------------------------------------------------------


*** tstop() called on atlantis at Tue Apr 19 00:11:53 2022
Module time:
	user time   =       0.07 seconds =       0.00 minutes
	system time =       0.00 seconds =       0.00 minutes
	total time  =          0 seconds =       0.00 minutes
Total time:
	user time   =       0.35 seconds =       0.01 minutes
	system time =       0.01 seconds =       0.00 minutes
	total time  =          0 seconds =       0.00 minutes
gradient() will perform analytic gradient computation.
    SCF Algorithm Type (re)set to DF.

*** tstart() called on atlantis
*** at Tue Apr 19 00:11:53 2022

   => Loading Basis Set <=

    Name: 6-311++G**
    Role: ORBITAL
    Keyword: BASIS
    atoms 1   entry O          line   161 file /home/akrom/software/anaconda3/envs/ffpenv/share/psi4/basis/6-311ppgss.gbs 
    atoms 2-3 entry H          line    42 file /home/akrom/software/anaconda3/envs/ffpenv/share/psi4/basis/6-311ppgss.gbs 


         ---------------------------------------------------------
                                   SCF
               by Justin Turney, Rob Parrish, Andy Simmonett
                          and Daniel G. A. Smith
                              RHF Reference
                        1 Threads,    500 MiB Core
         ---------------------------------------------------------

  ==> Geometry <==

    Molecular point group: c2v
    Full point group: C2v

    Geometry (in Angstrom), charge = 0, multiplicity = 1:

       Center              X                  Y                   Z               Mass       
    ------------   -----------------  -----------------  -----------------  -----------------
         O            0.000000000000     0.000000000000    -0.067969259994    15.994914619570
         H            0.749030000000     0.000000000000     0.539360740006     1.007825032230
         H           -0.749030000000    -0.000000000000     0.539360740006     1.007825032230

  Running in c2v symmetry.

  Rotational constants: A =     25.53156  B =     14.90675  C =      9.41168 [cm^-1]
  Rotational constants: A = 765416.81232  B = 446893.08836  C = 282155.15104 [MHz]
  Nuclear repulsion =    9.133433460995141

  Charge       = 0
  Multiplicity = 1
  Electrons    = 10
  Nalpha       = 5
  Nbeta        = 5

  ==> Algorithm <==

  SCF Algorithm Type is DF.
  DIIS enabled.
  MOM disabled.
  Fractional occupation disabled.
  Guess Type is SAD.
  Energy threshold   = 1.00e-10
  Density threshold  = 1.00e-10
  Integral threshold = 0.00e+00

  ==> Primary Basis <==

  Basis Set: 6-311++G**
    Blend: 6-311++G**
    Number of shells: 20
    Number of basis function: 36
    Number of Cartesian functions: 37
    Spherical Harmonics?: true
    Max angular momentum: 2

   => Loading Basis Set <=

    Name: (6-311++G** AUX)
    Role: JKFIT
    Keyword: DF_BASIS_SCF
    atoms 1   entry O          line   286 file /home/akrom/software/anaconda3/envs/ffpenv/share/psi4/basis/aug-cc-pvtz-jkfit.gbs 
    atoms 2-3 entry H          line    70 file /home/akrom/software/anaconda3/envs/ffpenv/share/psi4/basis/aug-cc-pvtz-jkfit.gbs 

  ==> Pre-Iterations <==

   -------------------------------------------------------
    Irrep   Nso     Nmo     Nalpha   Nbeta   Ndocc  Nsocc
   -------------------------------------------------------
     A1        17      17       0       0       0       0
     A2         2       2       0       0       0       0
     B1        11      11       0       0       0       0
     B2         6       6       0       0       0       0
   -------------------------------------------------------
    Total      36      36       5       5       5       0
   -------------------------------------------------------

  ==> Integral Setup <==

  DFHelper Memory: AOs need 0.002 GiB; user supplied 0.366 GiB. Using in-core AOs.

  ==> MemDFJK: Density-Fitted J/K Matrices <==

    J tasked:                   Yes
    K tasked:                   Yes
    wK tasked:                   No
    OpenMP threads:               1
    Memory [MiB]:               375
    Algorithm:                 Core
    Schwarz Cutoff:           1E-12
    Mask sparsity (%):       0.0000
    Fitting Condition:        1E-10

   => Auxiliary Basis Set <=

  Basis Set: (6-311++G** AUX)
    Blend: AUG-CC-PVTZ-JKFIT
    Number of shells: 58
    Number of basis function: 196
    Number of Cartesian functions: 241
    Spherical Harmonics?: true
    Max angular momentum: 4

  Minimum eigenvalue in the overlap matrix is 3.4007575506E-03.
  Using Symmetric Orthogonalization.

  SCF Guess: Superposition of Atomic Densities via on-the-fly atomic UHF.

  ==> Iterations <==

                           Total Energy        Delta E     RMS |[F,P]|

   @DF-RHF iter SAD:   -75.46549424054028   -7.54655e+01   0.00000e+00 
   @DF-RHF iter   1:   -75.96563182202826   -5.00138e-01   2.21186e-02 DIIS
   @DF-RHF iter   2:   -76.02056250739780   -5.49307e-02   1.47501e-02 DIIS
   @DF-RHF iter   3:   -76.05156461945498   -3.10021e-02   1.06027e-03 DIIS
   @DF-RHF iter   4:   -76.05195798742240   -3.93368e-04   2.41993e-04 DIIS
   @DF-RHF iter   5:   -76.05198089594512   -2.29085e-05   4.81154e-05 DIIS
   @DF-RHF iter   6:   -76.05198228451974   -1.38857e-06   1.11596e-05 DIIS
   @DF-RHF iter   7:   -76.05198237105623   -8.65365e-08   1.55088e-06 DIIS
   @DF-RHF iter   8:   -76.05198237237958   -1.32336e-09   2.80075e-07 DIIS
   @DF-RHF iter   9:   -76.05198237241953   -3.99467e-11   7.27801e-08 DIIS
   @DF-RHF iter  10:   -76.05198237242220   -2.67164e-12   9.23667e-09 DIIS
   @DF-RHF iter  11:   -76.05198237242236   -1.56319e-13   1.76495e-09 DIIS
   @DF-RHF iter  12:   -76.05198237242223    1.27898e-13   2.65908e-10 DIIS
   @DF-RHF iter  13:   -76.05198237242226   -2.84217e-14   3.42185e-11 DIIS
  Energy and wave function converged.


  ==> Post-Iterations <==

    Orbital Energies [Eh]
    ---------------------

    Doubly Occupied:                                                      

       1A1   -20.569000     2A1    -1.353790     1B1    -0.711653  
       3A1    -0.588017     1B2    -0.510340  

    Virtual:                                                              

       4A1     0.042598     2B1     0.072361     5A1     0.242121  
       2B2     0.245473     6A1     0.247861     3B1     0.258078  
       4B1     0.319416     7A1     0.325306     5B1     0.674165  
       8A1     0.739064     9A1     1.200731     3B2     1.243732  
       6B1     1.250363    10A1     1.435060     1A2     1.512728  
      11A1     1.609989     4B2     1.698116     7B1     1.946230  
       8B1     2.282511    12A1     2.449651    13A1     2.706616  
       9B1     2.890263     5B2     3.491173     2A2     3.520375  
      14A1     3.704426    15A1     4.065229    10B1     4.337829  
       6B2     5.488561    16A1     5.885672    11B1     6.160145  
      17A1    51.561575  

    Final Occupation by Irrep:
             A1    A2    B1    B2 
    DOCC [     3,    0,    1,    1 ]

  @DF-RHF Final Energy:   -76.05198237242226

   => Energetics <=

    Nuclear Repulsion Energy =              9.1334334609951409
    One-Electron Energy =                -122.9052324482960898
    Two-Electron Energy =                  37.7198166148786953
    Total Energy =                        -76.0519823724222590

Computation Completed


Properties will be evaluated at   0.000000,   0.000000,   0.000000 [a0]

Properties computed using the SCF density matrix

  Nuclear Dipole Moment: [e a0]
     X:     0.0000      Y:     0.0000      Z:     1.0109

  Electronic Dipole Moment: [e a0]
     X:     0.0000      Y:     0.0000      Z:    -0.1120

  Dipole Moment: [e a0]
     X:     0.0000      Y:     0.0000      Z:     0.8990     Total:     0.8990

  Dipole Moment: [D]
     X:     0.0000      Y:     0.0000      Z:     2.2849     Total:     2.2849


*** tstop() called on atlantis at Tue Apr 19 00:11:53 2022
Module time:
	user time   =       0.27 seconds =       0.00 minutes
	system time =       0.00 seconds =       0.00 minutes
	total time  =          0 seconds =       0.00 minutes
Total time:
	user time   =       0.63 seconds =       0.01 minutes
	system time =       0.01 seconds =       0.00 minutes
	total time  =          0 seconds =       0.00 minutes

*** tstart() called on atlantis
*** at Tue Apr 19 00:11:53 2022


  //>>>>>>>>>>>>>>>>>>>>>>>>>>>>>>>>>>>//
  //               DFMP2               //
  //<<<<<<<<<<<<<<<<<<<<<<<<<<<<<<<<<<<//

   => Loading Basis Set <=

    Name: (6-311++G** AUX)
    Role: RIFIT
    Keyword: DF_BASIS_MP2
    atoms 1   entry O          line   264 file /home/akrom/software/anaconda3/envs/ffpenv/share/psi4/basis/aug-cc-pvtz-ri.gbs 
    atoms 2-3 entry H          line    30 file /home/akrom/software/anaconda3/envs/ffpenv/share/psi4/basis/aug-cc-pvtz-ri.gbs 

	 --------------------------------------------------------
	                          DF-MP2                         
	      2nd-Order Density-Fitted Moller-Plesset Theory     
	              RMP2 Wavefunction,   1 Threads             
	                                                         
	        Rob Parrish, Justin Turney, Andy Simmonett,      
	           Ed Hohenstein, and C. David Sherrill          
	 --------------------------------------------------------

   => Auxiliary Basis Set <=

  Basis Set: (6-311++G** AUX)
    Blend: AUG-CC-PVTZ-RI
    Number of shells: 56
    Number of basis function: 198
    Number of Cartesian functions: 246
    Spherical Harmonics?: true
    Max angular momentum: 4

	 --------------------------------------------------------
	                 NBF =    36, NAUX =   198
	 --------------------------------------------------------
	   CLASS    FOCC     OCC    AOCC    AVIR     VIR    FVIR
	   PAIRS       0       5       5      31      31       0
	 --------------------------------------------------------

  DFHelper Memory: AOs need 0.002 GiB; user supplied 0.366 GiB. Using in-core AOs.


         ------------------------------------------------------------
                                     CPHF                           
                                  Rob Parrish                       
         ------------------------------------------------------------

  ==> Geometry <==

    Molecular point group: c2v
    Full point group: C2v

    Geometry (in Angstrom), charge = 0, multiplicity = 1:

       Center              X                  Y                   Z               Mass       
    ------------   -----------------  -----------------  -----------------  -----------------
         O            0.000000000000     0.000000000000    -0.067969259994    15.994914619570
         H            0.749030000000     0.000000000000     0.539360740006     1.007825032230
         H           -0.749030000000    -0.000000000000     0.539360740006     1.007825032230

  Nuclear repulsion =    9.133433460995141
  Reference energy  =  -76.051982372422259

  ==> Basis Set <==

  Basis Set: 6-311++G**
    Blend: 6-311++G**
    Number of shells: 20
    Number of basis function: 36
    Number of Cartesian functions: 37
    Spherical Harmonics?: true
    Max angular momentum: 2

  ==> CGRSolver (by Rob Parrish) <==

   Number of roots    =         1
   Preconditioning    =    JACOBI
   Convergence cutoff =     1E-06
   Maximum iterations =       100

  ==> CPHFRHamiltonian (by Rob Parrish) <== 

  ==> MemDFJK: Density-Fitted J/K Matrices <==

    J tasked:                   Yes
    K tasked:                   Yes
    wK tasked:                   No
    OpenMP threads:               1
    Memory [MiB]:               375
    Algorithm:                 Core
    Schwarz Cutoff:           1E-12
    Mask sparsity (%):       0.0000
    Fitting Condition:        1E-10

   => Auxiliary Basis Set <=

  Basis Set: (6-311++G** AUX)
    Blend: AUG-CC-PVTZ-JKFIT
    Number of shells: 58
    Number of basis function: 196
    Number of Cartesian functions: 241
    Spherical Harmonics?: true
    Max angular momentum: 4

  ==> CPHF Iterations <==

  => Iterations <=

             Iter  Converged  Remaining    Residual
  CGR           1          0          1   3.064E-02
  CGR           2          0          1   9.981E-03
  CGR           3          0          1   2.851E-03
  CGR           4          0          1   3.670E-04
  CGR           5          0          1   8.030E-05
  CGR           6          0          1   1.680E-05
  CGR           7          0          1   2.249E-06
  CGR           8          1          0   4.115E-07

    CGRSolver converged.

  ==> DFCorrGrad: Density-Fitted Correlated Gradients <==

    OpenMP threads:              1
    Integrals threads:           1
    Memory [GiB]:            0.366
    Schwarz Cutoff:          0E+00
    Fitting Condition:       1E-10

   => Auxiliary Basis Set <=

  Basis Set: (6-311++G** AUX)
    Blend: AUG-CC-PVTZ-JKFIT
    Number of shells: 58
    Number of basis function: 196
    Number of Cartesian functions: 241
    Spherical Harmonics?: true
    Max angular momentum: 4

	-----------------------------------------------------------
	 ==================> DF-MP2 Energies <==================== 
	-----------------------------------------------------------
	 Reference Energy          =     -76.0519823724222590 [Eh]
	 Singles Energy            =      -0.0000000000000000 [Eh]
	 Same-Spin Energy          =      -0.0587917680089541 [Eh]
	 Opposite-Spin Energy      =      -0.1830521652019625 [Eh]
	 Correlation Energy        =      -0.2418439332109167 [Eh]
	 Total Energy              =     -76.2938263056331749 [Eh]
	-----------------------------------------------------------
	 ================> DF-SCS-MP2 Energies <================== 
	-----------------------------------------------------------
	 SCS Same-Spin Scale       =       0.3333333333333333 [-]
	 SCS Opposite-Spin Scale   =       1.2000000000000000 [-]
	 SCS Same-Spin Energy      =      -0.0195972560029847 [Eh]
	 SCS Opposite-Spin Energy  =      -0.2196625982423550 [Eh]
	 SCS Correlation Energy    =      -0.2392598542453397 [Eh]
	 SCS Total Energy          =     -76.2912422266675918 [Eh]
	-----------------------------------------------------------


  -Total Gradient:
     Atom            X                  Y                   Z
    ------   -----------------  -----------------  -----------------
       1        0.000000000000     0.000000000000    -0.009060735926
       2        0.002241496226     0.000000000000     0.004530367963
       3       -0.002241496226    -0.000000000000     0.004530367963


*** tstop() called on atlantis at Tue Apr 19 00:11:54 2022
Module time:
	user time   =       0.35 seconds =       0.01 minutes
	system time =       0.01 seconds =       0.00 minutes
	total time  =          1 seconds =       0.02 minutes
Total time:
	user time   =       0.98 seconds =       0.02 minutes
	system time =       0.02 seconds =       0.00 minutes
	total time  =          1 seconds =       0.02 minutes

  Based on options and gradient (rms=3.85E-03), recommend projecting translations and projecting rotations.
hessian() will perform frequency computation by finite difference of analytic gradients.

         ----------------------------------------------------------
                                   FINDIF
                     R. A. King and Jonathon Misiewicz
         ---------------------------------------------------------

  Using finite-differences of gradients to determine vibrational frequencies and 
  normal modes.  Resulting frequencies are only valid at stationary points.
    Generating geometries for use with 3-point formula.
    Displacement size will be 5.00e-03.
    Number of atoms is 3.
    Number of irreps is 4.
    Number of SALCs is 3.
    Translations projected? 1. Rotations projected? 1.
    Index of SALCs per irrep:
     1 :  0  1 
     2 : 
     3 :  2 
     4 : 
    Number of SALCs per irrep:
     Irrep 1: 2
     Irrep 2: 0
     Irrep 3: 1
     Irrep 4: 0
    Number of geometries (including reference) is 6.
    Number of displacements per irrep:
      Irrep 1: 4
      Irrep 2: 0
      Irrep 3: 1
      Irrep 4: 0

  //>>>>>>>>>>>>>>>>>>>>>>>>>>>>>>>>>>>//
  //    Loading displacement 1 of 6    //
  //<<<<<<<<<<<<<<<<<<<<<<<<<<<<<<<<<<<//
gradient() will perform analytic gradient computation.
    SCF Algorithm Type (re)set to DF.

*** tstart() called on atlantis
*** at Tue Apr 19 00:11:54 2022

   => Loading Basis Set <=

    Name: 6-311++G**
    Role: ORBITAL
    Keyword: BASIS
    atoms 1   entry O          line   161 file /home/akrom/software/anaconda3/envs/ffpenv/share/psi4/basis/6-311ppgss.gbs 
    atoms 2-3 entry H          line    42 file /home/akrom/software/anaconda3/envs/ffpenv/share/psi4/basis/6-311ppgss.gbs 


         ---------------------------------------------------------
                                   SCF
               by Justin Turney, Rob Parrish, Andy Simmonett
                          and Daniel G. A. Smith
                              RHF Reference
                        1 Threads,    500 MiB Core
         ---------------------------------------------------------

  ==> Geometry <==

    Molecular point group: c2v
    Full point group: C2v

    Geometry (in Angstrom), charge = 0, multiplicity = 1:

       Center              X                  Y                   Z               Mass       
    ------------   -----------------  -----------------  -----------------  -----------------
         O            0.000000000000     0.000000000000    -0.067969259994    15.994914619570
         H            0.749030000000     0.000000000000     0.539360740006     1.007825032230
         H           -0.749030000000    -0.000000000000     0.539360740006     1.007825032230

  Running in c2v symmetry.

  Rotational constants: A =     25.53156  B =     14.90675  C =      9.41168 [cm^-1]
  Rotational constants: A = 765416.81232  B = 446893.08836  C = 282155.15104 [MHz]
  Nuclear repulsion =    9.133433460995141

  Charge       = 0
  Multiplicity = 1
  Electrons    = 10
  Nalpha       = 5
  Nbeta        = 5

  ==> Algorithm <==

  SCF Algorithm Type is DF.
  DIIS enabled.
  MOM disabled.
  Fractional occupation disabled.
  Guess Type is SAD.
  Energy threshold   = 1.00e-10
  Density threshold  = 1.00e-10
  Integral threshold = 0.00e+00

  ==> Primary Basis <==

  Basis Set: 6-311++G**
    Blend: 6-311++G**
    Number of shells: 20
    Number of basis function: 36
    Number of Cartesian functions: 37
    Spherical Harmonics?: true
    Max angular momentum: 2

   => Loading Basis Set <=

    Name: (6-311++G** AUX)
    Role: JKFIT
    Keyword: DF_BASIS_SCF
    atoms 1   entry O          line   286 file /home/akrom/software/anaconda3/envs/ffpenv/share/psi4/basis/aug-cc-pvtz-jkfit.gbs 
    atoms 2-3 entry H          line    70 file /home/akrom/software/anaconda3/envs/ffpenv/share/psi4/basis/aug-cc-pvtz-jkfit.gbs 

  ==> Pre-Iterations <==

   -------------------------------------------------------
    Irrep   Nso     Nmo     Nalpha   Nbeta   Ndocc  Nsocc
   -------------------------------------------------------
     A1        17      17       0       0       0       0
     A2         2       2       0       0       0       0
     B1        11      11       0       0       0       0
     B2         6       6       0       0       0       0
   -------------------------------------------------------
    Total      36      36       5       5       5       0
   -------------------------------------------------------

  ==> Integral Setup <==

  DFHelper Memory: AOs need 0.002 GiB; user supplied 0.366 GiB. Using in-core AOs.

  ==> MemDFJK: Density-Fitted J/K Matrices <==

    J tasked:                   Yes
    K tasked:                   Yes
    wK tasked:                   No
    OpenMP threads:               1
    Memory [MiB]:               375
    Algorithm:                 Core
    Schwarz Cutoff:           1E-12
    Mask sparsity (%):       0.0000
    Fitting Condition:        1E-10

   => Auxiliary Basis Set <=

  Basis Set: (6-311++G** AUX)
    Blend: AUG-CC-PVTZ-JKFIT
    Number of shells: 58
    Number of basis function: 196
    Number of Cartesian functions: 241
    Spherical Harmonics?: true
    Max angular momentum: 4

  Minimum eigenvalue in the overlap matrix is 3.4007575506E-03.
  Using Symmetric Orthogonalization.

  SCF Guess: Superposition of Atomic Densities via on-the-fly atomic UHF.

  ==> Iterations <==

                           Total Energy        Delta E     RMS |[F,P]|

   @DF-RHF iter SAD:   -75.46549424054028   -7.54655e+01   0.00000e+00 
   @DF-RHF iter   1:   -75.96563182202827   -5.00138e-01   2.21186e-02 DIIS
   @DF-RHF iter   2:   -76.02056250739780   -5.49307e-02   1.47501e-02 DIIS
   @DF-RHF iter   3:   -76.05156461945499   -3.10021e-02   1.06027e-03 DIIS
   @DF-RHF iter   4:   -76.05195798742240   -3.93368e-04   2.41993e-04 DIIS
   @DF-RHF iter   5:   -76.05198089594519   -2.29085e-05   4.81154e-05 DIIS
   @DF-RHF iter   6:   -76.05198228451967   -1.38857e-06   1.11596e-05 DIIS
   @DF-RHF iter   7:   -76.05198237105620   -8.65365e-08   1.55088e-06 DIIS
   @DF-RHF iter   8:   -76.05198237237961   -1.32341e-09   2.80075e-07 DIIS
   @DF-RHF iter   9:   -76.05198237241957   -3.99609e-11   7.27801e-08 DIIS
   @DF-RHF iter  10:   -76.05198237242223   -2.65743e-12   9.23667e-09 DIIS
   @DF-RHF iter  11:   -76.05198237242227   -4.26326e-14   1.76495e-09 DIIS
   @DF-RHF iter  12:   -76.05198237242222    5.68434e-14   2.65908e-10 DIIS
   @DF-RHF iter  13:   -76.05198237242223   -1.42109e-14   3.42181e-11 DIIS
  Energy and wave function converged.


  ==> Post-Iterations <==

    Orbital Energies [Eh]
    ---------------------

    Doubly Occupied:                                                      

       1A1   -20.569000     2A1    -1.353790     1B1    -0.711653  
       3A1    -0.588017     1B2    -0.510340  

    Virtual:                                                              

       4A1     0.042598     2B1     0.072361     5A1     0.242121  
       2B2     0.245473     6A1     0.247861     3B1     0.258078  
       4B1     0.319416     7A1     0.325306     5B1     0.674165  
       8A1     0.739064     9A1     1.200731     3B2     1.243732  
       6B1     1.250363    10A1     1.435060     1A2     1.512728  
      11A1     1.609989     4B2     1.698116     7B1     1.946230  
       8B1     2.282511    12A1     2.449651    13A1     2.706616  
       9B1     2.890263     5B2     3.491173     2A2     3.520375  
      14A1     3.704426    15A1     4.065229    10B1     4.337829  
       6B2     5.488561    16A1     5.885672    11B1     6.160145  
      17A1    51.561575  

    Final Occupation by Irrep:
             A1    A2    B1    B2 
    DOCC [     3,    0,    1,    1 ]

  @DF-RHF Final Energy:   -76.05198237242223

   => Energetics <=

    Nuclear Repulsion Energy =              9.1334334609951409
    One-Electron Energy =                -122.9052324482960614
    Two-Electron Energy =                  37.7198166148786953
    Total Energy =                        -76.0519823724222306

Computation Completed


Properties will be evaluated at   0.000000,   0.000000,   0.000000 [a0]

Properties computed using the SCF density matrix

  Nuclear Dipole Moment: [e a0]
     X:     0.0000      Y:     0.0000      Z:     1.0109

  Electronic Dipole Moment: [e a0]
     X:     0.0000      Y:     0.0000      Z:    -0.1120

  Dipole Moment: [e a0]
     X:     0.0000      Y:     0.0000      Z:     0.8990     Total:     0.8990

  Dipole Moment: [D]
     X:     0.0000      Y:     0.0000      Z:     2.2849     Total:     2.2849


*** tstop() called on atlantis at Tue Apr 19 00:11:54 2022
Module time:
	user time   =       0.27 seconds =       0.00 minutes
	system time =       0.01 seconds =       0.00 minutes
	total time  =          0 seconds =       0.00 minutes
Total time:
	user time   =       1.53 seconds =       0.03 minutes
	system time =       0.03 seconds =       0.00 minutes
	total time  =          1 seconds =       0.02 minutes

*** tstart() called on atlantis
*** at Tue Apr 19 00:11:54 2022


  //>>>>>>>>>>>>>>>>>>>>>>>>>>>>>>>>>>>//
  //               DFMP2               //
  //<<<<<<<<<<<<<<<<<<<<<<<<<<<<<<<<<<<//

   => Loading Basis Set <=

    Name: (6-311++G** AUX)
    Role: RIFIT
    Keyword: DF_BASIS_MP2
    atoms 1   entry O          line   264 file /home/akrom/software/anaconda3/envs/ffpenv/share/psi4/basis/aug-cc-pvtz-ri.gbs 
    atoms 2-3 entry H          line    30 file /home/akrom/software/anaconda3/envs/ffpenv/share/psi4/basis/aug-cc-pvtz-ri.gbs 

	 --------------------------------------------------------
	                          DF-MP2                         
	      2nd-Order Density-Fitted Moller-Plesset Theory     
	              RMP2 Wavefunction,   1 Threads             
	                                                         
	        Rob Parrish, Justin Turney, Andy Simmonett,      
	           Ed Hohenstein, and C. David Sherrill          
	 --------------------------------------------------------

   => Auxiliary Basis Set <=

  Basis Set: (6-311++G** AUX)
    Blend: AUG-CC-PVTZ-RI
    Number of shells: 56
    Number of basis function: 198
    Number of Cartesian functions: 246
    Spherical Harmonics?: true
    Max angular momentum: 4

	 --------------------------------------------------------
	                 NBF =    36, NAUX =   198
	 --------------------------------------------------------
	   CLASS    FOCC     OCC    AOCC    AVIR     VIR    FVIR
	   PAIRS       0       5       5      31      31       0
	 --------------------------------------------------------

  DFHelper Memory: AOs need 0.002 GiB; user supplied 0.366 GiB. Using in-core AOs.


         ------------------------------------------------------------
                                     CPHF                           
                                  Rob Parrish                       
         ------------------------------------------------------------

  ==> Geometry <==

    Molecular point group: c2v
    Full point group: C2v

    Geometry (in Angstrom), charge = 0, multiplicity = 1:

       Center              X                  Y                   Z               Mass       
    ------------   -----------------  -----------------  -----------------  -----------------
         O            0.000000000000     0.000000000000    -0.067969259994    15.994914619570
         H            0.749030000000     0.000000000000     0.539360740006     1.007825032230
         H           -0.749030000000    -0.000000000000     0.539360740006     1.007825032230

  Nuclear repulsion =    9.133433460995141
  Reference energy  =  -76.051982372422231

  ==> Basis Set <==

  Basis Set: 6-311++G**
    Blend: 6-311++G**
    Number of shells: 20
    Number of basis function: 36
    Number of Cartesian functions: 37
    Spherical Harmonics?: true
    Max angular momentum: 2

  ==> CGRSolver (by Rob Parrish) <==

   Number of roots    =         1
   Preconditioning    =    JACOBI
   Convergence cutoff =     1E-06
   Maximum iterations =       100

  ==> CPHFRHamiltonian (by Rob Parrish) <== 

  ==> MemDFJK: Density-Fitted J/K Matrices <==

    J tasked:                   Yes
    K tasked:                   Yes
    wK tasked:                   No
    OpenMP threads:               1
    Memory [MiB]:               375
    Algorithm:                 Core
    Schwarz Cutoff:           1E-12
    Mask sparsity (%):       0.0000
    Fitting Condition:        1E-10

   => Auxiliary Basis Set <=

  Basis Set: (6-311++G** AUX)
    Blend: AUG-CC-PVTZ-JKFIT
    Number of shells: 58
    Number of basis function: 196
    Number of Cartesian functions: 241
    Spherical Harmonics?: true
    Max angular momentum: 4

  ==> CPHF Iterations <==

  => Iterations <=

             Iter  Converged  Remaining    Residual
  CGR           1          0          1   3.064E-02
  CGR           2          0          1   9.981E-03
  CGR           3          0          1   2.851E-03
  CGR           4          0          1   3.670E-04
  CGR           5          0          1   8.030E-05
  CGR           6          0          1   1.680E-05
  CGR           7          0          1   2.249E-06
  CGR           8          1          0   4.115E-07

    CGRSolver converged.

  ==> DFCorrGrad: Density-Fitted Correlated Gradients <==

    OpenMP threads:              1
    Integrals threads:           1
    Memory [GiB]:            0.366
    Schwarz Cutoff:          0E+00
    Fitting Condition:       1E-10

   => Auxiliary Basis Set <=

  Basis Set: (6-311++G** AUX)
    Blend: AUG-CC-PVTZ-JKFIT
    Number of shells: 58
    Number of basis function: 196
    Number of Cartesian functions: 241
    Spherical Harmonics?: true
    Max angular momentum: 4

	-----------------------------------------------------------
	 ==================> DF-MP2 Energies <==================== 
	-----------------------------------------------------------
	 Reference Energy          =     -76.0519823724222306 [Eh]
	 Singles Energy            =      -0.0000000000000000 [Eh]
	 Same-Spin Energy          =      -0.0587917680089530 [Eh]
	 Opposite-Spin Energy      =      -0.1830521652019604 [Eh]
	 Correlation Energy        =      -0.2418439332109134 [Eh]
	 Total Energy              =     -76.2938263056331465 [Eh]
	-----------------------------------------------------------
	 ================> DF-SCS-MP2 Energies <================== 
	-----------------------------------------------------------
	 SCS Same-Spin Scale       =       0.3333333333333333 [-]
	 SCS Opposite-Spin Scale   =       1.2000000000000000 [-]
	 SCS Same-Spin Energy      =      -0.0195972560029843 [Eh]
	 SCS Opposite-Spin Energy  =      -0.2196625982423525 [Eh]
	 SCS Correlation Energy    =      -0.2392598542453368 [Eh]
	 SCS Total Energy          =     -76.2912422266675634 [Eh]
	-----------------------------------------------------------


  -Total Gradient:
     Atom            X                  Y                   Z
    ------   -----------------  -----------------  -----------------
       1        0.000000000000     0.000000000000    -0.009060735891
       2        0.002241496179     0.000000000000     0.004530367946
       3       -0.002241496179    -0.000000000000     0.004530367946


*** tstop() called on atlantis at Tue Apr 19 00:11:55 2022
Module time:
	user time   =       0.34 seconds =       0.01 minutes
	system time =       0.00 seconds =       0.00 minutes
	total time  =          1 seconds =       0.02 minutes
Total time:
	user time   =       1.87 seconds =       0.03 minutes
	system time =       0.03 seconds =       0.00 minutes
	total time  =          2 seconds =       0.03 minutes

  //>>>>>>>>>>>>>>>>>>>>>>>>>>>>>>>>>>>//
  //    Loading displacement 2 of 6    //
  //<<<<<<<<<<<<<<<<<<<<<<<<<<<<<<<<<<<//
gradient() will perform analytic gradient computation.
    SCF Algorithm Type (re)set to DF.

*** tstart() called on atlantis
*** at Tue Apr 19 00:11:55 2022

   => Loading Basis Set <=

    Name: 6-311++G**
    Role: ORBITAL
    Keyword: BASIS
    atoms 1   entry O          line   161 file /home/akrom/software/anaconda3/envs/ffpenv/share/psi4/basis/6-311ppgss.gbs 
    atoms 2-3 entry H          line    42 file /home/akrom/software/anaconda3/envs/ffpenv/share/psi4/basis/6-311ppgss.gbs 


         ---------------------------------------------------------
                                   SCF
               by Justin Turney, Rob Parrish, Andy Simmonett
                          and Daniel G. A. Smith
                              RHF Reference
                        1 Threads,    500 MiB Core
         ---------------------------------------------------------

  ==> Geometry <==

    Molecular point group: c2v
    Full point group: C2v

    Geometry (in Angstrom), charge = 0, multiplicity = 1:

       Center              X                  Y                   Z               Mass       
    ------------   -----------------  -----------------  -----------------  -----------------
         O            0.000000000000     0.000000000000    -0.068190581735    15.994914619570
         H            0.749030000000     0.000000000000     0.541117008324     1.007825032230
         H           -0.749030000000    -0.000000000000     0.541117008324     1.007825032230

  Running in c2v symmetry.

  Rotational constants: A =     25.36609  B =     14.90675  C =      9.38911 [cm^-1]
  Rotational constants: A = 760456.34809  B = 446893.08836  C = 281478.31580 [MHz]
  Nuclear repulsion =    9.122096529799810

  Charge       = 0
  Multiplicity = 1
  Electrons    = 10
  Nalpha       = 5
  Nbeta        = 5

  ==> Algorithm <==

  SCF Algorithm Type is DF.
  DIIS enabled.
  MOM disabled.
  Fractional occupation disabled.
  Guess Type is SAD.
  Energy threshold   = 1.00e-10
  Density threshold  = 1.00e-10
  Integral threshold = 0.00e+00

  ==> Primary Basis <==

  Basis Set: 6-311++G**
    Blend: 6-311++G**
    Number of shells: 20
    Number of basis function: 36
    Number of Cartesian functions: 37
    Spherical Harmonics?: true
    Max angular momentum: 2

   => Loading Basis Set <=

    Name: (6-311++G** AUX)
    Role: JKFIT
    Keyword: DF_BASIS_SCF
    atoms 1   entry O          line   286 file /home/akrom/software/anaconda3/envs/ffpenv/share/psi4/basis/aug-cc-pvtz-jkfit.gbs 
    atoms 2-3 entry H          line    70 file /home/akrom/software/anaconda3/envs/ffpenv/share/psi4/basis/aug-cc-pvtz-jkfit.gbs 

  ==> Pre-Iterations <==

   -------------------------------------------------------
    Irrep   Nso     Nmo     Nalpha   Nbeta   Ndocc  Nsocc
   -------------------------------------------------------
     A1        17      17       0       0       0       0
     A2         2       2       0       0       0       0
     B1        11      11       0       0       0       0
     B2         6       6       0       0       0       0
   -------------------------------------------------------
    Total      36      36       5       5       5       0
   -------------------------------------------------------

  ==> Integral Setup <==

  DFHelper Memory: AOs need 0.002 GiB; user supplied 0.366 GiB. Using in-core AOs.

  ==> MemDFJK: Density-Fitted J/K Matrices <==

    J tasked:                   Yes
    K tasked:                   Yes
    wK tasked:                   No
    OpenMP threads:               1
    Memory [MiB]:               375
    Algorithm:                 Core
    Schwarz Cutoff:           1E-12
    Mask sparsity (%):       0.0000
    Fitting Condition:        1E-10

   => Auxiliary Basis Set <=

  Basis Set: (6-311++G** AUX)
    Blend: AUG-CC-PVTZ-JKFIT
    Number of shells: 58
    Number of basis function: 196
    Number of Cartesian functions: 241
    Spherical Harmonics?: true
    Max angular momentum: 4

  Minimum eigenvalue in the overlap matrix is 3.4086652561E-03.
  Using Symmetric Orthogonalization.

  SCF Guess: Superposition of Atomic Densities via on-the-fly atomic UHF.

  ==> Iterations <==

                           Total Energy        Delta E     RMS |[F,P]|

   @DF-RHF iter SAD:   -75.46425496465841   -7.54643e+01   0.00000e+00 
   @DF-RHF iter   1:   -75.96540151463442   -5.01147e-01   2.21146e-02 DIIS
   @DF-RHF iter   2:   -76.02030956440170   -5.49080e-02   1.47702e-02 DIIS
   @DF-RHF iter   3:   -76.05141611226888   -3.11065e-02   1.06194e-03 DIIS
   @DF-RHF iter   4:   -76.05181098519904   -3.94873e-04   2.43069e-04 DIIS
   @DF-RHF iter   5:   -76.05183414178336   -2.31566e-05   4.84106e-05 DIIS
   @DF-RHF iter   6:   -76.05183554922976   -1.40745e-06   1.12259e-05 DIIS
   @DF-RHF iter   7:   -76.05183563673160   -8.75018e-08   1.54998e-06 DIIS
   @DF-RHF iter   8:   -76.05183563804947   -1.31787e-09   2.80555e-07 DIIS
   @DF-RHF iter   9:   -76.05183563808947   -4.00036e-11   7.29337e-08 DIIS
   @DF-RHF iter  10:   -76.05183563809209   -2.61480e-12   9.28031e-09 DIIS
   @DF-RHF iter  11:   -76.05183563809219   -9.94760e-14   1.77905e-09 DIIS
   @DF-RHF iter  12:   -76.05183563809219    0.00000e+00   2.67553e-10 DIIS
   @DF-RHF iter  13:   -76.05183563809214    4.26326e-14   3.41154e-11 DIIS
  Energy and wave function converged.


  ==> Post-Iterations <==

    Orbital Energies [Eh]
    ---------------------

    Doubly Occupied:                                                      

       1A1   -20.569302     2A1    -1.353285     1B1    -0.710627  
       3A1    -0.588141     1B2    -0.510299  

    Virtual:                                                              

       4A1     0.042541     2B1     0.072359     5A1     0.242173  
       2B2     0.245482     6A1     0.247608     3B1     0.257806  
       4B1     0.319437     7A1     0.325466     5B1     0.673080  
       8A1     0.738584     9A1     1.200973     3B2     1.243709  
       6B1     1.250667    10A1     1.433062     1A2     1.513071  
      11A1     1.610405     4B2     1.696812     7B1     1.946286  
       8B1     2.279723    12A1     2.447479    13A1     2.706897  
       9B1     2.891618     5B2     3.490860     2A2     3.518501  
      14A1     3.702565    15A1     4.063359    10B1     4.337097  
       6B2     5.488385    16A1     5.885097    11B1     6.155056  
      17A1    51.560182  

    Final Occupation by Irrep:
             A1    A2    B1    B2 
    DOCC [     3,    0,    1,    1 ]

  @DF-RHF Final Energy:   -76.05183563809214

   => Energetics <=

    Nuclear Repulsion Energy =              9.1220965297998102
    One-Electron Energy =                -122.8845551929601356
    Two-Electron Energy =                  37.7106230250681733
    Total Energy =                        -76.0518356380921574

Computation Completed


Properties will be evaluated at   0.000000,   0.000000,   0.000000 [a0]

Properties computed using the SCF density matrix

  Nuclear Dipole Moment: [e a0]
     X:     0.0000      Y:     0.0000      Z:     1.0142

  Electronic Dipole Moment: [e a0]
     X:     0.0000      Y:     0.0000      Z:    -0.1137

  Dipole Moment: [e a0]
     X:     0.0000      Y:     0.0000      Z:     0.9005     Total:     0.9005

  Dipole Moment: [D]
     X:     0.0000      Y:     0.0000      Z:     2.2889     Total:     2.2889


*** tstop() called on atlantis at Tue Apr 19 00:11:55 2022
Module time:
	user time   =       0.27 seconds =       0.00 minutes
	system time =       0.00 seconds =       0.00 minutes
	total time  =          0 seconds =       0.00 minutes
Total time:
	user time   =       2.15 seconds =       0.04 minutes
	system time =       0.03 seconds =       0.00 minutes
	total time  =          2 seconds =       0.03 minutes

*** tstart() called on atlantis
*** at Tue Apr 19 00:11:55 2022


  //>>>>>>>>>>>>>>>>>>>>>>>>>>>>>>>>>>>//
  //               DFMP2               //
  //<<<<<<<<<<<<<<<<<<<<<<<<<<<<<<<<<<<//

   => Loading Basis Set <=

    Name: (6-311++G** AUX)
    Role: RIFIT
    Keyword: DF_BASIS_MP2
    atoms 1   entry O          line   264 file /home/akrom/software/anaconda3/envs/ffpenv/share/psi4/basis/aug-cc-pvtz-ri.gbs 
    atoms 2-3 entry H          line    30 file /home/akrom/software/anaconda3/envs/ffpenv/share/psi4/basis/aug-cc-pvtz-ri.gbs 

	 --------------------------------------------------------
	                          DF-MP2                         
	      2nd-Order Density-Fitted Moller-Plesset Theory     
	              RMP2 Wavefunction,   1 Threads             
	                                                         
	        Rob Parrish, Justin Turney, Andy Simmonett,      
	           Ed Hohenstein, and C. David Sherrill          
	 --------------------------------------------------------

   => Auxiliary Basis Set <=

  Basis Set: (6-311++G** AUX)
    Blend: AUG-CC-PVTZ-RI
    Number of shells: 56
    Number of basis function: 198
    Number of Cartesian functions: 246
    Spherical Harmonics?: true
    Max angular momentum: 4

	 --------------------------------------------------------
	                 NBF =    36, NAUX =   198
	 --------------------------------------------------------
	   CLASS    FOCC     OCC    AOCC    AVIR     VIR    FVIR
	   PAIRS       0       5       5      31      31       0
	 --------------------------------------------------------

  DFHelper Memory: AOs need 0.002 GiB; user supplied 0.366 GiB. Using in-core AOs.


         ------------------------------------------------------------
                                     CPHF                           
                                  Rob Parrish                       
         ------------------------------------------------------------

  ==> Geometry <==

    Molecular point group: c2v
    Full point group: C2v

    Geometry (in Angstrom), charge = 0, multiplicity = 1:

       Center              X                  Y                   Z               Mass       
    ------------   -----------------  -----------------  -----------------  -----------------
         O            0.000000000000     0.000000000000    -0.068190581735    15.994914619570
         H            0.749030000000     0.000000000000     0.541117008324     1.007825032230
         H           -0.749030000000    -0.000000000000     0.541117008324     1.007825032230

  Nuclear repulsion =    9.122096529799810
  Reference energy  =  -76.051835638092143

  ==> Basis Set <==

  Basis Set: 6-311++G**
    Blend: 6-311++G**
    Number of shells: 20
    Number of basis function: 36
    Number of Cartesian functions: 37
    Spherical Harmonics?: true
    Max angular momentum: 2

  ==> CGRSolver (by Rob Parrish) <==

   Number of roots    =         1
   Preconditioning    =    JACOBI
   Convergence cutoff =     1E-06
   Maximum iterations =       100

  ==> CPHFRHamiltonian (by Rob Parrish) <== 

  ==> MemDFJK: Density-Fitted J/K Matrices <==

    J tasked:                   Yes
    K tasked:                   Yes
    wK tasked:                   No
    OpenMP threads:               1
    Memory [MiB]:               375
    Algorithm:                 Core
    Schwarz Cutoff:           1E-12
    Mask sparsity (%):       0.0000
    Fitting Condition:        1E-10

   => Auxiliary Basis Set <=

  Basis Set: (6-311++G** AUX)
    Blend: AUG-CC-PVTZ-JKFIT
    Number of shells: 58
    Number of basis function: 196
    Number of Cartesian functions: 241
    Spherical Harmonics?: true
    Max angular momentum: 4

  ==> CPHF Iterations <==

  => Iterations <=

             Iter  Converged  Remaining    Residual
  CGR           1          0          1   3.074E-02
  CGR           2          0          1   1.005E-02
  CGR           3          0          1   2.861E-03
  CGR           4          0          1   3.691E-04
  CGR           5          0          1   8.019E-05
  CGR           6          0          1   1.674E-05
  CGR           7          0          1   2.253E-06
  CGR           8          1          0   4.129E-07

    CGRSolver converged.

  ==> DFCorrGrad: Density-Fitted Correlated Gradients <==

    OpenMP threads:              1
    Integrals threads:           1
    Memory [GiB]:            0.366
    Schwarz Cutoff:          0E+00
    Fitting Condition:       1E-10

   => Auxiliary Basis Set <=

  Basis Set: (6-311++G** AUX)
    Blend: AUG-CC-PVTZ-JKFIT
    Number of shells: 58
    Number of basis function: 196
    Number of Cartesian functions: 241
    Spherical Harmonics?: true
    Max angular momentum: 4

	-----------------------------------------------------------
	 ==================> DF-MP2 Energies <==================== 
	-----------------------------------------------------------
	 Reference Energy          =     -76.0518356380921432 [Eh]
	 Singles Energy            =      -0.0000000000000000 [Eh]
	 Same-Spin Energy          =      -0.0588128728211976 [Eh]
	 Opposite-Spin Energy      =      -0.1831406313911116 [Eh]
	 Correlation Energy        =      -0.2419535042123093 [Eh]
	 Total Energy              =     -76.2937891423044476 [Eh]
	-----------------------------------------------------------
	 ================> DF-SCS-MP2 Energies <================== 
	-----------------------------------------------------------
	 SCS Same-Spin Scale       =       0.3333333333333333 [-]
	 SCS Opposite-Spin Scale   =       1.2000000000000000 [-]
	 SCS Same-Spin Energy      =      -0.0196042909403992 [Eh]
	 SCS Opposite-Spin Energy  =      -0.2197687576693339 [Eh]
	 SCS Correlation Energy    =      -0.2393730486097331 [Eh]
	 SCS Total Energy          =     -76.2912086867018786 [Eh]
	-----------------------------------------------------------


  -Total Gradient:
     Atom            X                  Y                   Z
    ------   -----------------  -----------------  -----------------
       1        0.000000000000    -0.000000000000    -0.010826953678
       2        0.003001196830     0.000000000000     0.005413476839
       3       -0.003001196830    -0.000000000000     0.005413476839


*** tstop() called on atlantis at Tue Apr 19 00:11:55 2022
Module time:
	user time   =       0.34 seconds =       0.01 minutes
	system time =       0.00 seconds =       0.00 minutes
	total time  =          0 seconds =       0.00 minutes
Total time:
	user time   =       2.49 seconds =       0.04 minutes
	system time =       0.03 seconds =       0.00 minutes
	total time  =          2 seconds =       0.03 minutes

  //>>>>>>>>>>>>>>>>>>>>>>>>>>>>>>>>>>>//
  //    Loading displacement 3 of 6    //
  //<<<<<<<<<<<<<<<<<<<<<<<<<<<<<<<<<<<//
gradient() will perform analytic gradient computation.
    SCF Algorithm Type (re)set to DF.

*** tstart() called on atlantis
*** at Tue Apr 19 00:11:55 2022

   => Loading Basis Set <=

    Name: 6-311++G**
    Role: ORBITAL
    Keyword: BASIS
    atoms 1   entry O          line   161 file /home/akrom/software/anaconda3/envs/ffpenv/share/psi4/basis/6-311ppgss.gbs 
    atoms 2-3 entry H          line    42 file /home/akrom/software/anaconda3/envs/ffpenv/share/psi4/basis/6-311ppgss.gbs 


         ---------------------------------------------------------
                                   SCF
               by Justin Turney, Rob Parrish, Andy Simmonett
                          and Daniel G. A. Smith
                              RHF Reference
                        1 Threads,    500 MiB Core
         ---------------------------------------------------------

  ==> Geometry <==

    Molecular point group: c2v
    Full point group: C2v

    Geometry (in Angstrom), charge = 0, multiplicity = 1:

       Center              X                  Y                   Z               Mass       
    ------------   -----------------  -----------------  -----------------  -----------------
         O            0.000000000000     0.000000000000    -0.067747938253    15.994914619570
         H            0.749030000000     0.000000000000     0.537604471688     1.007825032230
         H           -0.749030000000    -0.000000000000     0.537604471688     1.007825032230

  Running in c2v symmetry.

  Rotational constants: A =     25.69864  B =     14.90675  C =      9.43429 [cm^-1]
  Rotational constants: A = 770425.97106  B = 446893.08836  C = 282833.03288 [MHz]
  Nuclear repulsion =    9.144777407102437

  Charge       = 0
  Multiplicity = 1
  Electrons    = 10
  Nalpha       = 5
  Nbeta        = 5

  ==> Algorithm <==

  SCF Algorithm Type is DF.
  DIIS enabled.
  MOM disabled.
  Fractional occupation disabled.
  Guess Type is SAD.
  Energy threshold   = 1.00e-10
  Density threshold  = 1.00e-10
  Integral threshold = 0.00e+00

  ==> Primary Basis <==

  Basis Set: 6-311++G**
    Blend: 6-311++G**
    Number of shells: 20
    Number of basis function: 36
    Number of Cartesian functions: 37
    Spherical Harmonics?: true
    Max angular momentum: 2

   => Loading Basis Set <=

    Name: (6-311++G** AUX)
    Role: JKFIT
    Keyword: DF_BASIS_SCF
    atoms 1   entry O          line   286 file /home/akrom/software/anaconda3/envs/ffpenv/share/psi4/basis/aug-cc-pvtz-jkfit.gbs 
    atoms 2-3 entry H          line    70 file /home/akrom/software/anaconda3/envs/ffpenv/share/psi4/basis/aug-cc-pvtz-jkfit.gbs 

  ==> Pre-Iterations <==

   -------------------------------------------------------
    Irrep   Nso     Nmo     Nalpha   Nbeta   Ndocc  Nsocc
   -------------------------------------------------------
     A1        17      17       0       0       0       0
     A2         2       2       0       0       0       0
     B1        11      11       0       0       0       0
     B2         6       6       0       0       0       0
   -------------------------------------------------------
    Total      36      36       5       5       5       0
   -------------------------------------------------------

  ==> Integral Setup <==

  DFHelper Memory: AOs need 0.002 GiB; user supplied 0.366 GiB. Using in-core AOs.

  ==> MemDFJK: Density-Fitted J/K Matrices <==

    J tasked:                   Yes
    K tasked:                   Yes
    wK tasked:                   No
    OpenMP threads:               1
    Memory [MiB]:               375
    Algorithm:                 Core
    Schwarz Cutoff:           1E-12
    Mask sparsity (%):       0.0000
    Fitting Condition:        1E-10

   => Auxiliary Basis Set <=

  Basis Set: (6-311++G** AUX)
    Blend: AUG-CC-PVTZ-JKFIT
    Number of shells: 58
    Number of basis function: 196
    Number of Cartesian functions: 241
    Spherical Harmonics?: true
    Max angular momentum: 4

  Minimum eigenvalue in the overlap matrix is 3.3929886531E-03.
  Using Symmetric Orthogonalization.

  SCF Guess: Superposition of Atomic Densities via on-the-fly atomic UHF.

  ==> Iterations <==

                           Total Energy        Delta E     RMS |[F,P]|

   @DF-RHF iter SAD:   -75.46672808364387   -7.54667e+01   0.00000e+00 
   @DF-RHF iter   1:   -75.96585400203811   -4.99126e-01   2.21227e-02 DIIS
   @DF-RHF iter   2:   -76.02080730744491   -5.49533e-02   1.47302e-02 DIIS
   @DF-RHF iter   3:   -76.05170607467629   -3.08988e-02   1.05861e-03 DIIS
   @DF-RHF iter   4:   -76.05209794819305   -3.91874e-04   2.40924e-04 DIIS
   @DF-RHF iter   5:   -76.05212061208096   -2.26639e-05   4.78229e-05 DIIS
   @DF-RHF iter   6:   -76.05212198210280   -1.37002e-06   1.10934e-05 DIIS
   @DF-RHF iter   7:   -76.05212206768114   -8.55783e-08   1.55172e-06 DIIS
   @DF-RHF iter   8:   -76.05212206901024   -1.32910e-09   2.79562e-07 DIIS
   @DF-RHF iter   9:   -76.05212206905001   -3.97762e-11   7.26089e-08 DIIS
   @DF-RHF iter  10:   -76.05212206905266   -2.64322e-12   9.19284e-09 DIIS
   @DF-RHF iter  11:   -76.05212206905279   -1.27898e-13   1.75077e-09 DIIS
   @DF-RHF iter  12:   -76.05212206905273    5.68434e-14   2.64248e-10 DIIS
   @DF-RHF iter  13:   -76.05212206905266    7.10543e-14   3.43220e-11 DIIS
  Energy and wave function converged.


  ==> Post-Iterations <==

    Orbital Energies [Eh]
    ---------------------

    Doubly Occupied:                                                      

       1A1   -20.568698     2A1    -1.354295     1B1    -0.712681  
       3A1    -0.587891     1B2    -0.510381  

    Virtual:                                                              

       4A1     0.042654     2B1     0.072363     5A1     0.242063  
       2B2     0.245464     6A1     0.248117     3B1     0.258347  
       4B1     0.319394     7A1     0.325145     5B1     0.675254  
       8A1     0.739538     9A1     1.200493     3B2     1.243754  
       6B1     1.250059    10A1     1.437061     1A2     1.512385  
      11A1     1.609585     4B2     1.699426     7B1     1.946167  
       8B1     2.285314    12A1     2.451814    13A1     2.706341  
       9B1     2.888902     5B2     3.491475     2A2     3.522255  
      14A1     3.706261    15A1     4.067127    10B1     4.338551  
       6B2     5.488739    16A1     5.886234    11B1     6.165259  
      17A1    51.562977  

    Final Occupation by Irrep:
             A1    A2    B1    B2 
    DOCC [     3,    0,    1,    1 ]

  @DF-RHF Final Energy:   -76.05212206905266

   => Energetics <=

    Nuclear Repulsion Energy =              9.1447774071024366
    One-Electron Energy =                -122.9259091308057634
    Two-Electron Energy =                  37.7290096546506746
    Total Energy =                        -76.0521220690526434

Computation Completed


Properties will be evaluated at   0.000000,   0.000000,   0.000000 [a0]

Properties computed using the SCF density matrix

  Nuclear Dipole Moment: [e a0]
     X:     0.0000      Y:     0.0000      Z:     1.0077

  Electronic Dipole Moment: [e a0]
     X:     0.0000      Y:     0.0000      Z:    -0.1102

  Dipole Moment: [e a0]
     X:     0.0000      Y:     0.0000      Z:     0.8974     Total:     0.8974

  Dipole Moment: [D]
     X:     0.0000      Y:     0.0000      Z:     2.2810     Total:     2.2810


*** tstop() called on atlantis at Tue Apr 19 00:11:55 2022
Module time:
	user time   =       0.27 seconds =       0.00 minutes
	system time =       0.00 seconds =       0.00 minutes
	total time  =          0 seconds =       0.00 minutes
Total time:
	user time   =       2.76 seconds =       0.05 minutes
	system time =       0.03 seconds =       0.00 minutes
	total time  =          2 seconds =       0.03 minutes

*** tstart() called on atlantis
*** at Tue Apr 19 00:11:55 2022


  //>>>>>>>>>>>>>>>>>>>>>>>>>>>>>>>>>>>//
  //               DFMP2               //
  //<<<<<<<<<<<<<<<<<<<<<<<<<<<<<<<<<<<//

   => Loading Basis Set <=

    Name: (6-311++G** AUX)
    Role: RIFIT
    Keyword: DF_BASIS_MP2
    atoms 1   entry O          line   264 file /home/akrom/software/anaconda3/envs/ffpenv/share/psi4/basis/aug-cc-pvtz-ri.gbs 
    atoms 2-3 entry H          line    30 file /home/akrom/software/anaconda3/envs/ffpenv/share/psi4/basis/aug-cc-pvtz-ri.gbs 

	 --------------------------------------------------------
	                          DF-MP2                         
	      2nd-Order Density-Fitted Moller-Plesset Theory     
	              RMP2 Wavefunction,   1 Threads             
	                                                         
	        Rob Parrish, Justin Turney, Andy Simmonett,      
	           Ed Hohenstein, and C. David Sherrill          
	 --------------------------------------------------------

   => Auxiliary Basis Set <=

  Basis Set: (6-311++G** AUX)
    Blend: AUG-CC-PVTZ-RI
    Number of shells: 56
    Number of basis function: 198
    Number of Cartesian functions: 246
    Spherical Harmonics?: true
    Max angular momentum: 4

	 --------------------------------------------------------
	                 NBF =    36, NAUX =   198
	 --------------------------------------------------------
	   CLASS    FOCC     OCC    AOCC    AVIR     VIR    FVIR
	   PAIRS       0       5       5      31      31       0
	 --------------------------------------------------------

  DFHelper Memory: AOs need 0.002 GiB; user supplied 0.366 GiB. Using in-core AOs.


         ------------------------------------------------------------
                                     CPHF                           
                                  Rob Parrish                       
         ------------------------------------------------------------

  ==> Geometry <==

    Molecular point group: c2v
    Full point group: C2v

    Geometry (in Angstrom), charge = 0, multiplicity = 1:

       Center              X                  Y                   Z               Mass       
    ------------   -----------------  -----------------  -----------------  -----------------
         O            0.000000000000     0.000000000000    -0.067747938253    15.994914619570
         H            0.749030000000     0.000000000000     0.537604471688     1.007825032230
         H           -0.749030000000    -0.000000000000     0.537604471688     1.007825032230

  Nuclear repulsion =    9.144777407102437
  Reference energy  =  -76.052122069052658

  ==> Basis Set <==

  Basis Set: 6-311++G**
    Blend: 6-311++G**
    Number of shells: 20
    Number of basis function: 36
    Number of Cartesian functions: 37
    Spherical Harmonics?: true
    Max angular momentum: 2

  ==> CGRSolver (by Rob Parrish) <==

   Number of roots    =         1
   Preconditioning    =    JACOBI
   Convergence cutoff =     1E-06
   Maximum iterations =       100

  ==> CPHFRHamiltonian (by Rob Parrish) <== 

  ==> MemDFJK: Density-Fitted J/K Matrices <==

    J tasked:                   Yes
    K tasked:                   Yes
    wK tasked:                   No
    OpenMP threads:               1
    Memory [MiB]:               375
    Algorithm:                 Core
    Schwarz Cutoff:           1E-12
    Mask sparsity (%):       0.0000
    Fitting Condition:        1E-10

   => Auxiliary Basis Set <=

  Basis Set: (6-311++G** AUX)
    Blend: AUG-CC-PVTZ-JKFIT
    Number of shells: 58
    Number of basis function: 196
    Number of Cartesian functions: 241
    Spherical Harmonics?: true
    Max angular momentum: 4

  ==> CPHF Iterations <==

  => Iterations <=

             Iter  Converged  Remaining    Residual
  CGR           1          0          1   3.054E-02
  CGR           2          0          1   9.913E-03
  CGR           3          0          1   2.842E-03
  CGR           4          0          1   3.648E-04
  CGR           5          0          1   8.040E-05
  CGR           6          0          1   1.686E-05
  CGR           7          0          1   2.244E-06
  CGR           8          1          0   4.101E-07

    CGRSolver converged.

  ==> DFCorrGrad: Density-Fitted Correlated Gradients <==

    OpenMP threads:              1
    Integrals threads:           1
    Memory [GiB]:            0.366
    Schwarz Cutoff:          0E+00
    Fitting Condition:       1E-10

   => Auxiliary Basis Set <=

  Basis Set: (6-311++G** AUX)
    Blend: AUG-CC-PVTZ-JKFIT
    Number of shells: 58
    Number of basis function: 196
    Number of Cartesian functions: 241
    Spherical Harmonics?: true
    Max angular momentum: 4

	-----------------------------------------------------------
	 ==================> DF-MP2 Energies <==================== 
	-----------------------------------------------------------
	 Reference Energy          =     -76.0521220690526576 [Eh]
	 Singles Energy            =      -0.0000000000000000 [Eh]
	 Same-Spin Energy          =      -0.0587707760674931 [Eh]
	 Opposite-Spin Energy      =      -0.1829640103900078 [Eh]
	 Correlation Energy        =      -0.2417347864575009 [Eh]
	 Total Energy              =     -76.2938568555101568 [Eh]
	-----------------------------------------------------------
	 ================> DF-SCS-MP2 Energies <================== 
	-----------------------------------------------------------
	 SCS Same-Spin Scale       =       0.3333333333333333 [-]
	 SCS Opposite-Spin Scale   =       1.2000000000000000 [-]
	 SCS Same-Spin Energy      =      -0.0195902586891644 [Eh]
	 SCS Opposite-Spin Energy  =      -0.2195568124680094 [Eh]
	 SCS Correlation Energy    =      -0.2391470711571737 [Eh]
	 SCS Total Energy          =     -76.2912691402098346 [Eh]
	-----------------------------------------------------------


  -Total Gradient:
     Atom            X                  Y                   Z
    ------   -----------------  -----------------  -----------------
       1        0.000000000000    -0.000000000000    -0.007287618286
       2        0.001473274827     0.000000000000     0.003643809143
       3       -0.001473274827    -0.000000000000     0.003643809143


*** tstop() called on atlantis at Tue Apr 19 00:11:56 2022
Module time:
	user time   =       0.34 seconds =       0.01 minutes
	system time =       0.00 seconds =       0.00 minutes
	total time  =          1 seconds =       0.02 minutes
Total time:
	user time   =       3.10 seconds =       0.05 minutes
	system time =       0.03 seconds =       0.00 minutes
	total time  =          3 seconds =       0.05 minutes

  //>>>>>>>>>>>>>>>>>>>>>>>>>>>>>>>>>>>//
  //    Loading displacement 4 of 6    //
  //<<<<<<<<<<<<<<<<<<<<<<<<<<<<<<<<<<<//
gradient() will perform analytic gradient computation.
    SCF Algorithm Type (re)set to DF.

*** tstart() called on atlantis
*** at Tue Apr 19 00:11:56 2022

   => Loading Basis Set <=

    Name: 6-311++G**
    Role: ORBITAL
    Keyword: BASIS
    atoms 1   entry O          line   161 file /home/akrom/software/anaconda3/envs/ffpenv/share/psi4/basis/6-311ppgss.gbs 
    atoms 2-3 entry H          line    42 file /home/akrom/software/anaconda3/envs/ffpenv/share/psi4/basis/6-311ppgss.gbs 


         ---------------------------------------------------------
                                   SCF
               by Justin Turney, Rob Parrish, Andy Simmonett
                          and Daniel G. A. Smith
                              RHF Reference
                        1 Threads,    500 MiB Core
         ---------------------------------------------------------

  ==> Geometry <==

    Molecular point group: c2v
    Full point group: C2v

    Geometry (in Angstrom), charge = 0, multiplicity = 1:

       Center              X                  Y                   Z               Mass       
    ------------   -----------------  -----------------  -----------------  -----------------
         O            0.000000000000     0.000000000000    -0.067969259994    15.994914619570
         H            0.747166353368     0.000000000000     0.539360740006     1.007825032230
         H           -0.747166353368    -0.000000000000     0.539360740006     1.007825032230

  Running in c2v symmetry.

  Rotational constants: A =     25.53156  B =     14.98121  C =      9.44131 [cm^-1]
  Rotational constants: A = 765416.81232  B = 449125.22710  C = 283043.31057 [MHz]
  Nuclear repulsion =    9.147508349681694

  Charge       = 0
  Multiplicity = 1
  Electrons    = 10
  Nalpha       = 5
  Nbeta        = 5

  ==> Algorithm <==

  SCF Algorithm Type is DF.
  DIIS enabled.
  MOM disabled.
  Fractional occupation disabled.
  Guess Type is SAD.
  Energy threshold   = 1.00e-10
  Density threshold  = 1.00e-10
  Integral threshold = 0.00e+00

  ==> Primary Basis <==

  Basis Set: 6-311++G**
    Blend: 6-311++G**
    Number of shells: 20
    Number of basis function: 36
    Number of Cartesian functions: 37
    Spherical Harmonics?: true
    Max angular momentum: 2

   => Loading Basis Set <=

    Name: (6-311++G** AUX)
    Role: JKFIT
    Keyword: DF_BASIS_SCF
    atoms 1   entry O          line   286 file /home/akrom/software/anaconda3/envs/ffpenv/share/psi4/basis/aug-cc-pvtz-jkfit.gbs 
    atoms 2-3 entry H          line    70 file /home/akrom/software/anaconda3/envs/ffpenv/share/psi4/basis/aug-cc-pvtz-jkfit.gbs 

  ==> Pre-Iterations <==

   -------------------------------------------------------
    Irrep   Nso     Nmo     Nalpha   Nbeta   Ndocc  Nsocc
   -------------------------------------------------------
     A1        17      17       0       0       0       0
     A2         2       2       0       0       0       0
     B1        11      11       0       0       0       0
     B2         6       6       0       0       0       0
   -------------------------------------------------------
    Total      36      36       5       5       5       0
   -------------------------------------------------------

  ==> Integral Setup <==

  DFHelper Memory: AOs need 0.002 GiB; user supplied 0.366 GiB. Using in-core AOs.

  ==> MemDFJK: Density-Fitted J/K Matrices <==

    J tasked:                   Yes
    K tasked:                   Yes
    wK tasked:                   No
    OpenMP threads:               1
    Memory [MiB]:               375
    Algorithm:                 Core
    Schwarz Cutoff:           1E-12
    Mask sparsity (%):       0.0000
    Fitting Condition:        1E-10

   => Auxiliary Basis Set <=

  Basis Set: (6-311++G** AUX)
    Blend: AUG-CC-PVTZ-JKFIT
    Number of shells: 58
    Number of basis function: 196
    Number of Cartesian functions: 241
    Spherical Harmonics?: true
    Max angular momentum: 4

  Minimum eigenvalue in the overlap matrix is 3.3730918591E-03.
  Using Symmetric Orthogonalization.

  SCF Guess: Superposition of Atomic Densities via on-the-fly atomic UHF.

  ==> Iterations <==

                           Total Energy        Delta E     RMS |[F,P]|

   @DF-RHF iter SAD:   -75.46730691557516   -7.54673e+01   0.00000e+00 
   @DF-RHF iter   1:   -75.96577721975785   -4.98470e-01   2.21249e-02 DIIS
   @DF-RHF iter   2:   -76.02075669695961   -5.49795e-02   1.47324e-02 DIIS
   @DF-RHF iter   3:   -76.05166384239008   -3.09071e-02   1.05854e-03 DIIS
   @DF-RHF iter   4:   -76.05205498114151   -3.91139e-04   2.40812e-04 DIIS
   @DF-RHF iter   5:   -76.05207758824282   -2.26071e-05   4.78032e-05 DIIS
   @DF-RHF iter   6:   -76.05207895353870   -1.36530e-06   1.10830e-05 DIIS
   @DF-RHF iter   7:   -76.05207903869328   -8.51546e-08   1.54055e-06 DIIS
   @DF-RHF iter   8:   -76.05207903999592   -1.30264e-09   2.76855e-07 DIIS
   @DF-RHF iter   9:   -76.05207904003464   -3.87246e-11   7.17179e-08 DIIS
   @DF-RHF iter  10:   -76.05207904003726   -2.61480e-12   9.12403e-09 DIIS
   @DF-RHF iter  11:   -76.05207904003731   -5.68434e-14   1.74199e-09 DIIS
   @DF-RHF iter  12:   -76.05207904003723    8.52651e-14   2.63281e-10 DIIS
   @DF-RHF iter  13:   -76.05207904003728   -5.68434e-14   3.37889e-11 DIIS
  Energy and wave function converged.


  ==> Post-Iterations <==

    Orbital Energies [Eh]
    ---------------------

    Doubly Occupied:                                                      

       1A1   -20.568800     2A1    -1.354637     1B1    -0.712139  
       3A1    -0.588572     1B2    -0.510493  

    Virtual:                                                              

       4A1     0.042621     2B1     0.072391     5A1     0.242039  
       2B2     0.245447     6A1     0.248283     3B1     0.258266  
       4B1     0.319474     7A1     0.325251     5B1     0.674738  
       8A1     0.740495     9A1     1.200475     3B2     1.243703  
       6B1     1.250409    10A1     1.432892     1A2     1.513587  
      11A1     1.609052     4B2     1.697592     7B1     1.948819  
       8B1     2.284283    12A1     2.452835    13A1     2.705740  
       9B1     2.890108     5B2     3.493222     2A2     3.521313  
      14A1     3.706420    15A1     4.065560    10B1     4.340395  
       6B2     5.488671    16A1     5.888604    11B1     6.163340  
      17A1    51.562989  

    Final Occupation by Irrep:
             A1    A2    B1    B2 
    DOCC [     3,    0,    1,    1 ]

  @DF-RHF Final Energy:   -76.05207904003728

   => Energetics <=

    Nuclear Repulsion Energy =              9.1475083496816936
    One-Electron Energy =                -122.9298939292503832
    Two-Electron Energy =                  37.7303065395313979
    Total Energy =                        -76.0520790400372846

Computation Completed


Properties will be evaluated at   0.000000,   0.000000,   0.000000 [a0]

Properties computed using the SCF density matrix

  Nuclear Dipole Moment: [e a0]
     X:     0.0000      Y:     0.0000      Z:     1.0109

  Electronic Dipole Moment: [e a0]
     X:     0.0000      Y:     0.0000      Z:    -0.1118

  Dipole Moment: [e a0]
     X:     0.0000      Y:     0.0000      Z:     0.8992     Total:     0.8992

  Dipole Moment: [D]
     X:     0.0000      Y:     0.0000      Z:     2.2854     Total:     2.2854


*** tstop() called on atlantis at Tue Apr 19 00:11:56 2022
Module time:
	user time   =       0.27 seconds =       0.00 minutes
	system time =       0.00 seconds =       0.00 minutes
	total time  =          0 seconds =       0.00 minutes
Total time:
	user time   =       3.37 seconds =       0.06 minutes
	system time =       0.03 seconds =       0.00 minutes
	total time  =          3 seconds =       0.05 minutes

*** tstart() called on atlantis
*** at Tue Apr 19 00:11:56 2022


  //>>>>>>>>>>>>>>>>>>>>>>>>>>>>>>>>>>>//
  //               DFMP2               //
  //<<<<<<<<<<<<<<<<<<<<<<<<<<<<<<<<<<<//

   => Loading Basis Set <=

    Name: (6-311++G** AUX)
    Role: RIFIT
    Keyword: DF_BASIS_MP2
    atoms 1   entry O          line   264 file /home/akrom/software/anaconda3/envs/ffpenv/share/psi4/basis/aug-cc-pvtz-ri.gbs 
[...]
  Density threshold  = 1.00e-10
  Integral threshold = 0.00e+00

  ==> Primary Basis <==

  Basis Set: 6-311++G**
    Blend: 6-311++G**
    Number of shells: 20
    Number of basis function: 36
    Number of Cartesian functions: 37
    Spherical Harmonics?: true
    Max angular momentum: 2

   => Loading Basis Set <=

    Name: (6-311++G** AUX)
    Role: JKFIT
    Keyword: DF_BASIS_SCF
    atoms 1   entry O          line   286 file /home/akrom/software/anaconda3/envs/ffpenv/share/psi4/basis/aug-cc-pvtz-jkfit.gbs 
    atoms 2-3 entry H          line    70 file /home/akrom/software/anaconda3/envs/ffpenv/share/psi4/basis/aug-cc-pvtz-jkfit.gbs 

  ==> Pre-Iterations <==

   -------------------------------------------------------
    Irrep   Nso     Nmo     Nalpha   Nbeta   Ndocc  Nsocc
   -------------------------------------------------------
     A'        28      28       0       0       0       0
     A"         8       8       0       0       0       0
   -------------------------------------------------------
    Total      36      36       5       5       5       0
   -------------------------------------------------------

  ==> Integral Setup <==

  DFHelper Memory: AOs need 0.002 GiB; user supplied 0.366 GiB. Using in-core AOs.

  ==> MemDFJK: Density-Fitted J/K Matrices <==

    J tasked:                   Yes
    K tasked:                   Yes
    wK tasked:                   No
    OpenMP threads:               1
    Memory [MiB]:               375
    Algorithm:                 Core
    Schwarz Cutoff:           1E-12
    Mask sparsity (%):       0.0000
    Fitting Condition:        1E-10

   => Auxiliary Basis Set <=

  Basis Set: (6-311++G** AUX)
    Blend: AUG-CC-PVTZ-JKFIT
    Number of shells: 58
    Number of basis function: 196
    Number of Cartesian functions: 241
    Spherical Harmonics?: true
    Max angular momentum: 4

  Minimum eigenvalue in the overlap matrix is 3.4006002206E-03.
  Using Symmetric Orthogonalization.

  SCF Guess: Superposition of Atomic Densities via on-the-fly atomic UHF.

  ==> Iterations <==

                           Total Energy        Delta E     RMS |[F,P]|

   @DF-RHF iter SAD:   -75.46549044316284   -7.54655e+01   0.00000e+00 
   @DF-RHF iter   1:   -75.96562264683487   -5.00132e-01   1.61127e-02 DIIS
   @DF-RHF iter   2:   -76.02055439997302   -5.49318e-02   1.07451e-02 DIIS
   @DF-RHF iter   3:   -76.05155735468071   -3.10030e-02   7.72387e-04 DIIS
   @DF-RHF iter   4:   -76.05195075456697   -3.93400e-04   1.76293e-04 DIIS
   @DF-RHF iter   5:   -76.05197366708863   -2.29125e-05   3.50555e-05 DIIS
   @DF-RHF iter   6:   -76.05197505615071   -1.38906e-06   8.13068e-06 DIIS
   @DF-RHF iter   7:   -76.05197514271660   -8.65659e-08   1.12986e-06 DIIS
   @DF-RHF iter   8:   -76.05197514404045   -1.32385e-09   2.04064e-07 DIIS
   @DF-RHF iter   9:   -76.05197514408049   -4.00320e-11   5.30340e-08 DIIS
   @DF-RHF iter  10:   -76.05197514408310   -2.61480e-12   6.73307e-09 DIIS
   @DF-RHF iter  11:   -76.05197514408304    5.68434e-14   1.28835e-09 DIIS
   @DF-RHF iter  12:   -76.05197514408299    5.68434e-14   1.96829e-10 DIIS
   @DF-RHF iter  13:   -76.05197514408319   -1.98952e-13   2.59197e-11 DIIS
  Energy and wave function converged.


  ==> Post-Iterations <==

    Orbital Energies [Eh]
    ---------------------

    Doubly Occupied:                                                      

       1Ap   -20.568999     2Ap    -1.353794     3Ap    -0.711654  
       4Ap    -0.588015     1App   -0.510340  

    Virtual:                                                              

       5Ap     0.042597     6Ap     0.072361     7Ap     0.242119  
       2App    0.245473     8Ap     0.247841     9Ap     0.258098  
      10Ap     0.319416    11Ap     0.325306    12Ap     0.674139  
      13Ap     0.739096    14Ap     1.200728     3App    1.243731  
      15Ap     1.250367    16Ap     1.435063     4App    1.512730  
      17Ap     1.609987     5App    1.698118    18Ap     1.946228  
      19Ap     2.282442    20Ap     2.449731    21Ap     2.706606  
      22Ap     2.890261     6App    3.491034     7App    3.520521  
      23Ap     3.704434    24Ap     4.065216    25Ap     4.337854  
       8App    5.488563    26Ap     5.885635    27Ap     6.160204  
      28Ap    51.561589  

    Final Occupation by Irrep:
             Ap   App 
    DOCC [     4,    1 ]

  @DF-RHF Final Energy:   -76.05197514408319

   => Energetics <=

    Nuclear Repulsion Energy =              9.1334682877742281
    One-Electron Energy =                -122.9052812048370811
    Two-Electron Energy =                  37.7198377729796661
    Total Energy =                        -76.0519751440831726

Computation Completed


Properties will be evaluated at   0.000000,   0.000000,   0.000000 [a0]

Properties computed using the SCF density matrix

  Nuclear Dipole Moment: [e a0]
     X:     0.0026      Y:     0.0000      Z:     1.0109

  Electronic Dipole Moment: [e a0]
     X:    -0.0013      Y:     0.0000      Z:    -0.1120

  Dipole Moment: [e a0]
     X:     0.0013      Y:     0.0000      Z:     0.8990     Total:     0.8990

  Dipole Moment: [D]
     X:     0.0033      Y:     0.0000      Z:     2.2849     Total:     2.2849


*** tstop() called on atlantis at Tue Apr 19 00:11:57 2022
Module time:
	user time   =       0.26 seconds =       0.00 minutes
	system time =       0.00 seconds =       0.00 minutes
	total time  =          0 seconds =       0.00 minutes
Total time:
	user time   =       4.60 seconds =       0.08 minutes
	system time =       0.04 seconds =       0.00 minutes
	total time  =          4 seconds =       0.07 minutes

*** tstart() called on atlantis
*** at Tue Apr 19 00:11:57 2022


  //>>>>>>>>>>>>>>>>>>>>>>>>>>>>>>>>>>>//
  //               DFMP2               //
  //<<<<<<<<<<<<<<<<<<<<<<<<<<<<<<<<<<<//

   => Loading Basis Set <=

    Name: (6-311++G** AUX)
    Role: RIFIT
    Keyword: DF_BASIS_MP2
    atoms 1   entry O          line   264 file /home/akrom/software/anaconda3/envs/ffpenv/share/psi4/basis/aug-cc-pvtz-ri.gbs 
    atoms 2-3 entry H          line    30 file /home/akrom/software/anaconda3/envs/ffpenv/share/psi4/basis/aug-cc-pvtz-ri.gbs 

	 --------------------------------------------------------
	                          DF-MP2                         
	      2nd-Order Density-Fitted Moller-Plesset Theory     
	              RMP2 Wavefunction,   1 Threads             
	                                                         
	        Rob Parrish, Justin Turney, Andy Simmonett,      
	           Ed Hohenstein, and C. David Sherrill          
	 --------------------------------------------------------

   => Auxiliary Basis Set <=

  Basis Set: (6-311++G** AUX)
    Blend: AUG-CC-PVTZ-RI
    Number of shells: 56
    Number of basis function: 198
    Number of Cartesian functions: 246
    Spherical Harmonics?: true
    Max angular momentum: 4

	 --------------------------------------------------------
	                 NBF =    36, NAUX =   198
	 --------------------------------------------------------
	   CLASS    FOCC     OCC    AOCC    AVIR     VIR    FVIR
	   PAIRS       0       5       5      31      31       0
	 --------------------------------------------------------

  DFHelper Memory: AOs need 0.002 GiB; user supplied 0.366 GiB. Using in-core AOs.


         ------------------------------------------------------------
                                     CPHF                           
                                  Rob Parrish                       
         ------------------------------------------------------------

  ==> Geometry <==

    Molecular point group: cs
    Full point group: Cs

    Geometry (in Angstrom), charge = 0, multiplicity = 1:

       Center              X                  Y                   Z               Mass       
    ------------   -----------------  -----------------  -----------------  -----------------
         O           -0.000175859669     0.000000000000    -0.067969259994    15.994914619570
         H            0.750425510279     0.000000000000     0.540492250436     1.007825032230
         H           -0.747634489721     0.000000000000     0.538229229576     1.007825032230

  Nuclear repulsion =    9.133468287774228
  Reference energy  =  -76.051975144083187

  ==> Basis Set <==

  Basis Set: 6-311++G**
    Blend: 6-311++G**
    Number of shells: 20
    Number of basis function: 36
    Number of Cartesian functions: 37
    Spherical Harmonics?: true
    Max angular momentum: 2

  ==> CGRSolver (by Rob Parrish) <==

   Number of roots    =         1
   Preconditioning    =    JACOBI
   Convergence cutoff =     1E-06
   Maximum iterations =       100

  ==> CPHFRHamiltonian (by Rob Parrish) <== 

  ==> MemDFJK: Density-Fitted J/K Matrices <==

    J tasked:                   Yes
    K tasked:                   Yes
    wK tasked:                   No
    OpenMP threads:               1
    Memory [MiB]:               375
    Algorithm:                 Core
    Schwarz Cutoff:           1E-12
    Mask sparsity (%):       0.0000
    Fitting Condition:        1E-10

   => Auxiliary Basis Set <=

  Basis Set: (6-311++G** AUX)
    Blend: AUG-CC-PVTZ-JKFIT
    Number of shells: 58
    Number of basis function: 196
    Number of Cartesian functions: 241
    Spherical Harmonics?: true
    Max angular momentum: 4

  ==> CPHF Iterations <==

  => Iterations <=

             Iter  Converged  Remaining    Residual
  CGR           1          0          1   3.064E-02
  CGR           2          0          1   9.982E-03
  CGR           3          0          1   2.851E-03
  CGR           4          0          1   3.670E-04
  CGR           5          0          1   8.032E-05
  CGR           6          0          1   1.681E-05
  CGR           7          0          1   2.249E-06
  CGR           8          1          0   4.125E-07

    CGRSolver converged.

  ==> DFCorrGrad: Density-Fitted Correlated Gradients <==

    OpenMP threads:              1
    Integrals threads:           1
    Memory [GiB]:            0.366
    Schwarz Cutoff:          0E+00
    Fitting Condition:       1E-10

   => Auxiliary Basis Set <=

  Basis Set: (6-311++G** AUX)
    Blend: AUG-CC-PVTZ-JKFIT
    Number of shells: 58
    Number of basis function: 196
    Number of Cartesian functions: 241
    Spherical Harmonics?: true
    Max angular momentum: 4

	-----------------------------------------------------------
	 ==================> DF-MP2 Energies <==================== 
	-----------------------------------------------------------
	 Reference Energy          =     -76.0519751440831868 [Eh]
	 Singles Energy            =      -0.0000000000000000 [Eh]
	 Same-Spin Energy          =      -0.0587917097635081 [Eh]
	 Opposite-Spin Energy      =      -0.1830521424507128 [Eh]
	 Correlation Energy        =      -0.2418438522142209 [Eh]
	 Total Energy              =     -76.2938189962974036 [Eh]
	-----------------------------------------------------------
	 ================> DF-SCS-MP2 Energies <================== 
	-----------------------------------------------------------
	 SCS Same-Spin Scale       =       0.3333333333333333 [-]
	 SCS Opposite-Spin Scale   =       1.2000000000000000 [-]
	 SCS Same-Spin Energy      =      -0.0195972365878360 [Eh]
	 SCS Opposite-Spin Energy  =      -0.2196625709408554 [Eh]
	 SCS Correlation Energy    =      -0.2392598075286914 [Eh]
	 SCS Total Energy          =     -76.2912349516118837 [Eh]
	-----------------------------------------------------------


  -Total Gradient:
     Atom            X                  Y                   Z
    ------   -----------------  -----------------  -----------------
       1       -0.003113851611     0.000000000000    -0.009043681517
       2        0.003788438415     0.000000000000     0.005778115019
       3       -0.000674586804     0.000000000000     0.003265566498


*** tstop() called on atlantis at Tue Apr 19 00:11:58 2022
Module time:
	user time   =       0.34 seconds =       0.01 minutes
	system time =       0.00 seconds =       0.00 minutes
	total time  =          1 seconds =       0.02 minutes
Total time:
	user time   =       4.94 seconds =       0.08 minutes
	system time =       0.04 seconds =       0.00 minutes
	total time  =          5 seconds =       0.08 minutes

         ----------------------------------------------------------
                                   FINDIF
                     R. A. King and Jonathon Misiewicz
         ---------------------------------------------------------

  Computing second-derivative from gradients using projected, 
  symmetry-adapted, cartesian coordinates.

  6 gradients passed in, including the reference geometry.
  Generating complete list of displacements from unique ones.

    Operation 2 takes plus displacements of irrep B1 to minus ones.

-------------------------------------------------------------


  ==> Harmonic Vibrational Analysis <==

  non-mass-weighted Hessian:       Symmetric? True   Hermitian? True   Lin Dep Dim?  6 (0)
  projection of translations (True) and rotations (True) removed 6 degrees of freedom (6)
  total projector:                 Symmetric? True   Hermitian? True   Lin Dep Dim?  6 (6)
  mass-weighted Hessian:           Symmetric? True   Hermitian? True   Lin Dep Dim?  6 (0)
  pre-proj  low-frequency mode:    0.0000i [cm^-1]
  pre-proj  low-frequency mode:    0.0000i [cm^-1]
  pre-proj  low-frequency mode:    0.0000i [cm^-1]
  pre-proj  low-frequency mode:    0.0000i [cm^-1]
  pre-proj  low-frequency mode:    0.0000  [cm^-1]
  pre-proj  low-frequency mode:    0.0000  [cm^-1]
  pre-proj  all modes:['0.0001i' '0.0000i' '0.0000i' '0.0000i' '0.0000' '0.0000' '1659.5766'
 '3824.5190' '3930.8963']
  projected mass-weighted Hessian: Symmetric? True   Hermitian? True   Lin Dep Dim?  6 (6)
  post-proj low-frequency mode:    0.0001i [cm^-1] (TR)
  post-proj low-frequency mode:    0.0000i [cm^-1] (TR)
  post-proj low-frequency mode:    0.0000i [cm^-1] (TR)
  post-proj low-frequency mode:    0.0000  [cm^-1] (TR)
  post-proj low-frequency mode:    0.0000  [cm^-1] (TR)
  post-proj low-frequency mode:    0.0000  [cm^-1] (TR)
  post-proj  all modes:['0.0001i' '0.0000i' '0.0000i' '0.0000' '0.0000' '0.0000' '1659.5766'
 '3824.5190' '3930.8963']

  Vibration                       7                   8                   9           
  Freq [cm^-1]                1659.5766           3824.5190           3930.8963       
  Irrep                           A1                  A1                  B1          
  Reduced mass [u]              1.0807              1.0470              1.0793        
  Force const [mDyne/A]         1.7537              9.0230              9.8258        
  Turning point v=0 [a0]        0.2591              0.1734              0.1685        
  RMS dev v=0 [a0 u^1/2]        0.1905              0.1255              0.1238        
  Char temp [K]               2387.7612           5502.6313           5655.6846       
  ----------------------------------------------------------------------------------
      1   O               -0.00 -0.00 -0.07   -0.00  0.00 -0.05   -0.07  0.00 -0.00   
      2   H               -0.44  0.00  0.55    0.58  0.00  0.41    0.55  0.00  0.44   
      3   H                0.44 -0.00  0.55   -0.58 -0.00  0.41    0.55 -0.00 -0.44   

  ==> Thermochemistry Components <==

  Entropy, S
    Electronic S            0.000 [cal/(mol K)]        0.000 [J/(mol K)]       0.00000000 [mEh/K] (multiplicity = 1)
    Translational S        34.608 [cal/(mol K)]      144.801 [J/(mol K)]       0.05515177 [mEh/K] (mol. weight = 18.0106 [u], P = 101325.00 [Pa])
    Rotational S           10.508 [cal/(mol K)]       43.968 [J/(mol K)]       0.01674635 [mEh/K] (symmetry no. = 2)
    Vibrational S           0.006 [cal/(mol K)]        0.025 [J/(mol K)]       0.00000949 [mEh/K]
  Total S                  45.123 [cal/(mol K)]      188.793 [J/(mol K)]       0.07190762 [mEh/K]
  Correction S              0.000 [cal/(mol K)]        0.000 [J/(mol K)]       0.00000000 [mEh/K]

  Constant volume heat capacity, Cv
    Electronic Cv           0.000 [cal/(mol K)]        0.000 [J/(mol K)]       0.00000000 [mEh/K]
    Translational Cv        2.981 [cal/(mol K)]       12.472 [J/(mol K)]       0.00475022 [mEh/K]
    Rotational Cv           2.981 [cal/(mol K)]       12.472 [J/(mol K)]       0.00475022 [mEh/K]
    Vibrational Cv          0.042 [cal/(mol K)]        0.178 [J/(mol K)]       0.00006762 [mEh/K]
  Total Cv                  6.004 [cal/(mol K)]       25.121 [J/(mol K)]       0.00956805 [mEh/K]
  Correction Cv             0.000 [cal/(mol K)]        0.000 [J/(mol K)]       0.00000000 [mEh/K]

  Constant pressure heat capacity, Cp
    Electronic Cp           0.000 [cal/(mol K)]        0.000 [J/(mol K)]       0.00000000 [mEh/K]
    Translational Cp        4.968 [cal/(mol K)]       20.786 [J/(mol K)]       0.00791703 [mEh/K]
    Rotational Cp           2.981 [cal/(mol K)]       12.472 [J/(mol K)]       0.00475022 [mEh/K]
    Vibrational Cp          0.042 [cal/(mol K)]        0.178 [J/(mol K)]       0.00006762 [mEh/K]
  Total Cp                  7.991 [cal/(mol K)]       33.435 [J/(mol K)]       0.01273486 [mEh/K]
  Correction Cp             0.000 [cal/(mol K)]        0.000 [J/(mol K)]       0.00000000 [mEh/K]

  ==> Thermochemistry Energy Analysis <==

  Raw electronic energy, E0
  Total E0, Electronic energy at well bottom at 0 [K]                  -76.29382631 [Eh]

  Zero-point energy, ZPE_vib = Sum_i nu_i / 2
    Electronic ZPE          0.000 [kcal/mol]        0.000 [kJ/mol]       0.00000000 [Eh]
    Translational ZPE       0.000 [kcal/mol]        0.000 [kJ/mol]       0.00000000 [Eh]
    Rotational ZPE          0.000 [kcal/mol]        0.000 [kJ/mol]       0.00000000 [Eh]
    Vibrational ZPE        13.459 [kcal/mol]       56.314 [kJ/mol]       0.02144893 [Eh]        4707.496 [cm^-1]
  Correction ZPE           13.459 [kcal/mol]       56.314 [kJ/mol]       0.02144893 [Eh]        4707.496 [cm^-1]
  Total ZPE, Electronic energy at 0 [K]                                -76.27237738 [Eh]

  Thermal Energy, E (includes ZPE)
    Electronic E            0.000 [kcal/mol]        0.000 [kJ/mol]       0.00000000 [Eh]
    Translational E         0.889 [kcal/mol]        3.718 [kJ/mol]       0.00141628 [Eh]
    Rotational E            0.889 [kcal/mol]        3.718 [kJ/mol]       0.00141628 [Eh]
    Vibrational E          13.461 [kcal/mol]       56.321 [kJ/mol]       0.02145145 [Eh]
  Correction E             15.238 [kcal/mol]       63.758 [kJ/mol]       0.02428400 [Eh]
  Total E, Electronic energy at  298.15 [K]                            -76.26954231 [Eh]

  Enthalpy, H_trans = E_trans + k_B * T
    Electronic H            0.000 [kcal/mol]        0.000 [kJ/mol]       0.00000000 [Eh]
    Translational H         1.481 [kcal/mol]        6.197 [kJ/mol]       0.00236046 [Eh]
    Rotational H            0.889 [kcal/mol]        3.718 [kJ/mol]       0.00141628 [Eh]
    Vibrational H          13.461 [kcal/mol]       56.321 [kJ/mol]       0.02145145 [Eh]
  Correction H             15.831 [kcal/mol]       66.237 [kJ/mol]       0.02522818 [Eh]
  Total H, Enthalpy at  298.15 [K]                                     -76.26859812 [Eh]

  Gibbs free energy, G = H - T * S
    Electronic G            0.000 [kcal/mol]        0.000 [kJ/mol]       0.00000000 [Eh]
    Translational G        -8.837 [kcal/mol]      -36.975 [kJ/mol]      -0.01408304 [Eh]
    Rotational G           -2.244 [kcal/mol]       -9.390 [kJ/mol]      -0.00357665 [Eh]
    Vibrational G          13.459 [kcal/mol]       56.313 [kJ/mol]       0.02144862 [Eh]
  Correction G              2.378 [kcal/mol]        9.948 [kJ/mol]       0.00378893 [Eh]
  Total G, Free enthalpy at  298.15 [K]                                -76.29003738 [Eh]

    Psi4 stopped on: Tuesday, 19 April 2022 12:11AM
    Psi4 wall time for execution: 0:00:05.10

*** Psi4 exiting successfully. Buy a developer a beer!
