
    -----------------------------------------------------------------------
          Psi4: An Open-Source Ab Initio Electronic Structure Package
                               Psi4 1.3.2 release

                         Git: Rev {HEAD} ecbda83 


    R. M. Parrish, L. A. Burns, D. G. A. Smith, A. C. Simmonett,
    A. E. DePrince III, E. G. Hohenstein, U. Bozkaya, A. Yu. Sokolov,
    R. Di Remigio, R. M. Richard, J. F. Gonthier, A. M. James,
    H. R. McAlexander, A. Kumar, M. Saitow, X. Wang, B. P. Pritchard,
    P. Verma, H. F. Schaefer III, K. Patkowski, R. A. King, E. F. Valeev,
    F. A. Evangelista, J. M. Turney, T. D. Crawford, and C. D. Sherrill,
    J. Chem. Theory Comput. 13(7) pp 3185--3197 (2017).
    (doi: 10.1021/acs.jctc.7b00174)


                         Additional Contributions by
    P. Kraus, H. Kruse, M. H. Lechner, M. C. Schieber, R. A. Shaw,
    A. Alenaizan, R. Galvelis, Z. L. Glick, S. Lehtola, and J. P. Misiewicz

    -----------------------------------------------------------------------


    Psi4 started on: Wednesday, 20 April 2022 12:43AM

    Process ID: 12203
    Host:       atlantis
    PSIDATADIR: /home/akrom/software/anaconda3/envs/ffpenv/share/psi4
    Memory:     500.0 MiB
    Threads:    1
    
  ==> Input File <==

--------------------------------------------------------------------------
set basis  6-31G
molecule {
0 1
   C       -1.22151       -0.69325        0.00000
   C       -1.21114        0.71122        0.00000
   C       -0.01037       -1.40452        0.00000
   C        0.01037        1.40452        0.00000
   C        1.21114       -0.71122        0.00000
   C        1.22151        0.69325        0.00000
   H       -2.17311       -1.23332        0.00000
   H       -2.15464        1.26533        0.00000
   H       -0.01848       -2.49865        0.00000
   H        0.01848        2.49865        0.00000
   H        2.15464       -1.26533        0.00000
   H        2.17311        1.23332        0.00000
}
energy('B3LYP')
frequencies('B3LYP')
--------------------------------------------------------------------------

*** tstart() called on atlantis
*** at Wed Apr 20 00:43:36 2022

   => Loading Basis Set <=

    Name: 6-31G
    Role: ORBITAL
    Keyword: BASIS
    atoms 1-6  entry C          line    87 file /home/akrom/software/anaconda3/envs/ffpenv/share/psi4/basis/6-31g.gbs 
    atoms 7-12 entry H          line    26 file /home/akrom/software/anaconda3/envs/ffpenv/share/psi4/basis/6-31g.gbs 


         ---------------------------------------------------------
                                   SCF
               by Justin Turney, Rob Parrish, Andy Simmonett
                          and Daniel G. A. Smith
                              RKS Reference
                        1 Threads,    500 MiB Core
         ---------------------------------------------------------

  ==> Geometry <==

    Molecular point group: c2h
    Full point group: C2h

    Geometry (in Angstrom), charge = 0, multiplicity = 1:

       Center              X                  Y                   Z               Mass       
    ------------   -----------------  -----------------  -----------------  -----------------
         C           -1.221510000000    -0.693250000000     0.000000000000    12.000000000000
         C           -1.211140000000     0.711220000000     0.000000000000    12.000000000000
         C           -0.010370000000    -1.404520000000     0.000000000000    12.000000000000
         C            0.010370000000     1.404520000000     0.000000000000    12.000000000000
         C            1.211140000000    -0.711220000000     0.000000000000    12.000000000000
         C            1.221510000000     0.693250000000     0.000000000000    12.000000000000
         H           -2.173110000000    -1.233320000000     0.000000000000     1.007825032230
         H           -2.154640000000     1.265330000000     0.000000000000     1.007825032230
         H           -0.018480000000    -2.498650000000     0.000000000000     1.007825032230
         H            0.018480000000     2.498650000000     0.000000000000     1.007825032230
         H            2.154640000000    -1.265330000000     0.000000000000     1.007825032230
         H            2.173110000000     1.233320000000     0.000000000000     1.007825032230

  Running in c2h symmetry.

  Rotational constants: A =      0.18753  B =      0.18752  C =      0.09376 [cm^-1]
  Rotational constants: A =   5621.92707  B =   5621.82252  C =   2810.93740 [MHz]
  Nuclear repulsion =  202.013308935380167

  Charge       = 0
  Multiplicity = 1
  Electrons    = 42
  Nalpha       = 21
  Nbeta        = 21

  ==> Algorithm <==

  SCF Algorithm Type is DF.
  DIIS enabled.
  MOM disabled.
  Fractional occupation disabled.
  Guess Type is SAD.
  Energy threshold   = 1.00e-06
  Density threshold  = 1.00e-06
  Integral threshold = 0.00e+00

  ==> Primary Basis <==

  Basis Set: 6-31G
    Blend: 6-31G
    Number of shells: 42
    Number of basis function: 66
    Number of Cartesian functions: 66
    Spherical Harmonics?: false
    Max angular momentum: 1

  ==> DFT Potential <==

   => Composite Functional: B3LYP <= 

    B3LYP Hyb-GGA Exchange-Correlation Functional

    P. J. Stephens, F. J. Devlin, C. F. Chabalowski, and M. J. Frisch, J. Phys. Chem. 98, 11623 (1994)

    Deriv               =              1
    GGA                 =           TRUE
    Meta                =          FALSE

    Exchange Hybrid     =           TRUE
    MP2 Hybrid          =          FALSE

   => Exchange Functionals <=

    0.0800   Slater exchange
    0.7200         Becke 88

   => Exact (HF) Exchange <=

    0.2000               HF 

   => Correlation Functionals <=

    0.1900   Vosko, Wilk & Nusair (VWN5_RPA)
    0.8100   Lee, Yang & Parr

   => Molecular Quadrature <=

    Radial Scheme          =       TREUTLER
    Pruning Scheme         =           FLAT
    Nuclear Scheme         =       TREUTLER

    BS radius alpha        =              1
    Pruning alpha          =              1
    Radial Points          =             75
    Spherical Points       =            302
    Total Points           =         263464
    Total Blocks           =           2062
    Max Points             =            256
    Max Functions          =             66

   => Loading Basis Set <=

    Name: (6-31G AUX)
    Role: JKFIT
    Keyword: DF_BASIS_SCF
    atoms 1-6  entry C          line   121 file /home/akrom/software/anaconda3/envs/ffpenv/share/psi4/basis/cc-pvdz-jkfit.gbs 
    atoms 7-12 entry H          line    51 file /home/akrom/software/anaconda3/envs/ffpenv/share/psi4/basis/cc-pvdz-jkfit.gbs 

  ==> Pre-Iterations <==

   -------------------------------------------------------
    Irrep   Nso     Nmo     Nalpha   Nbeta   Ndocc  Nsocc
   -------------------------------------------------------
     Ag        27      27       0       0       0       0
     Bg         6       6       0       0       0       0
     Au         6       6       0       0       0       0
     Bu        27      27       0       0       0       0
   -------------------------------------------------------
    Total      66      66      21      21      21       0
   -------------------------------------------------------

  ==> Integral Setup <==

  DFHelper Memory: AOs need 0.024 GiB; user supplied 0.024 GiB. Using in-core AOs.

  ==> MemDFJK: Density-Fitted J/K Matrices <==

    J tasked:                   Yes
    K tasked:                   Yes
    wK tasked:                   No
    OpenMP threads:               1
    Memory [MiB]:                25
    Algorithm:                 Core
    Schwarz Cutoff:           1E-12
    Mask sparsity (%):       0.8264
    Fitting Condition:        1E-10

   => Auxiliary Basis Set <=

  Basis Set: (6-31G AUX)
    Blend: CC-PVDZ-JKFIT
    Number of shells: 198
    Number of basis function: 636
    Number of Cartesian functions: 636
    Spherical Harmonics?: false
    Max angular momentum: 3

  Cached 100.0% of DFT collocation blocks in 0.432 [GiB].

  Minimum eigenvalue in the overlap matrix is 7.4644964947E-04.
  Using Symmetric Orthogonalization.

  SCF Guess: Superposition of Atomic Densities via on-the-fly atomic UHF.

  ==> Iterations <==

                           Total Energy        Delta E     RMS |[F,P]|

   @DF-RKS iter SAD:  -231.64354668715760   -2.31644e+02   0.00000e+00 
   @DF-RKS iter   1:  -231.90601953143670   -2.62473e-01   1.75998e-02 DIIS
   @DF-RKS iter   2:  -231.89804911788039    7.97041e-03   1.81798e-02 DIIS
   @DF-RKS iter   3:  -232.19800178048391   -2.99953e-01   5.06120e-04 DIIS
   @DF-RKS iter   4:  -232.19827649429212   -2.74714e-04   5.68965e-05 DIIS
   @DF-RKS iter   5:  -232.19827993073474   -3.43644e-06   3.60232e-06 DIIS
   @DF-RKS iter   6:  -232.19827994343748   -1.27027e-08   8.65961e-07 DIIS
  Energy and wave function converged.


  ==> Post-Iterations <==

    Orbital Energies [Eh]
    ---------------------

    Doubly Occupied:                                                      

       1Ag   -10.187891     1Bu   -10.187702     2Bu   -10.187696  
       2Ag   -10.187267     3Ag   -10.187261     3Bu   -10.187080  
       4Ag    -0.849373     4Bu    -0.742566     5Bu    -0.742559  
       5Ag    -0.599749     6Ag    -0.599739     7Ag    -0.520274  
       6Bu    -0.459235     7Bu    -0.442911     8Bu    -0.420440  
       9Bu    -0.420436     1Au    -0.360436     8Ag    -0.341949  
       9Ag    -0.341925     1Bg    -0.247966     2Bg    -0.247957  

    Virtual:                                                              

       2Au     0.002644     3Au     0.002655    10Ag     0.090055  
      10Bu     0.141550    11Bu     0.141556     3Bg     0.158218  
      11Ag     0.178560    12Ag     0.178564    12Bu     0.186626  
      13Ag     0.300622    14Ag     0.300634    13Bu     0.318616  
      14Bu     0.318639    15Bu     0.498558     4Au     0.526224  
      16Bu     0.535830    15Ag     0.553852    16Ag     0.590850  
       4Bg     0.610728     5Bg     0.610736    17Ag     0.619159  
      18Ag     0.619180    19Ag     0.634615    17Bu     0.665139  
      18Bu     0.665147     5Au     0.666668     6Au     0.666671  
       6Bg     0.740989    19Bu     0.839662    20Ag     0.854085  
      21Ag     0.854093    20Bu     0.897752    21Bu     0.897764  
      22Ag     0.963480    23Ag     0.968389    22Bu     1.004182  
      23Bu     1.004205    24Ag     1.126610    25Ag     1.126613  
      24Bu     1.188293    25Bu     1.188356    26Bu     1.217782  
      26Ag     1.456991    27Ag     1.457030    27Bu     1.897838  

    Final Occupation by Irrep:
             Ag    Bg    Au    Bu 
    DOCC [     9,    2,    1,    9 ]

  @DF-RKS Final Energy:  -232.19827994343748

   => Energetics <=

    Nuclear Repulsion Energy =            202.0133089353801665
    One-Electron Energy =                -711.2729406123578428
    Two-Electron Energy =                 305.1829754207694805
    DFT Exchange-Correlation Energy =     -28.1216236872293059
    Empirical Dispersion Energy =           0.0000000000000000
    VV10 Nonlocal Energy =                  0.0000000000000000
    Total Energy =                       -232.1982799434375124

Computation Completed


Properties will be evaluated at   0.000000,   0.000000,   0.000000 [a0]

Properties computed using the SCF density matrix

  Nuclear Dipole Moment: [e a0]
     X:    -0.0000      Y:    -0.0000      Z:     0.0000

  Electronic Dipole Moment: [e a0]
     X:     0.0000      Y:     0.0000      Z:     0.0000

  Dipole Moment: [e a0]
     X:    -0.0000      Y:    -0.0000      Z:     0.0000     Total:     0.0000

  Dipole Moment: [D]
     X:    -0.0000      Y:    -0.0000      Z:     0.0000     Total:     0.0000


*** tstop() called on atlantis at Wed Apr 20 00:43:41 2022
Module time:
	user time   =       4.28 seconds =       0.07 minutes
	system time =       0.16 seconds =       0.00 minutes
	total time  =          5 seconds =       0.08 minutes
Total time:
	user time   =       4.28 seconds =       0.07 minutes
	system time =       0.16 seconds =       0.00 minutes
	total time  =          5 seconds =       0.08 minutes
gradient() will perform analytic gradient computation.

*** tstart() called on atlantis
*** at Wed Apr 20 00:43:41 2022

   => Loading Basis Set <=

    Name: 6-31G
    Role: ORBITAL
    Keyword: BASIS
    atoms 1-6  entry C          line    87 file /home/akrom/software/anaconda3/envs/ffpenv/share/psi4/basis/6-31g.gbs 
    atoms 7-12 entry H          line    26 file /home/akrom/software/anaconda3/envs/ffpenv/share/psi4/basis/6-31g.gbs 


         ---------------------------------------------------------
                                   SCF
               by Justin Turney, Rob Parrish, Andy Simmonett
                          and Daniel G. A. Smith
                              RKS Reference
                        1 Threads,    500 MiB Core
         ---------------------------------------------------------

  ==> Geometry <==

    Molecular point group: c2h
    Full point group: C2h

    Geometry (in Angstrom), charge = 0, multiplicity = 1:

       Center              X                  Y                   Z               Mass       
    ------------   -----------------  -----------------  -----------------  -----------------
         C           -1.221510000000    -0.693250000000     0.000000000000    12.000000000000
         C           -1.211140000000     0.711220000000     0.000000000000    12.000000000000
         C           -0.010370000000    -1.404520000000     0.000000000000    12.000000000000
         C            0.010370000000     1.404520000000     0.000000000000    12.000000000000
         C            1.211140000000    -0.711220000000     0.000000000000    12.000000000000
         C            1.221510000000     0.693250000000     0.000000000000    12.000000000000
         H           -2.173110000000    -1.233320000000     0.000000000000     1.007825032230
         H           -2.154640000000     1.265330000000     0.000000000000     1.007825032230
         H           -0.018480000000    -2.498650000000     0.000000000000     1.007825032230
         H            0.018480000000     2.498650000000     0.000000000000     1.007825032230
         H            2.154640000000    -1.265330000000     0.000000000000     1.007825032230
         H            2.173110000000     1.233320000000     0.000000000000     1.007825032230

  Running in c2h symmetry.

  Rotational constants: A =      0.18753  B =      0.18752  C =      0.09376 [cm^-1]
  Rotational constants: A =   5621.92707  B =   5621.82252  C =   2810.93740 [MHz]
  Nuclear repulsion =  202.013308935380167

  Charge       = 0
  Multiplicity = 1
  Electrons    = 42
  Nalpha       = 21
  Nbeta        = 21

  ==> Algorithm <==

  SCF Algorithm Type is DF.
  DIIS enabled.
  MOM disabled.
  Fractional occupation disabled.
  Guess Type is SAD.
  Energy threshold   = 1.00e-08
  Density threshold  = 1.00e-08
  Integral threshold = 0.00e+00

  ==> Primary Basis <==

  Basis Set: 6-31G
    Blend: 6-31G
    Number of shells: 42
    Number of basis function: 66
    Number of Cartesian functions: 66
    Spherical Harmonics?: false
    Max angular momentum: 1

  ==> DFT Potential <==

   => Composite Functional: B3LYP <= 

    B3LYP Hyb-GGA Exchange-Correlation Functional

    P. J. Stephens, F. J. Devlin, C. F. Chabalowski, and M. J. Frisch, J. Phys. Chem. 98, 11623 (1994)

    Deriv               =              1
    GGA                 =           TRUE
    Meta                =          FALSE

    Exchange Hybrid     =           TRUE
    MP2 Hybrid          =          FALSE

   => Exchange Functionals <=

    0.0800   Slater exchange
    0.7200         Becke 88

   => Exact (HF) Exchange <=

    0.2000               HF 

   => Correlation Functionals <=

    0.1900   Vosko, Wilk & Nusair (VWN5_RPA)
    0.8100   Lee, Yang & Parr

   => Molecular Quadrature <=

    Radial Scheme          =       TREUTLER
    Pruning Scheme         =           FLAT
    Nuclear Scheme         =       TREUTLER

    BS radius alpha        =              1
    Pruning alpha          =              1
    Radial Points          =             75
    Spherical Points       =            302
    Total Points           =         263464
    Total Blocks           =           2062
    Max Points             =            256
    Max Functions          =             66

   => Loading Basis Set <=

    Name: (6-31G AUX)
    Role: JKFIT
    Keyword: DF_BASIS_SCF
    atoms 1-6  entry C          line   121 file /home/akrom/software/anaconda3/envs/ffpenv/share/psi4/basis/cc-pvdz-jkfit.gbs 
    atoms 7-12 entry H          line    51 file /home/akrom/software/anaconda3/envs/ffpenv/share/psi4/basis/cc-pvdz-jkfit.gbs 

  ==> Pre-Iterations <==

   -------------------------------------------------------
    Irrep   Nso     Nmo     Nalpha   Nbeta   Ndocc  Nsocc
   -------------------------------------------------------
     Ag        27      27       0       0       0       0
     Bg         6       6       0       0       0       0
     Au         6       6       0       0       0       0
     Bu        27      27       0       0       0       0
   -------------------------------------------------------
    Total      66      66      21      21      21       0
   -------------------------------------------------------

  ==> Integral Setup <==

  DFHelper Memory: AOs need 0.024 GiB; user supplied 0.024 GiB. Using in-core AOs.

  ==> MemDFJK: Density-Fitted J/K Matrices <==

    J tasked:                   Yes
    K tasked:                   Yes
    wK tasked:                   No
    OpenMP threads:               1
    Memory [MiB]:                25
    Algorithm:                 Core
    Schwarz Cutoff:           1E-12
    Mask sparsity (%):       0.8264
    Fitting Condition:        1E-10

   => Auxiliary Basis Set <=

  Basis Set: (6-31G AUX)
    Blend: CC-PVDZ-JKFIT
    Number of shells: 198
    Number of basis function: 636
    Number of Cartesian functions: 636
    Spherical Harmonics?: false
    Max angular momentum: 3

  Cached 100.0% of DFT collocation blocks in 0.432 [GiB].

  Minimum eigenvalue in the overlap matrix is 7.4644964947E-04.
  Using Symmetric Orthogonalization.

  SCF Guess: Superposition of Atomic Densities via on-the-fly atomic UHF.

  ==> Iterations <==

                           Total Energy        Delta E     RMS |[F,P]|

   @DF-RKS iter SAD:  -231.64354668697135   -2.31644e+02   0.00000e+00 
   @DF-RKS iter   1:  -231.90601953124937   -2.62473e-01   1.75998e-02 DIIS
   @DF-RKS iter   2:  -231.89804911769232    7.97041e-03   1.81798e-02 DIIS
   @DF-RKS iter   3:  -232.19800178029683   -2.99953e-01   5.06120e-04 DIIS
   @DF-RKS iter   4:  -232.19827649410533   -2.74714e-04   5.68965e-05 DIIS
   @DF-RKS iter   5:  -232.19827993054787   -3.43644e-06   3.60232e-06 DIIS
   @DF-RKS iter   6:  -232.19827994325036   -1.27025e-08   8.65961e-07 DIIS
   @DF-RKS iter   7:  -232.19827994363237   -3.82016e-10   5.26269e-07 DIIS
   @DF-RKS iter   8:  -232.19827994385392   -2.21547e-10   3.70759e-09 DIIS
  Energy and wave function converged.


  ==> Post-Iterations <==

    Orbital Energies [Eh]
    ---------------------

    Doubly Occupied:                                                      

       1Ag   -10.187890     1Bu   -10.187698     2Bu   -10.187697  
       2Ag   -10.187263     3Ag   -10.187262     3Bu   -10.187079  
       4Ag    -0.849372     4Bu    -0.742564     5Bu    -0.742559  
       5Ag    -0.599748     6Ag    -0.599738     7Ag    -0.520273  
       6Bu    -0.459234     7Bu    -0.442910     8Bu    -0.420439  
       9Bu    -0.420434     1Au    -0.360435     8Ag    -0.341948  
       9Ag    -0.341924     1Bg    -0.247964     2Bg    -0.247957  

    Virtual:                                                              

       2Au     0.002644     3Au     0.002658    10Ag     0.090055  
      10Bu     0.141552    11Bu     0.141555     3Bg     0.158219  
      11Ag     0.178561    12Ag     0.178564    12Bu     0.186626  
      13Ag     0.300623    14Ag     0.300635    13Bu     0.318616  
      14Bu     0.318641    15Bu     0.498559     4Au     0.526225  
      16Bu     0.535831    15Ag     0.553853    16Ag     0.590852  
       4Bg     0.610730     5Bg     0.610736    17Ag     0.619160  
      18Ag     0.619180    19Ag     0.634616    17Bu     0.665140  
      18Bu     0.665148     5Au     0.666668     6Au     0.666673  
       6Bg     0.740989    19Bu     0.839663    20Ag     0.854087  
      21Ag     0.854092    20Bu     0.897754    21Bu     0.897764  
      22Ag     0.963481    23Ag     0.968390    22Bu     1.004182  
      23Bu     1.004206    24Ag     1.126610    25Ag     1.126615  
      24Bu     1.188294    25Bu     1.188358    26Bu     1.217783  
      26Ag     1.456992    27Ag     1.457031    27Bu     1.897839  

    Final Occupation by Irrep:
             Ag    Bg    Au    Bu 
    DOCC [     9,    2,    1,    9 ]

  @DF-RKS Final Energy:  -232.19827994385392

   => Energetics <=

    Nuclear Repulsion Energy =            202.0133089353801665
    One-Electron Energy =                -711.2728748618301324
    Two-Electron Energy =                 305.1829058941052040
    DFT Exchange-Correlation Energy =     -28.1216199115091250
    Empirical Dispersion Energy =           0.0000000000000000
    VV10 Nonlocal Energy =                  0.0000000000000000
    Total Energy =                       -232.1982799438538905

Computation Completed


Properties will be evaluated at   0.000000,   0.000000,   0.000000 [a0]

Properties computed using the SCF density matrix

  Nuclear Dipole Moment: [e a0]
     X:    -0.0000      Y:    -0.0000      Z:     0.0000

  Electronic Dipole Moment: [e a0]
     X:     0.0000      Y:     0.0000      Z:     0.0000

  Dipole Moment: [e a0]
     X:    -0.0000      Y:    -0.0000      Z:     0.0000     Total:     0.0000

  Dipole Moment: [D]
     X:    -0.0000      Y:    -0.0000      Z:     0.0000     Total:     0.0000


*** tstop() called on atlantis at Wed Apr 20 00:43:46 2022
Module time:
	user time   =       5.14 seconds =       0.09 minutes
	system time =       0.06 seconds =       0.00 minutes
	total time  =          5 seconds =       0.08 minutes
Total time:
	user time   =       9.42 seconds =       0.16 minutes
	system time =       0.22 seconds =       0.00 minutes
	total time  =         10 seconds =       0.17 minutes

*** tstart() called on atlantis
*** at Wed Apr 20 00:43:46 2022


         ------------------------------------------------------------
                                   SCF GRAD                          
                          Rob Parrish, Justin Turney,                
                       Andy Simmonett, and Alex Sokolov              
         ------------------------------------------------------------

  ==> Geometry <==

    Molecular point group: c2h
    Full point group: C2h

    Geometry (in Angstrom), charge = 0, multiplicity = 1:

       Center              X                  Y                   Z               Mass       
    ------------   -----------------  -----------------  -----------------  -----------------
         C           -1.221510000000    -0.693250000000     0.000000000000    12.000000000000
         C           -1.211140000000     0.711220000000     0.000000000000    12.000000000000
         C           -0.010370000000    -1.404520000000     0.000000000000    12.000000000000
         C            0.010370000000     1.404520000000     0.000000000000    12.000000000000
         C            1.211140000000    -0.711220000000     0.000000000000    12.000000000000
         C            1.221510000000     0.693250000000     0.000000000000    12.000000000000
         H           -2.173110000000    -1.233320000000     0.000000000000     1.007825032230
         H           -2.154640000000     1.265330000000     0.000000000000     1.007825032230
         H           -0.018480000000    -2.498650000000     0.000000000000     1.007825032230
         H            0.018480000000     2.498650000000     0.000000000000     1.007825032230
         H            2.154640000000    -1.265330000000     0.000000000000     1.007825032230
         H            2.173110000000     1.233320000000     0.000000000000     1.007825032230

  Nuclear repulsion =  202.013308935380167

  ==> Basis Set <==

  Basis Set: 6-31G
    Blend: 6-31G
    Number of shells: 42
    Number of basis function: 66
    Number of Cartesian functions: 66
    Spherical Harmonics?: false
    Max angular momentum: 1

  ==> DFJKGrad: Density-Fitted SCF Gradients <==

    Gradient:                    1
    J tasked:                  Yes
    K tasked:                  Yes
    wK tasked:                  No
    OpenMP threads:              1
    Integrals threads:           1
    Memory [MiB]:              375
    Schwarz Cutoff:          0E+00
    Fitting Condition:       1E-10

   => Auxiliary Basis Set <=

  Basis Set: (6-31G AUX)
    Blend: CC-PVDZ-JKFIT
    Number of shells: 198
    Number of basis function: 636
    Number of Cartesian functions: 636
    Spherical Harmonics?: false
    Max angular momentum: 3

  ==> DFT Potential <==

   => Composite Functional: B3LYP <= 

    B3LYP Hyb-GGA Exchange-Correlation Functional

    P. J. Stephens, F. J. Devlin, C. F. Chabalowski, and M. J. Frisch, J. Phys. Chem. 98, 11623 (1994)

    Deriv               =              1
    GGA                 =           TRUE
    Meta                =          FALSE

    Exchange Hybrid     =           TRUE
    MP2 Hybrid          =          FALSE

   => Exchange Functionals <=

    0.0800   Slater exchange
    0.7200         Becke 88

   => Exact (HF) Exchange <=

    0.2000               HF 

   => Correlation Functionals <=

    0.1900   Vosko, Wilk & Nusair (VWN5_RPA)
    0.8100   Lee, Yang & Parr

   => Molecular Quadrature <=

    Radial Scheme          =       TREUTLER
    Pruning Scheme         =           FLAT
    Nuclear Scheme         =       TREUTLER

    BS radius alpha        =              1
    Pruning alpha          =              1
    Radial Points          =             75
    Spherical Points       =            302
    Total Points           =         263464
    Total Blocks           =           2062
    Max Points             =            256
    Max Functions          =             66


  -Total Gradient:
     Atom            X                  Y                   Z
    ------   -----------------  -----------------  -----------------
       1        0.001434686698     0.000853457040     0.000000000000
       2        0.001439203725    -0.000890681858     0.000000000000
       3        0.000017387558     0.001608037814    -0.000000000000
       4       -0.000017387558    -0.001608037814     0.000000000000
       5       -0.001439203725     0.000890681858     0.000000000000
       6       -0.001434686698    -0.000853457040     0.000000000000
       7       -0.004962700543    -0.002817158055     0.000000000000
       8       -0.004920812346     0.002896488299    -0.000000000000
       9       -0.000045672425    -0.005698905490    -0.000000000000
      10        0.000045672425     0.005698905490     0.000000000000
      11        0.004920812346    -0.002896488299    -0.000000000000
      12        0.004962700543     0.002817158055     0.000000000000


*** tstop() called on atlantis at Wed Apr 20 00:43:47 2022
Module time:
	user time   =       1.67 seconds =       0.03 minutes
	system time =       0.01 seconds =       0.00 minutes
	total time  =          1 seconds =       0.02 minutes
Total time:
	user time   =      11.09 seconds =       0.18 minutes
	system time =       0.23 seconds =       0.00 minutes
	total time  =         11 seconds =       0.18 minutes

  Based on options and gradient (rms=2.43E-03), recommend projecting translations and projecting rotations.
hessian() will perform frequency computation by finite difference of analytic gradients.

         ----------------------------------------------------------
                                   FINDIF
                     R. A. King and Jonathon Misiewicz
         ---------------------------------------------------------

  Using finite-differences of gradients to determine vibrational frequencies and 
  normal modes.  Resulting frequencies are only valid at stationary points.
    Generating geometries for use with 3-point formula.
    Displacement size will be 5.00e-03.
    Number of atoms is 12.
    Number of irreps is 4.
    Number of SALCs is 30.
    Translations projected? 1. Rotations projected? 1.
    Index of SALCs per irrep:
     1 :  0  1  2  3  4  5  6  7  8  9  10 
     2 :  11  12  13  14 
     3 :  15  16  17  18  19 
     4 :  20  21  22  23  24  25  26  27  28  29 
    Number of SALCs per irrep:
     Irrep 1: 11
     Irrep 2: 4
     Irrep 3: 5
     Irrep 4: 10
    Number of geometries (including reference) is 42.
    Number of displacements per irrep:
      Irrep 1: 22
      Irrep 2: 4
      Irrep 3: 5
      Irrep 4: 10

  //>>>>>>>>>>>>>>>>>>>>>>>>>>>>>>>>>>>//
  //    Loading displacement 1 of 42   //
  //<<<<<<<<<<<<<<<<<<<<<<<<<<<<<<<<<<<//
gradient() will perform analytic gradient computation.

*** tstart() called on atlantis
*** at Wed Apr 20 00:43:48 2022

   => Loading Basis Set <=

    Name: 6-31G
    Role: ORBITAL
    Keyword: BASIS
    atoms 1-6  entry C          line    87 file /home/akrom/software/anaconda3/envs/ffpenv/share/psi4/basis/6-31g.gbs 
    atoms 7-12 entry H          line    26 file /home/akrom/software/anaconda3/envs/ffpenv/share/psi4/basis/6-31g.gbs 


         ---------------------------------------------------------
                                   SCF
               by Justin Turney, Rob Parrish, Andy Simmonett
                          and Daniel G. A. Smith
                              RKS Reference
                        1 Threads,    500 MiB Core
         ---------------------------------------------------------

  ==> Geometry <==

    Molecular point group: c2h
    Full point group: C2h

    Geometry (in Angstrom), charge = 0, multiplicity = 1:

       Center              X                  Y                   Z               Mass       
    ------------   -----------------  -----------------  -----------------  -----------------
         C           -1.221510000000    -0.693250000000     0.000000000000    12.000000000000
         C           -1.211140000000     0.711220000000     0.000000000000    12.000000000000
         C           -0.010370000000    -1.404520000000     0.000000000000    12.000000000000
         C            0.010370000000     1.404520000000     0.000000000000    12.000000000000
         C            1.211140000000    -0.711220000000     0.000000000000    12.000000000000
         C            1.221510000000     0.693250000000     0.000000000000    12.000000000000
         H           -2.173110000000    -1.233320000000     0.000000000000     1.007825032230
         H           -2.154640000000     1.265330000000     0.000000000000     1.007825032230
         H           -0.018480000000    -2.498650000000     0.000000000000     1.007825032230
         H            0.018480000000     2.498650000000     0.000000000000     1.007825032230
         H            2.154640000000    -1.265330000000     0.000000000000     1.007825032230
         H            2.173110000000     1.233320000000     0.000000000000     1.007825032230

  Running in c2h symmetry.

  Rotational constants: A =      0.18753  B =      0.18752  C =      0.09376 [cm^-1]
  Rotational constants: A =   5621.92707  B =   5621.82252  C =   2810.93740 [MHz]
  Nuclear repulsion =  202.013308935380167

  Charge       = 0
  Multiplicity = 1
  Electrons    = 42
  Nalpha       = 21
  Nbeta        = 21

  ==> Algorithm <==

  SCF Algorithm Type is DF.
  DIIS enabled.
  MOM disabled.
  Fractional occupation disabled.
  Guess Type is SAD.
  Energy threshold   = 1.00e-08
  Density threshold  = 1.00e-08
  Integral threshold = 0.00e+00

  ==> Primary Basis <==

  Basis Set: 6-31G
    Blend: 6-31G
    Number of shells: 42
    Number of basis function: 66
    Number of Cartesian functions: 66
    Spherical Harmonics?: false
    Max angular momentum: 1

  ==> DFT Potential <==

   => Composite Functional: B3LYP <= 

    B3LYP Hyb-GGA Exchange-Correlation Functional

    P. J. Stephens, F. J. Devlin, C. F. Chabalowski, and M. J. Frisch, J. Phys. Chem. 98, 11623 (1994)

    Deriv               =              1
    GGA                 =           TRUE
    Meta                =          FALSE

    Exchange Hybrid     =           TRUE
    MP2 Hybrid          =          FALSE

   => Exchange Functionals <=

    0.0800   Slater exchange
    0.7200         Becke 88

   => Exact (HF) Exchange <=

    0.2000               HF 

   => Correlation Functionals <=

    0.1900   Vosko, Wilk & Nusair (VWN5_RPA)
    0.8100   Lee, Yang & Parr

   => Molecular Quadrature <=

    Radial Scheme          =       TREUTLER
    Pruning Scheme         =           FLAT
    Nuclear Scheme         =       TREUTLER

    BS radius alpha        =              1
    Pruning alpha          =              1
    Radial Points          =             75
    Spherical Points       =            302
    Total Points           =         263464
    Total Blocks           =           2062
    Max Points             =            256
    Max Functions          =             66

   => Loading Basis Set <=

    Name: (6-31G AUX)
    Role: JKFIT
    Keyword: DF_BASIS_SCF
    atoms 1-6  entry C          line   121 file /home/akrom/software/anaconda3/envs/ffpenv/share/psi4/basis/cc-pvdz-jkfit.gbs 
    atoms 7-12 entry H          line    51 file /home/akrom/software/anaconda3/envs/ffpenv/share/psi4/basis/cc-pvdz-jkfit.gbs 

  ==> Pre-Iterations <==

   -------------------------------------------------------
    Irrep   Nso     Nmo     Nalpha   Nbeta   Ndocc  Nsocc
   -------------------------------------------------------
     Ag        27      27       0       0       0       0
     Bg         6       6       0       0       0       0
     Au         6       6       0       0       0       0
     Bu        27      27       0       0       0       0
   -------------------------------------------------------
    Total      66      66      21      21      21       0
   -------------------------------------------------------

  ==> Integral Setup <==

  DFHelper Memory: AOs need 0.024 GiB; user supplied 0.024 GiB. Using in-core AOs.

  ==> MemDFJK: Density-Fitted J/K Matrices <==

    J tasked:                   Yes
    K tasked:                   Yes
    wK tasked:                   No
    OpenMP threads:               1
    Memory [MiB]:                25
    Algorithm:                 Core
    Schwarz Cutoff:           1E-12
    Mask sparsity (%):       0.8264
    Fitting Condition:        1E-10

   => Auxiliary Basis Set <=

  Basis Set: (6-31G AUX)
    Blend: CC-PVDZ-JKFIT
    Number of shells: 198
    Number of basis function: 636
    Number of Cartesian functions: 636
    Spherical Harmonics?: false
    Max angular momentum: 3

  Cached 100.0% of DFT collocation blocks in 0.432 [GiB].

  Minimum eigenvalue in the overlap matrix is 7.4644964947E-04.
  Using Symmetric Orthogonalization.

  SCF Guess: Superposition of Atomic Densities via on-the-fly atomic UHF.

  ==> Iterations <==

                           Total Energy        Delta E     RMS |[F,P]|

   @DF-RKS iter SAD:  -231.64354668728217   -2.31644e+02   0.00000e+00 
   @DF-RKS iter   1:  -231.90601953157108   -2.62473e-01   1.75998e-02 DIIS
   @DF-RKS iter   2:  -231.89804911801323    7.97041e-03   1.81798e-02 DIIS
   @DF-RKS iter   3:  -232.19800178062010   -2.99953e-01   5.06120e-04 DIIS
   @DF-RKS iter   4:  -232.19827649442843   -2.74714e-04   5.68965e-05 DIIS
   @DF-RKS iter   5:  -232.19827993087077   -3.43644e-06   3.60232e-06 DIIS
   @DF-RKS iter   6:  -232.19827994357348   -1.27027e-08   8.65961e-07 DIIS
   @DF-RKS iter   7:  -232.19827994395544   -3.81959e-10   5.26269e-07 DIIS
   @DF-RKS iter   8:  -232.19827994417702   -2.21576e-10   3.70759e-09 DIIS
  Energy and wave function converged.


  ==> Post-Iterations <==

    Orbital Energies [Eh]
    ---------------------

    Doubly Occupied:                                                      

       1Ag   -10.187890     1Bu   -10.187698     2Bu   -10.187697  
       2Ag   -10.187263     3Ag   -10.187262     3Bu   -10.187079  
       4Ag    -0.849372     4Bu    -0.742564     5Bu    -0.742559  
       5Ag    -0.599748     6Ag    -0.599738     7Ag    -0.520273  
       6Bu    -0.459234     7Bu    -0.442910     8Bu    -0.420439  
       9Bu    -0.420434     1Au    -0.360435     8Ag    -0.341948  
       9Ag    -0.341924     1Bg    -0.247964     2Bg    -0.247957  

    Virtual:                                                              

       2Au     0.002644     3Au     0.002658    10Ag     0.090055  
      10Bu     0.141552    11Bu     0.141555     3Bg     0.158219  
      11Ag     0.178561    12Ag     0.178564    12Bu     0.186626  
      13Ag     0.300623    14Ag     0.300635    13Bu     0.318616  
      14Bu     0.318641    15Bu     0.498559     4Au     0.526225  
      16Bu     0.535831    15Ag     0.553853    16Ag     0.590852  
       4Bg     0.610730     5Bg     0.610736    17Ag     0.619160  
      18Ag     0.619180    19Ag     0.634616    17Bu     0.665140  
      18Bu     0.665148     5Au     0.666668     6Au     0.666673  
       6Bg     0.740989    19Bu     0.839663    20Ag     0.854087  
      21Ag     0.854092    20Bu     0.897754    21Bu     0.897764  
      22Ag     0.963481    23Ag     0.968390    22Bu     1.004182  
      23Bu     1.004206    24Ag     1.126610    25Ag     1.126615  
      24Bu     1.188294    25Bu     1.188358    26Bu     1.217783  
      26Ag     1.456992    27Ag     1.457031    27Bu     1.897839  

    Final Occupation by Irrep:
             Ag    Bg    Au    Bu 
    DOCC [     9,    2,    1,    9 ]

  @DF-RKS Final Energy:  -232.19827994417702

   => Energetics <=

    Nuclear Repulsion Energy =            202.0133089353801665
    One-Electron Energy =                -711.2728748618850432
    Two-Electron Energy =                 305.1829058938424737
    DFT Exchange-Correlation Energy =     -28.1216199115146459
    Empirical Dispersion Energy =           0.0000000000000000
    VV10 Nonlocal Energy =                  0.0000000000000000
    Total Energy =                       -232.1982799441770453

Computation Completed


Properties will be evaluated at   0.000000,   0.000000,   0.000000 [a0]

Properties computed using the SCF density matrix

  Nuclear Dipole Moment: [e a0]
     X:    -0.0000      Y:    -0.0000      Z:     0.0000

  Electronic Dipole Moment: [e a0]
     X:     0.0000      Y:     0.0000      Z:     0.0000

  Dipole Moment: [e a0]
     X:    -0.0000      Y:    -0.0000      Z:     0.0000     Total:     0.0000

  Dipole Moment: [D]
     X:    -0.0000      Y:    -0.0000      Z:     0.0000     Total:     0.0000


*** tstop() called on atlantis at Wed Apr 20 00:43:53 2022
Module time:
	user time   =       5.14 seconds =       0.09 minutes
	system time =       0.04 seconds =       0.00 minutes
	total time  =          5 seconds =       0.08 minutes
Total time:
	user time   =      16.52 seconds =       0.28 minutes
	system time =       0.28 seconds =       0.00 minutes
	total time  =         17 seconds =       0.28 minutes

*** tstart() called on atlantis
*** at Wed Apr 20 00:43:53 2022


         ------------------------------------------------------------
                                   SCF GRAD                          
                          Rob Parrish, Justin Turney,                
                       Andy Simmonett, and Alex Sokolov              
         ------------------------------------------------------------

  ==> Geometry <==

    Molecular point group: c2h
    Full point group: C2h

    Geometry (in Angstrom), charge = 0, multiplicity = 1:

       Center              X                  Y                   Z               Mass       
    ------------   -----------------  -----------------  -----------------  -----------------
         C           -1.221510000000    -0.693250000000     0.000000000000    12.000000000000
         C           -1.211140000000     0.711220000000     0.000000000000    12.000000000000
         C           -0.010370000000    -1.404520000000     0.000000000000    12.000000000000
         C            0.010370000000     1.404520000000     0.000000000000    12.000000000000
         C            1.211140000000    -0.711220000000     0.000000000000    12.000000000000
         C            1.221510000000     0.693250000000     0.000000000000    12.000000000000
         H           -2.173110000000    -1.233320000000     0.000000000000     1.007825032230
         H           -2.154640000000     1.265330000000     0.000000000000     1.007825032230
         H           -0.018480000000    -2.498650000000     0.000000000000     1.007825032230
         H            0.018480000000     2.498650000000     0.000000000000     1.007825032230
         H            2.154640000000    -1.265330000000     0.000000000000     1.007825032230
         H            2.173110000000     1.233320000000     0.000000000000     1.007825032230

  Nuclear repulsion =  202.013308935380167

  ==> Basis Set <==

  Basis Set: 6-31G
    Blend: 6-31G
    Number of shells: 42
    Number of basis function: 66
    Number of Cartesian functions: 66
    Spherical Harmonics?: false
    Max angular momentum: 1

  ==> DFJKGrad: Density-Fitted SCF Gradients <==

    Gradient:                    1
    J tasked:                  Yes
    K tasked:                  Yes
    wK tasked:                  No
    OpenMP threads:              1
    Integrals threads:           1
    Memory [MiB]:              375
    Schwarz Cutoff:          0E+00
    Fitting Condition:       1E-10

   => Auxiliary Basis Set <=

  Basis Set: (6-31G AUX)
    Blend: CC-PVDZ-JKFIT
    Number of shells: 198
    Number of basis function: 636
    Number of Cartesian functions: 636
    Spherical Harmonics?: false
    Max angular momentum: 3

  ==> DFT Potential <==

   => Composite Functional: B3LYP <= 

    B3LYP Hyb-GGA Exchange-Correlation Functional

    P. J. Stephens, F. J. Devlin, C. F. Chabalowski, and M. J. Frisch, J. Phys. Chem. 98, 11623 (1994)

    Deriv               =              1
    GGA                 =           TRUE
    Meta                =          FALSE

    Exchange Hybrid     =           TRUE
    MP2 Hybrid          =          FALSE

   => Exchange Functionals <=

    0.0800   Slater exchange
    0.7200         Becke 88

   => Exact (HF) Exchange <=

    0.2000               HF 

   => Correlation Functionals <=

    0.1900   Vosko, Wilk & Nusair (VWN5_RPA)
    0.8100   Lee, Yang & Parr

   => Molecular Quadrature <=

    Radial Scheme          =       TREUTLER
    Pruning Scheme         =           FLAT
    Nuclear Scheme         =       TREUTLER

    BS radius alpha        =              1
    Pruning alpha          =              1
    Radial Points          =             75
    Spherical Points       =            302
    Total Points           =         263464
    Total Blocks           =           2062
    Max Points             =            256
    Max Functions          =             66


  -Total Gradient:
     Atom            X                  Y                   Z
    ------   -----------------  -----------------  -----------------
       1        0.001434702968     0.000853463329     0.000000000000
       2        0.001439222739    -0.000890684592     0.000000000000
       3        0.000017392251     0.001608049153    -0.000000000000
       4       -0.000017392251    -0.001608049153    -0.000000000000
       5       -0.001439222739     0.000890684592     0.000000000000
       6       -0.001434702968    -0.000853463329     0.000000000000
       7       -0.004962684941    -0.002817148687     0.000000000000
       8       -0.004920795789     0.002896477011    -0.000000000000
       9       -0.000045673062    -0.005698878136     0.000000000000
      10        0.000045673062     0.005698878136     0.000000000000
      11        0.004920795789    -0.002896477011     0.000000000000
      12        0.004962684941     0.002817148687     0.000000000000


*** tstop() called on atlantis at Wed Apr 20 00:43:55 2022
Module time:
	user time   =       1.68 seconds =       0.03 minutes
	system time =       0.01 seconds =       0.00 minutes
	total time  =          2 seconds =       0.03 minutes
Total time:
	user time   =      18.20 seconds =       0.30 minutes
	system time =       0.29 seconds =       0.00 minutes
	total time  =         19 seconds =       0.32 minutes

  //>>>>>>>>>>>>>>>>>>>>>>>>>>>>>>>>>>>//
  //    Loading displacement 2 of 42   //
  //<<<<<<<<<<<<<<<<<<<<<<<<<<<<<<<<<<<//
gradient() will perform analytic gradient computation.

*** tstart() called on atlantis
*** at Wed Apr 20 00:43:55 2022

   => Loading Basis Set <=

    Name: 6-31G
    Role: ORBITAL
    Keyword: BASIS
    atoms 1-6  entry C          line    87 file /home/akrom/software/anaconda3/envs/ffpenv/share/psi4/basis/6-31g.gbs 
    atoms 7-12 entry H          line    26 file /home/akrom/software/anaconda3/envs/ffpenv/share/psi4/basis/6-31g.gbs 


         ---------------------------------------------------------
                                   SCF
               by Justin Turney, Rob Parrish, Andy Simmonett
                          and Daniel G. A. Smith
                              RKS Reference
                        1 Threads,    500 MiB Core
         ---------------------------------------------------------

  ==> Geometry <==

    Molecular point group: c2h
    Full point group: C2h

    Geometry (in Angstrom), charge = 0, multiplicity = 1:

       Center              X                  Y                   Z               Mass       
    ------------   -----------------  -----------------  -----------------  -----------------
         C           -1.222032477591    -0.693313109608     0.000000000000    12.000000000000
         C           -1.211176745353     0.711157426160     0.000000000000    12.000000000000
         C           -0.010297435136    -1.404520535769     0.000000000000    12.000000000000
         C            0.010297435136     1.404520535769     0.000000000000    12.000000000000
         C            1.211176745353    -0.711157426160     0.000000000000    12.000000000000
         C            1.222032477591     0.693313109608     0.000000000000    12.000000000000
         H           -2.173046280225    -1.233432274252     0.000000000000     1.007825032230
         H           -2.154705373579     1.265218680005     0.000000000000     1.007825032230
         H           -0.018350906646    -2.498650954774     0.000000000000     1.007825032230
         H            0.018350906646     2.498650954774     0.000000000000     1.007825032230
         H            2.154705373579    -1.265218680005     0.000000000000     1.007825032230
         H            2.173046280225     1.233432274252     0.000000000000     1.007825032230

  Running in c2h symmetry.

  Rotational constants: A =      0.18753  B =      0.18745  C =      0.09375 [cm^-1]
  Rotational constants: A =   5621.97670  B =   5619.72613  C =   2810.42560 [MHz]
  Nuclear repulsion =  201.998047561272216

  Charge       = 0
  Multiplicity = 1
  Electrons    = 42
  Nalpha       = 21
  Nbeta        = 21

  ==> Algorithm <==

  SCF Algorithm Type is DF.
  DIIS enabled.
  MOM disabled.
  Fractional occupation disabled.
  Guess Type is SAD.
  Energy threshold   = 1.00e-08
  Density threshold  = 1.00e-08
  Integral threshold = 0.00e+00

  ==> Primary Basis <==

  Basis Set: 6-31G
    Blend: 6-31G
    Number of shells: 42
    Number of basis function: 66
    Number of Cartesian functions: 66
    Spherical Harmonics?: false
    Max angular momentum: 1

  ==> DFT Potential <==

   => Composite Functional: B3LYP <= 

    B3LYP Hyb-GGA Exchange-Correlation Functional

    P. J. Stephens, F. J. Devlin, C. F. Chabalowski, and M. J. Frisch, J. Phys. Chem. 98, 11623 (1994)

    Deriv               =              1
    GGA                 =           TRUE
    Meta                =          FALSE

    Exchange Hybrid     =           TRUE
    MP2 Hybrid          =          FALSE

   => Exchange Functionals <=

    0.0800   Slater exchange
    0.7200         Becke 88

   => Exact (HF) Exchange <=

    0.2000               HF 

   => Correlation Functionals <=

    0.1900   Vosko, Wilk & Nusair (VWN5_RPA)
    0.8100   Lee, Yang & Parr

   => Molecular Quadrature <=

    Radial Scheme          =       TREUTLER
    Pruning Scheme         =           FLAT
    Nuclear Scheme         =       TREUTLER

    BS radius alpha        =              1
    Pruning alpha          =              1
    Radial Points          =             75
    Spherical Points       =            302
    Total Points           =         263478
    Total Blocks           =           2052
    Max Points             =            256
    Max Functions          =             66

   => Loading Basis Set <=

    Name: (6-31G AUX)
    Role: JKFIT
    Keyword: DF_BASIS_SCF
    atoms 1-6  entry C          line   121 file /home/akrom/software/anaconda3/envs/ffpenv/share/psi4/basis/cc-pvdz-jkfit.gbs 
    atoms 7-12 entry H          line    51 file /home/akrom/software/anaconda3/envs/ffpenv/share/psi4/basis/cc-pvdz-jkfit.gbs 

  ==> Pre-Iterations <==

   -------------------------------------------------------
    Irrep   Nso     Nmo     Nalpha   Nbeta   Ndocc  Nsocc
   -------------------------------------------------------
     Ag        27      27       0       0       0       0
     Bg         6       6       0       0       0       0
     Au         6       6       0       0       0       0
     Bu        27      27       0       0       0       0
   -------------------------------------------------------
    Total      66      66      21      21      21       0
   -------------------------------------------------------

  ==> Integral Setup <==

  DFHelper Memory: AOs need 0.024 GiB; user supplied 0.024 GiB. Using in-core AOs.

  ==> MemDFJK: Density-Fitted J/K Matrices <==

    J tasked:                   Yes
    K tasked:                   Yes
    wK tasked:                   No
    OpenMP threads:               1
    Memory [MiB]:                25
    Algorithm:                 Core
    Schwarz Cutoff:           1E-12
    Mask sparsity (%):       0.8264
    Fitting Condition:        1E-10

   => Auxiliary Basis Set <=

  Basis Set: (6-31G AUX)
    Blend: CC-PVDZ-JKFIT
    Number of shells: 198
    Number of basis function: 636
    Number of Cartesian functions: 636
    Spherical Harmonics?: false
    Max angular momentum: 3

  Cached 100.0% of DFT collocation blocks in 0.432 [GiB].

  Minimum eigenvalue in the overlap matrix is 7.4719581144E-04.
  Using Symmetric Orthogonalization.

  SCF Guess: Superposition of Atomic Densities via on-the-fly atomic UHF.

  ==> Iterations <==

                           Total Energy        Delta E     RMS |[F,P]|

   @DF-RKS iter SAD:  -231.64279503316504   -2.31643e+02   0.00000e+00 
   @DF-RKS iter   1:  -231.90621492166161   -2.63420e-01   1.75943e-02 DIIS
   @DF-RKS iter   2:  -231.89843442973665    7.78049e-03   1.81687e-02 DIIS
   @DF-RKS iter   3:  -232.19801525232700   -2.99581e-01   5.05997e-04 DIIS
   @DF-RKS iter   4:  -232.19828982930287   -2.74577e-04   5.70654e-05 DIIS
   @DF-RKS iter   5:  -232.19829324876673   -3.41946e-06   7.21134e-06 DIIS
   @DF-RKS iter   6:  -232.19829325639097   -7.62424e-09   6.78883e-06 DIIS
   @DF-RKS iter   7:  -232.19829329311963   -3.67287e-08   1.29174e-07 DIIS
   @DF-RKS iter   8:  -232.19829329313541   -1.57740e-11   3.62849e-09 DIIS
  Energy and wave function converged.


  ==> Post-Iterations <==

    Orbital Energies [Eh]
    ---------------------

    Doubly Occupied:                                                      

       1Ag   -10.187911     1Bu   -10.187729     2Bu   -10.187709  
       2Ag   -10.187295     3Ag   -10.187273     3Bu   -10.187100  
       4Ag    -0.849294     4Bu    -0.742584     5Bu    -0.742469  
       5Ag    -0.599818     6Ag    -0.599678     7Ag    -0.520276  
       6Bu    -0.459320     7Bu    -0.442860     8Bu    -0.420507  
       9Bu    -0.420368     1Au    -0.360382     8Ag    -0.342088  
       9Ag    -0.341823     1Bg    -0.247986     2Bg    -0.247876  

    Virtual:                                                              

       2Au     0.002543     3Au     0.002694    10Ag     0.090098  
      10Bu     0.141560    11Bu     0.141651     3Bg     0.158140  
      11Ag     0.178530    12Ag     0.178588    12Bu     0.186641  
      13Ag     0.300496    14Ag     0.300657    13Bu     0.318403  
      14Bu     0.318672    15Bu     0.498618     4Au     0.526209  
      16Bu     0.535672    15Ag     0.553703    16Ag     0.590581  
       4Bg     0.610719     5Bg     0.610785    17Ag     0.618956  
      18Ag     0.619231    19Ag     0.634571    17Bu     0.665042  
      18Bu     0.665202     5Au     0.666641     6Au     0.666675  
       6Bg     0.740973    19Bu     0.839659    20Ag     0.854099  
      21Ag     0.854336    20Bu     0.897752    21Bu     0.898019  
      22Ag     0.963576    23Ag     0.968264    22Bu     1.003999  
      23Bu     1.004289    24Ag     1.126464    25Ag     1.126584  
      24Bu     1.188238    25Bu     1.188396    26Bu     1.217689  
      26Ag     1.456922    27Ag     1.457099    27Bu     1.897774  

    Final Occupation by Irrep:
             Ag    Bg    Au    Bu 
    DOCC [     9,    2,    1,    9 ]

  @DF-RKS Final Energy:  -232.19829329313541

   => Energetics <=

    Nuclear Repulsion Energy =            201.9980475612722159
    One-Electron Energy =                -711.2425771402283772
    Two-Electron Energy =                 305.1676899947900097
    DFT Exchange-Correlation Energy =     -28.1214537089691987
    Empirical Dispersion Energy =           0.0000000000000000
    VV10 Nonlocal Energy =                  0.0000000000000000
    Total Energy =                       -232.1982932931353787

Computation Completed


Properties will be evaluated at   0.000000,   0.000000,   0.000000 [a0]

Properties computed using the SCF density matrix

  Nuclear Dipole Moment: [e a0]
     X:     0.0000      Y:     0.0000      Z:     0.0000

  Electronic Dipole Moment: [e a0]
     X:     0.0000      Y:     0.0000      Z:     0.0000

  Dipole Moment: [e a0]
     X:     0.0000      Y:     0.0000      Z:     0.0000     Total:     0.0000

  Dipole Moment: [D]
     X:     0.0000      Y:     0.0000      Z:     0.0000     Total:     0.0000


*** tstop() called on atlantis at Wed Apr 20 00:44:00 2022
Module time:
	user time   =       5.14 seconds =       0.09 minutes
	system time =       0.03 seconds =       0.00 minutes
	total time  =          5 seconds =       0.08 minutes
Total time:
	user time   =      23.34 seconds =       0.39 minutes
	system time =       0.32 seconds =       0.01 minutes
	total time  =         24 seconds =       0.40 minutes

*** tstart() called on atlantis
*** at Wed Apr 20 00:44:00 2022


         ------------------------------------------------------------
                                   SCF GRAD                          
                          Rob Parrish, Justin Turney,                
                       Andy Simmonett, and Alex Sokolov              
         ------------------------------------------------------------

  ==> Geometry <==

    Molecular point group: c2h
    Full point group: C2h

    Geometry (in Angstrom), charge = 0, multiplicity = 1:

       Center              X                  Y                   Z               Mass       
    ------------   -----------------  -----------------  -----------------  -----------------
         C           -1.222032477591    -0.693313109608     0.000000000000    12.000000000000
         C           -1.211176745353     0.711157426160     0.000000000000    12.000000000000
         C           -0.010297435136    -1.404520535769     0.000000000000    12.000000000000
         C            0.010297435136     1.404520535769     0.000000000000    12.000000000000
         C            1.211176745353    -0.711157426160     0.000000000000    12.000000000000
         C            1.222032477591     0.693313109608     0.000000000000    12.000000000000
         H           -2.173046280225    -1.233432274252     0.000000000000     1.007825032230
         H           -2.154705373579     1.265218680005     0.000000000000     1.007825032230
         H           -0.018350906646    -2.498650954774     0.000000000000     1.007825032230
         H            0.018350906646     2.498650954774     0.000000000000     1.007825032230
         H            2.154705373579    -1.265218680005     0.000000000000     1.007825032230
         H            2.173046280225     1.233432274252     0.000000000000     1.007825032230

  Nuclear repulsion =  201.998047561272216

  ==> Basis Set <==

  Basis Set: 6-31G
    Blend: 6-31G
    Number of shells: 42
    Number of basis function: 66
    Number of Cartesian functions: 66
    Spherical Harmonics?: false
    Max angular momentum: 1

  ==> DFJKGrad: Density-Fitted SCF Gradients <==

    Gradient:                    1
    J tasked:                  Yes
    K tasked:                  Yes
    wK tasked:                  No
    OpenMP threads:              1
    Integrals threads:           1
    Memory [MiB]:              375
    Schwarz Cutoff:          0E+00
    Fitting Condition:       1E-10

   => Auxiliary Basis Set <=

  Basis Set: (6-31G AUX)
    Blend: CC-PVDZ-JKFIT
    Number of shells: 198
    Number of basis function: 636
    Number of Cartesian functions: 636
    Spherical Harmonics?: false
    Max angular momentum: 3

  ==> DFT Potential <==

   => Composite Functional: B3LYP <= 

    B3LYP Hyb-GGA Exchange-Correlation Functional

    P. J. Stephens, F. J. Devlin, C. F. Chabalowski, and M. J. Frisch, J. Phys. Chem. 98, 11623 (1994)

    Deriv               =              1
    GGA                 =           TRUE
    Meta                =          FALSE

    Exchange Hybrid     =           TRUE
    MP2 Hybrid          =          FALSE

   => Exchange Functionals <=

    0.0800   Slater exchange
    0.7200         Becke 88

   => Exact (HF) Exchange <=

    0.2000               HF 

   => Correlation Functionals <=

    0.1900   Vosko, Wilk & Nusair (VWN5_RPA)
    0.8100   Lee, Yang & Parr

   => Molecular Quadrature <=

    Radial Scheme          =       TREUTLER
    Pruning Scheme         =           FLAT
    Nuclear Scheme         =       TREUTLER

    BS radius alpha        =              1
    Pruning alpha          =              1
    Radial Points          =             75
    Spherical Points       =            302
    Total Points           =         263478
    Total Blocks           =           2052
    Max Points             =            256
    Max Functions          =             66


  -Total Gradient:
     Atom            X                  Y                   Z
    ------   -----------------  -----------------  -----------------
       1        0.000684592029     0.000839599316     0.000000000000
       2        0.001479485989    -0.000852061000     0.000000000000
       3        0.000334345815     0.001483912450     0.000000000000
       4       -0.000334345815    -0.001483912450     0.000000000000
       5       -0.001479485989     0.000852061000     0.000000000000
       6       -0.000684592029    -0.000839599316     0.000000000000
       7       -0.004687204598    -0.002696908754     0.000000000000
       8       -0.004927037602     0.002861344258     0.000000000000
       9       -0.000053399494    -0.005696878165     0.000000000000
      10        0.000053399494     0.005696878165     0.000000000000
      11        0.004927037602    -0.002861344258     0.000000000000
      12        0.004687204598     0.002696908754     0.000000000000


*** tstop() called on atlantis at Wed Apr 20 00:44:02 2022
Module time:
	user time   =       1.68 seconds =       0.03 minutes
	system time =       0.01 seconds =       0.00 minutes
	total time  =          2 seconds =       0.03 minutes
Total time:
	user time   =      25.02 seconds =       0.42 minutes
	system time =       0.33 seconds =       0.01 minutes
	total time  =         26 seconds =       0.43 minutes

  //>>>>>>>>>>>>>>>>>>>>>>>>>>>>>>>>>>>//
  //    Loading displacement 3 of 42   //
  //<<<<<<<<<<<<<<<<<<<<<<<<<<<<<<<<<<<//
gradient() will perform analytic gradient computation.

*** tstart() called on atlantis
*** at Wed Apr 20 00:44:02 2022

   => Loading Basis Set <=

    Name: 6-31G
    Role: ORBITAL
    Keyword: BASIS
    atoms 1-6  entry C          line    87 file /home/akrom/software/anaconda3/envs/ffpenv/share/psi4/basis/6-31g.gbs 
    atoms 7-12 entry H          line    26 file /home/akrom/software/anaconda3/envs/ffpenv/share/psi4/basis/6-31g.gbs 


         ---------------------------------------------------------
                                   SCF
               by Justin Turney, Rob Parrish, Andy Simmonett
                          and Daniel G. A. Smith
                              RKS Reference
                        1 Threads,    500 MiB Core
         ---------------------------------------------------------

  ==> Geometry <==

    Molecular point group: c2h
    Full point group: C2h

    Geometry (in Angstrom), charge = 0, multiplicity = 1:

       Center              X                  Y                   Z               Mass       
    ------------   -----------------  -----------------  -----------------  -----------------
         C           -1.220987522409    -0.693186890392     0.000000000000    12.000000000000
         C           -1.211103254647     0.711282573840     0.000000000000    12.000000000000
         C           -0.010442564864    -1.404519464231     0.000000000000    12.000000000000
         C            0.010442564864     1.404519464231     0.000000000000    12.000000000000
         C            1.211103254647    -0.711282573840     0.000000000000    12.000000000000
         C            1.220987522409     0.693186890392     0.000000000000    12.000000000000
         H           -2.173173719775    -1.233207725748     0.000000000000     1.007825032230
         H           -2.154574626421     1.265441319995     0.000000000000     1.007825032230
         H           -0.018609093354    -2.498649045226     0.000000000000     1.007825032230
         H            0.018609093354     2.498649045226     0.000000000000     1.007825032230
         H            2.154574626421    -1.265441319995     0.000000000000     1.007825032230
         H            2.173173719775     1.233207725748     0.000000000000     1.007825032230

  Running in c2h symmetry.

  Rotational constants: A =      0.18760  B =      0.18752  C =      0.09378 [cm^-1]
  Rotational constants: A =   5624.12726  B =   5621.66993  C =   2811.44916 [MHz]
  Nuclear repulsion =  202.028576396706484

  Charge       = 0
  Multiplicity = 1
  Electrons    = 42
  Nalpha       = 21
  Nbeta        = 21

  ==> Algorithm <==

  SCF Algorithm Type is DF.
  DIIS enabled.
  MOM disabled.
  Fractional occupation disabled.
  Guess Type is SAD.
  Energy threshold   = 1.00e-08
  Density threshold  = 1.00e-08
  Integral threshold = 0.00e+00

  ==> Primary Basis <==

  Basis Set: 6-31G
    Blend: 6-31G
    Number of shells: 42
    Number of basis function: 66
    Number of Cartesian functions: 66
    Spherical Harmonics?: false
    Max angular momentum: 1

  ==> DFT Potential <==

   => Composite Functional: B3LYP <= 

    B3LYP Hyb-GGA Exchange-Correlation Functional

    P. J. Stephens, F. J. Devlin, C. F. Chabalowski, and M. J. Frisch, J. Phys. Chem. 98, 11623 (1994)

    Deriv               =              1
    GGA                 =           TRUE
    Meta                =          FALSE

    Exchange Hybrid     =           TRUE
    MP2 Hybrid          =          FALSE

   => Exchange Functionals <=

    0.0800   Slater exchange
    0.7200         Becke 88

   => Exact (HF) Exchange <=

    0.2000               HF 

   => Correlation Functionals <=

    0.1900   Vosko, Wilk & Nusair (VWN5_RPA)
    0.8100   Lee, Yang & Parr

   => Molecular Quadrature <=

    Radial Scheme          =       TREUTLER
    Pruning Scheme         =           FLAT
    Nuclear Scheme         =       TREUTLER

    BS radius alpha        =              1
    Pruning alpha          =              1
    Radial Points          =             75
    Spherical Points       =            302
    Total Points           =         263484
    Total Blocks           =           2050
    Max Points             =            256
    Max Functions          =             66

   => Loading Basis Set <=

    Name: (6-31G AUX)
    Role: JKFIT
    Keyword: DF_BASIS_SCF
    atoms 1-6  entry C          line   121 file /home/akrom/software/anaconda3/envs/ffpenv/share/psi4/basis/cc-pvdz-jkfit.gbs 
    atoms 7-12 entry H          line    51 file /home/akrom/software/anaconda3/envs/ffpenv/share/psi4/basis/cc-pvdz-jkfit.gbs 

  ==> Pre-Iterations <==

   -------------------------------------------------------
    Irrep   Nso     Nmo     Nalpha   Nbeta   Ndocc  Nsocc
   -------------------------------------------------------
     Ag        27      27       0       0       0       0
     Bg         6       6       0       0       0       0
     Au         6       6       0       0       0       0
     Bu        27      27       0       0       0       0
   -------------------------------------------------------
    Total      66      66      21      21      21       0
   -------------------------------------------------------

  ==> Integral Setup <==

  DFHelper Memory: AOs need 0.024 GiB; user supplied 0.024 GiB. Using in-core AOs.

  ==> MemDFJK: Density-Fitted J/K Matrices <==

    J tasked:                   Yes
    K tasked:                   Yes
    wK tasked:                   No
    OpenMP threads:               1
    Memory [MiB]:                25
    Algorithm:                 Core
    Schwarz Cutoff:           1E-12
    Mask sparsity (%):       0.8264
    Fitting Condition:        1E-10

   => Auxiliary Basis Set <=

  Basis Set: (6-31G AUX)
    Blend: CC-PVDZ-JKFIT
    Number of shells: 198
    Number of basis function: 636
    Number of Cartesian functions: 636
    Spherical Harmonics?: false
    Max angular momentum: 3

  Cached 100.0% of DFT collocation blocks in 0.432 [GiB].

  Minimum eigenvalue in the overlap matrix is 7.4570504793E-04.
  Using Symmetric Orthogonalization.

  SCF Guess: Superposition of Atomic Densities via on-the-fly atomic UHF.

  ==> Iterations <==

                           Total Energy        Delta E     RMS |[F,P]|

   @DF-RKS iter SAD:  -231.64458981583761   -2.31645e+02   0.00000e+00 
   @DF-RKS iter   1:  -231.90586316510786   -2.61273e-01   1.76046e-02 DIIS
   @DF-RKS iter   2:  -231.89769394476730    8.16922e-03   1.81906e-02 DIIS
   @DF-RKS iter   3:  -232.19800915249559   -3.00315e-01   5.06202e-04 DIIS
   @DF-RKS iter   4:  -232.19828392032048   -2.74768e-04   5.71640e-05 DIIS
   @DF-RKS iter   5:  -232.19828734997500   -3.42965e-06   7.31784e-06 DIIS
   @DF-RKS iter   6:  -232.19828735810634   -8.13134e-09   6.85620e-06 DIIS
   @DF-RKS iter   7:  -232.19828739556687   -3.74605e-08   1.28475e-07 DIIS
   @DF-RKS iter   8:  -232.19828739558204   -1.51772e-11   3.69083e-09 DIIS
  Energy and wave function converged.


  ==> Post-Iterations <==

    Orbital Energies [Eh]
    ---------------------

    Doubly Occupied:                                                      

       1Ag   -10.187881     1Bu   -10.187697     2Bu   -10.187679  
       2Ag   -10.187262     3Ag   -10.187242     3Bu   -10.187068  
       4Ag    -0.849469     4Bu    -0.742645     5Bu    -0.742544  
       5Ag    -0.599811     6Ag    -0.599673     7Ag    -0.520294  
       6Bu    -0.459151     7Bu    -0.442967     8Bu    -0.420498  
       9Bu    -0.420355     1Au    -0.360504     8Ag    -0.342052  
       9Ag    -0.341786     1Bg    -0.248031     2Bg    -0.247943  

    Virtual:                                                              

       2Au     0.002609     3Au     0.002751    10Ag     0.089966  
      10Bu     0.141464    11Bu     0.141549     3Bg     0.158297  
      11Ag     0.178532    12Ag     0.178594    12Bu     0.186609  
      13Ag     0.300602    14Ag     0.300740    13Bu     0.318598  
      14Bu     0.318847    15Bu     0.498482     4Au     0.526163  
      16Bu     0.535986    15Ag     0.554007    16Ag     0.590636  
       4Bg     0.610708     5Bg     0.610733    17Ag     0.619116  
      18Ag     0.619356    19Ag     0.634651    17Bu     0.665108  
      18Bu     0.665231     5Au     0.666659     6Au     0.666695  
       6Bg     0.741010    19Bu     0.839664    20Ag     0.853838  
      21Ag     0.854080    20Bu     0.897494    21Bu     0.897764  
      22Ag     0.963293    23Ag     0.968516    22Bu     1.004145  
      23Bu     1.004397    24Ag     1.126652    25Ag     1.126764  
      24Bu     1.188346    25Bu     1.188553    26Bu     1.217886  
      26Ag     1.456905    27Ag     1.457121    27Bu     1.897895  

    Final Occupation by Irrep:
             Ag    Bg    Au    Bu 
    DOCC [     9,    2,    1,    9 ]

  @DF-RKS Final Energy:  -232.19828739558204

   => Energetics <=

    Nuclear Repulsion Energy =            202.0285763967064838
    One-Electron Energy =                -711.3030101874530828
    Two-Electron Energy =                 305.1979067532835757
    DFT Exchange-Correlation Energy =     -28.1217603581190332
    Empirical Dispersion Energy =           0.0000000000000000
    VV10 Nonlocal Energy =                  0.0000000000000000
    Total Energy =                       -232.1982873955820423

Computation Completed


Properties will be evaluated at   0.000000,   0.000000,   0.000000 [a0]

Properties computed using the SCF density matrix

  Nuclear Dipole Moment: [e a0]
     X:     0.0000      Y:     0.0000      Z:     0.0000

  Electronic Dipole Moment: [e a0]
     X:     0.0000      Y:     0.0000      Z:     0.0000

  Dipole Moment: [e a0]
     X:     0.0000      Y:     0.0000      Z:     0.0000     Total:     0.0000

  Dipole Moment: [D]
     X:     0.0000      Y:     0.0000      Z:     0.0000     Total:     0.0000


*** tstop() called on atlantis at Wed Apr 20 00:44:07 2022
Module time:
	user time   =       5.13 seconds =       0.09 minutes
	system time =       0.03 seconds =       0.00 minutes
	total time  =          5 seconds =       0.08 minutes
Total time:
	user time   =      30.16 seconds =       0.50 minutes
	system time =       0.36 seconds =       0.01 minutes
	total time  =         31 seconds =       0.52 minutes

*** tstart() called on atlantis
*** at Wed Apr 20 00:44:07 2022


         ------------------------------------------------------------
                                   SCF GRAD                          
                          Rob Parrish, Justin Turney,                
                       Andy Simmonett, and Alex Sokolov              
         ------------------------------------------------------------

  ==> Geometry <==

    Molecular point group: c2h
    Full point group: C2h

    Geometry (in Angstrom), charge = 0, multiplicity = 1:

       Center              X                  Y                   Z               Mass       
    ------------   -----------------  -----------------  -----------------  -----------------
         C           -1.220987522409    -0.693186890392     0.000000000000    12.000000000000
         C           -1.211103254647     0.711282573840     0.000000000000    12.000000000000
         C           -0.010442564864    -1.404519464231     0.000000000000    12.000000000000
         C            0.010442564864     1.404519464231     0.000000000000    12.000000000000
         C            1.211103254647    -0.711282573840     0.000000000000    12.000000000000
         C            1.220987522409     0.693186890392     0.000000000000    12.000000000000
         H           -2.173173719775    -1.233207725748     0.000000000000     1.007825032230
         H           -2.154574626421     1.265441319995     0.000000000000     1.007825032230
         H           -0.018609093354    -2.498649045226     0.000000000000     1.007825032230
         H            0.018609093354     2.498649045226     0.000000000000     1.007825032230
         H            2.154574626421    -1.265441319995     0.000000000000     1.007825032230
         H            2.173173719775     1.233207725748     0.000000000000     1.007825032230

  Nuclear repulsion =  202.028576396706484

  ==> Basis Set <==

  Basis Set: 6-31G
    Blend: 6-31G
    Number of shells: 42
    Number of basis function: 66
    Number of Cartesian functions: 66
    Spherical Harmonics?: false
    Max angular momentum: 1

  ==> DFJKGrad: Density-Fitted SCF Gradients <==

    Gradient:                    1
    J tasked:                  Yes
    K tasked:                  Yes
    wK tasked:                  No
    OpenMP threads:              1
    Integrals threads:           1
    Memory [MiB]:              375
    Schwarz Cutoff:          0E+00
    Fitting Condition:       1E-10

   => Auxiliary Basis Set <=

  Basis Set: (6-31G AUX)
    Blend: CC-PVDZ-JKFIT
    Number of shells: 198
    Number of basis function: 636
    Number of Cartesian functions: 636
    Spherical Harmonics?: false
    Max angular momentum: 3

  ==> DFT Potential <==

   => Composite Functional: B3LYP <= 

    B3LYP Hyb-GGA Exchange-Correlation Functional

    P. J. Stephens, F. J. Devlin, C. F. Chabalowski, and M. J. Frisch, J. Phys. Chem. 98, 11623 (1994)

    Deriv               =              1
    GGA                 =           TRUE
    Meta                =          FALSE

    Exchange Hybrid     =           TRUE
    MP2 Hybrid          =          FALSE

   => Exchange Functionals <=

    0.0800   Slater exchange
    0.7200         Becke 88

   => Exact (HF) Exchange <=

    0.2000               HF 

   => Correlation Functionals <=

    0.1900   Vosko, Wilk & Nusair (VWN5_RPA)
    0.8100   Lee, Yang & Parr

   => Molecular Quadrature <=

    Radial Scheme          =       TREUTLER
    Pruning Scheme         =           FLAT
    Nuclear Scheme         =       TREUTLER

    BS radius alpha        =              1
    Pruning alpha          =              1
    Radial Points          =             75
    Spherical Points       =            302
    Total Points           =         263484
    Total Blocks           =           2050
    Max Points             =            256
    Max Functions          =             66


  -Total Gradient:
     Atom            X                  Y                   Z
    ------   -----------------  -----------------  -----------------
       1        0.002231409363     0.000842956305     0.000000000000
       2        0.001327843560    -0.000877370411    -0.000000000000
       3       -0.000322800282     0.001799055929     0.000000000000
       4        0.000322800282    -0.001799055929     0.000000000000
       5       -0.001327843560     0.000877370411    -0.000000000000
       6       -0.002231409363    -0.000842956305     0.000000000000
       7       -0.005236516982    -0.002934982166     0.000000000000
       8       -0.004914196584     0.002932340407    -0.000000000000
       9       -0.000036370624    -0.005699962841     0.000000000000
      10        0.000036370624     0.005699962841     0.000000000000
      11        0.004914196584    -0.002932340407     0.000000000000
      12        0.005236516982     0.002934982166     0.000000000000


*** tstop() called on atlantis at Wed Apr 20 00:44:08 2022
Module time:
	user time   =       1.68 seconds =       0.03 minutes
	system time =       0.00 seconds =       0.00 minutes
	total time  =          1 seconds =       0.02 minutes
Total time:
	user time   =      31.84 seconds =       0.53 minutes
	system time =       0.36 seconds =       0.01 minutes
	total time  =         32 seconds =       0.53 minutes

  //>>>>>>>>>>>>>>>>>>>>>>>>>>>>>>>>>>>//
  //    Loading displacement 4 of 42   //
  //<<<<<<<<<<<<<<<<<<<<<<<<<<<<<<<<<<<//
gradient() will perform analytic gradient computation.

*** tstart() called on atlantis
*** at Wed Apr 20 00:44:08 2022

   => Loading Basis Set <=

    Name: 6-31G
    Role: ORBITAL
    Keyword: BASIS
    atoms 1-6  entry C          line    87 file /home/akrom/software/anaconda3/envs/ffpenv/share/psi4/basis/6-31g.gbs 
    atoms 7-12 entry H          line    26 file /home/akrom/software/anaconda3/envs/ffpenv/share/psi4/basis/6-31g.gbs 


         ---------------------------------------------------------
                                   SCF
               by Justin Turney, Rob Parrish, Andy Simmonett
                          and Daniel G. A. Smith
                              RKS Reference
                        1 Threads,    500 MiB Core
         ---------------------------------------------------------

  ==> Geometry <==

    Molecular point group: c2h
    Full point group: C2h

    Geometry (in Angstrom), charge = 0, multiplicity = 1:

       Center              X                  Y                   Z               Mass       
    ------------   -----------------  -----------------  -----------------  -----------------
         C           -1.221510000000    -0.693729180898     0.000000000000    12.000000000000
         C           -1.211064564906     0.711348458788     0.000000000000    12.000000000000
         C           -0.010518969514    -1.404518900113     0.000000000000    12.000000000000
         C            0.010518969514     1.404518900113     0.000000000000    12.000000000000
         C            1.211064564906    -0.711348458788     0.000000000000    12.000000000000
         C            1.221510000000     0.693729180898     0.000000000000    12.000000000000
         H           -2.173240811296    -1.233089510479     0.000000000000     1.007825032230
         H           -2.154505793584     1.265558530512     0.000000000000     1.007825032230
         H           -0.018745017712    -2.498648039931     0.000000000000     1.007825032230
         H            0.018745017712     2.498648039931     0.000000000000     1.007825032230
         H            2.154505793584    -1.265558530512     0.000000000000     1.007825032230
         H            2.173240811296     1.233089510479     0.000000000000     1.007825032230

  Running in c2h symmetry.

  Rotational constants: A =      0.18755  B =      0.18747  C =      0.09375 [cm^-1]
  Rotational constants: A =   5622.68504  B =   5620.06762  C =   2810.68801 [MHz]
  Nuclear repulsion =  202.005878293187777

  Charge       = 0
  Multiplicity = 1
  Electrons    = 42
  Nalpha       = 21
  Nbeta        = 21

  ==> Algorithm <==

  SCF Algorithm Type is DF.
  DIIS enabled.
  MOM disabled.
  Fractional occupation disabled.
  Guess Type is SAD.
  Energy threshold   = 1.00e-08
  Density threshold  = 1.00e-08
  Integral threshold = 0.00e+00

  ==> Primary Basis <==

  Basis Set: 6-31G
    Blend: 6-31G
    Number of shells: 42
    Number of basis function: 66
    Number of Cartesian functions: 66
    Spherical Harmonics?: false
    Max angular momentum: 1

  ==> DFT Potential <==

   => Composite Functional: B3LYP <= 

    B3LYP Hyb-GGA Exchange-Correlation Functional

    P. J. Stephens, F. J. Devlin, C. F. Chabalowski, and M. J. Frisch, J. Phys. Chem. 98, 11623 (1994)

    Deriv               =              1
    GGA                 =           TRUE
    Meta                =          FALSE

    Exchange Hybrid     =           TRUE
    MP2 Hybrid          =          FALSE

   => Exchange Functionals <=

    0.0800   Slater exchange
[...]
      5   C                0.09  0.12 -0.00    0.00  0.00  0.20   -0.00  0.00 -0.03   
      6   C                0.31  0.08  0.00    0.00 -0.00 -0.20    0.00  0.00 -0.03   
      7   H               -0.21 -0.25 -0.00    0.00  0.00  0.36   -0.00  0.00  0.41   
      8   H                0.09  0.19  0.00   -0.00  0.00 -0.36    0.00 -0.00  0.41   
      9   H                0.10  0.32  0.00    0.00  0.00 -0.36    0.00 -0.00  0.41   
     10   H               -0.10 -0.32 -0.00    0.00 -0.00  0.36   -0.00  0.00  0.41   
     11   H               -0.09 -0.19  0.00    0.00 -0.00  0.36   -0.00  0.00  0.41   
     12   H                0.21  0.25  0.00   -0.00  0.00 -0.36    0.00  0.00  0.41   

  Vibration                       13                  14                  15          
  Freq [cm^-1]                 916.4131            916.5078           1010.1809       
  Irrep                           Bg                  Bg                  Ag          
  Reduced mass [u]              1.2479              1.2479              5.9597        
  Force const [mDyne/A]         0.6174              0.6176              3.5832        
  Turning point v=0 [a0]        0.3245              0.3245              0.1414        
  RMS dev v=0 [a0 u^1/2]        0.2563              0.2563              0.2441        
  Char temp [K]               1318.5144           1318.6506           1453.4254       
  ----------------------------------------------------------------------------------
      1   C                0.00  0.00 -0.05    0.00 -0.00 -0.07    0.24  0.13  0.00   
      2   C               -0.00  0.00  0.03    0.00 -0.00 -0.08    0.24 -0.14  0.00   
      3   C                0.00 -0.00 -0.08   -0.00  0.00  0.01   -0.00  0.27 -0.00   
      4   C                0.00 -0.00  0.08   -0.00  0.00 -0.01    0.00 -0.27  0.00   
      5   C               -0.00  0.00 -0.03    0.00 -0.00  0.08   -0.24  0.14 -0.00   
      6   C                0.00  0.00  0.05   -0.00 -0.00  0.07   -0.24 -0.13 -0.00   
      7   H               -0.00  0.00  0.35    0.00  0.00  0.45    0.26  0.15  0.00   
      8   H               -0.00  0.00 -0.22    0.00 -0.00  0.53    0.26 -0.15 -0.00   
      9   H                0.00 -0.00  0.57   -0.00  0.00 -0.07    0.01  0.30  0.00   
     10   H                0.00 -0.00 -0.57   -0.00  0.00  0.07   -0.01 -0.30 -0.00   
     11   H               -0.00 -0.00  0.22    0.00  0.00 -0.53   -0.26  0.15  0.00   
     12   H               -0.00  0.00 -0.35    0.00 -0.00 -0.45   -0.26 -0.15  0.00   

  Vibration                       16                  17                  18          
  Freq [cm^-1]                1025.3376           1025.4264           1046.1853       
  Irrep                           Au                  Au                  Bu          
  Reduced mass [u]              1.3509              1.3508              6.5413        
  Force const [mDyne/A]         0.8368              0.8369              4.2182        
  Turning point v=0 [a0]        0.2948              0.2948              0.1326        
  RMS dev v=0 [a0 u^1/2]        0.2423              0.2423              0.2399        
  Char temp [K]               1475.2326           1475.3603           1505.2277       
  ----------------------------------------------------------------------------------
      1   C                0.00 -0.00  0.04    0.00  0.00 -0.10   -0.25 -0.14 -0.00   
      2   C                0.00 -0.00  0.07    0.00 -0.00  0.08    0.25 -0.15  0.00   
      3   C               -0.00  0.00 -0.10   -0.00 -0.00  0.02    0.00  0.29 -0.00   
      4   C               -0.00  0.00 -0.10   -0.00  0.00  0.02    0.00  0.29  0.00   
      5   C                0.00 -0.00  0.07    0.00 -0.00  0.08    0.25 -0.15 -0.00   
      6   C               -0.00 -0.00  0.04    0.00  0.00 -0.10   -0.25 -0.14 -0.00   
      7   H                0.00 -0.00 -0.20   -0.00  0.00  0.53   -0.25 -0.14 -0.00   
      8   H               -0.00 -0.00 -0.36    0.00 -0.00 -0.44    0.25 -0.15 -0.00   
      9   H               -0.00  0.00  0.56   -0.00 -0.00 -0.10    0.00  0.29  0.00   
     10   H               -0.00  0.00  0.56   -0.00  0.00 -0.10    0.00  0.29 -0.00   
     11   H               -0.00 -0.00 -0.36    0.00 -0.00 -0.44    0.25 -0.15  0.00   
     12   H                0.00 -0.00 -0.20    0.00  0.00  0.53   -0.25 -0.14  0.00   

  Vibration                       19                  20                  21          
  Freq [cm^-1]                1067.6725           1077.1061           1077.3339       
  Irrep                           Bg                  Bu                  Bu          
  Reduced mass [u]              1.2589              1.8481              1.8475        
  Force const [mDyne/A]         0.8455              1.2633              1.2634        
  Turning point v=0 [a0]        0.2993              0.2459              0.2460        
  RMS dev v=0 [a0 u^1/2]        0.2375              0.2364              0.2364        
  Char temp [K]               1536.1430           1549.7159           1550.0436       
  ----------------------------------------------------------------------------------
      1   C                0.00  0.00 -0.06   -0.03  0.09  0.00   -0.12 -0.05 -0.00   
      2   C                0.00 -0.00  0.06    0.12 -0.03 -0.00   -0.00  0.10  0.00   
      3   C               -0.00 -0.00  0.06   -0.06 -0.10 -0.00    0.08 -0.08  0.00   
      4   C               -0.00 -0.00 -0.06   -0.06 -0.10 -0.00    0.08 -0.08 -0.00   
      5   C                0.00 -0.00 -0.06    0.12 -0.03  0.00   -0.00  0.10  0.00   
      6   C               -0.00  0.00  0.06   -0.03  0.09 -0.00   -0.12 -0.05  0.00   
      7   H               -0.00  0.00  0.40   -0.25  0.47 -0.00   -0.15 -0.02  0.00   
      8   H                0.00 -0.00 -0.40    0.22  0.12  0.00    0.20  0.45 -0.00   
      9   H               -0.00 -0.00 -0.40   -0.32 -0.11  0.00    0.43 -0.09 -0.00   
     10   H               -0.00 -0.00  0.40   -0.32 -0.11 -0.00    0.43 -0.09  0.00   
     11   H                0.00 -0.00  0.40    0.22  0.12 -0.00    0.20  0.45 -0.00   
     12   H               -0.00  0.00 -0.40   -0.25  0.47  0.00   -0.15 -0.02 -0.00   

  Vibration                       22                  23                  24          
  Freq [cm^-1]                1227.4378           1237.9783           1242.2850       
  Irrep                           Bu                  Ag                  Ag          
  Reduced mass [u]              1.1216              1.1597              1.1506        
  Force const [mDyne/A]         0.9956              1.0472              1.0462        
  Turning point v=0 [a0]        0.2957              0.2896              0.2902        
  RMS dev v=0 [a0 u^1/2]        0.2215              0.2205              0.2201        
  Char temp [K]               1766.0097           1781.1751           1787.3715       
  ----------------------------------------------------------------------------------
      1   C               -0.02  0.04 -0.00   -0.01  0.01 -0.00   -0.03  0.06 -0.00   
      2   C               -0.02 -0.04 -0.00    0.03  0.05  0.00   -0.02 -0.04  0.00   
      3   C                0.04 -0.00  0.00    0.06 -0.00  0.00    0.02 -0.00 -0.00   
      4   C                0.04 -0.00 -0.00   -0.06  0.00  0.00   -0.02  0.00  0.00   
      5   C               -0.02 -0.04  0.00   -0.03 -0.05 -0.00    0.02  0.04 -0.00   
      6   C               -0.02  0.04 -0.00    0.01 -0.01 -0.00    0.03 -0.06 -0.00   
      7   H               -0.20  0.35  0.00   -0.04  0.07  0.00   -0.28  0.49  0.00   
      8   H               -0.21 -0.35  0.00    0.23  0.38 -0.00   -0.18 -0.31 -0.00   
      9   H                0.41 -0.00 -0.00    0.54 -0.00 -0.00    0.21 -0.00  0.00   
     10   H                0.41 -0.00  0.00   -0.54  0.00 -0.00   -0.21  0.00 -0.00   
     11   H               -0.21 -0.35 -0.00   -0.23 -0.38  0.00    0.18  0.31  0.00   
     12   H               -0.20  0.35  0.00    0.04 -0.07  0.00    0.28 -0.49 -0.00   

  Vibration                       25                  26                  27          
  Freq [cm^-1]                1350.9151           1430.1197           1542.8585       
  Irrep                           Bu                  Ag                  Bu          
  Reduced mass [u]              5.4360              1.2479              1.8394        
  Force const [mDyne/A]         5.8450              1.5038              2.5797        
  Turning point v=0 [a0]        0.1280              0.2597              0.2060        
  RMS dev v=0 [a0 u^1/2]        0.2111              0.2052              0.1975        
  Char temp [K]               1943.6660           2057.6238           2219.8299       
  ----------------------------------------------------------------------------------
      1   C               -0.13  0.23  0.00   -0.03  0.05  0.00   -0.04  0.12  0.00   
      2   C               -0.13 -0.22 -0.00    0.03  0.05  0.00    0.08 -0.01 -0.00   
      3   C                0.26 -0.00  0.00   -0.06  0.00 -0.00   -0.10 -0.06 -0.00   
      4   C                0.26 -0.00 -0.00    0.06 -0.00  0.00   -0.10 -0.06  0.00   
      5   C               -0.13 -0.22  0.00   -0.03 -0.05 -0.00    0.08 -0.01 -0.00   
      6   C               -0.13  0.23  0.00    0.03 -0.05 -0.00   -0.04  0.12 -0.00   
      7   H                0.16 -0.27 -0.00    0.20 -0.35 -0.00    0.28 -0.44 -0.00   
      8   H                0.16  0.27  0.00   -0.21 -0.35 -0.00    0.02 -0.16 -0.00   
      9   H               -0.32  0.00 -0.00    0.40 -0.00  0.00    0.39 -0.07  0.00   
     10   H               -0.32  0.00  0.00   -0.40  0.00 -0.00    0.39 -0.07 -0.00   
     11   H                0.16  0.27 -0.00    0.21  0.35  0.00    0.02 -0.16  0.00   
     12   H                0.16 -0.27  0.00   -0.20  0.35 -0.00    0.28 -0.44 -0.00   

  Vibration                       28                  29                  30          
  Freq [cm^-1]                1542.9343           1638.7961           1649.3832       
  Irrep                           Bu                  Ag                  Ag          
  Reduced mass [u]              1.8399              4.7304              4.9592        
  Force const [mDyne/A]         2.5807              7.4851              7.9489        
  Turning point v=0 [a0]        0.2059              0.1246              0.1213        
  RMS dev v=0 [a0 u^1/2]        0.1975              0.1917              0.1910        
  Char temp [K]               2219.9389           2357.8627           2373.0952       
  ----------------------------------------------------------------------------------
      1   C                0.09  0.01  0.00   -0.03 -0.19  0.00   -0.19  0.20  0.00   
      2   C               -0.05 -0.12 -0.00    0.16  0.26  0.00    0.12 -0.08 -0.00   
      3   C               -0.09  0.06  0.00    0.16  0.12  0.00    0.27 -0.08 -0.00   
      4   C               -0.09  0.06  0.00   -0.16 -0.12  0.00   -0.27  0.08 -0.00   
      5   C               -0.05 -0.12 -0.00   -0.16 -0.26  0.00   -0.12  0.08 -0.00   
      6   C                0.09  0.01  0.00    0.03  0.19 -0.00    0.19 -0.20  0.00   
      7   H                0.01  0.18  0.00   -0.23  0.12  0.00    0.11 -0.36 -0.00   
      8   H                0.29  0.44 -0.00   -0.22 -0.38 -0.00    0.14 -0.07  0.00   
      9   H                0.38  0.07  0.00   -0.23  0.14  0.00   -0.38 -0.08 -0.00   
     10   H                0.38  0.07 -0.00    0.23 -0.14 -0.00    0.38  0.08  0.00   
     11   H                0.29  0.44  0.00    0.22  0.38  0.00   -0.14  0.07  0.00   
     12   H                0.01  0.18 -0.00    0.23 -0.12  0.00   -0.11  0.36 -0.00   

  Vibration                       31                  32                  33          
  Freq [cm^-1]                3105.2506           3115.1112           3115.4768       
  Irrep                           Bu                  Ag                  Ag          
  Reduced mass [u]              1.0838              1.0874              1.0876        
  Force const [mDyne/A]         6.1572              6.2169              6.2198        
  Turning point v=0 [a0]        0.1891              0.1885              0.1885        
  RMS dev v=0 [a0 u^1/2]        0.1392              0.1390              0.1390        
  Char temp [K]               4467.7643           4481.9515           4482.4775       
  ----------------------------------------------------------------------------------
      1   C                0.03  0.02 -0.00    0.01  0.00  0.00   -0.04 -0.02 -0.00   
      2   C               -0.03  0.02  0.00   -0.04  0.02  0.00    0.02 -0.01  0.00   
      3   C               -0.00 -0.03 -0.00   -0.00  0.04 -0.00    0.00  0.03 -0.00   
      4   C               -0.00 -0.03 -0.00    0.00 -0.04  0.00   -0.00 -0.03 -0.00   
      5   C               -0.03  0.02 -0.00    0.04 -0.02  0.00   -0.02  0.01  0.00   
      6   C                0.03  0.02  0.00   -0.01 -0.00 -0.00    0.04  0.02 -0.00   
      7   H               -0.35 -0.20  0.00   -0.06 -0.03  0.00    0.50  0.28  0.00   
      8   H                0.35 -0.21 -0.00    0.46 -0.27 -0.00   -0.20  0.11 -0.00   
      9   H                0.00  0.41  0.00   -0.00 -0.46  0.00   -0.00 -0.34  0.00   
     10   H                0.00  0.41 -0.00    0.00  0.46 -0.00    0.00  0.34 -0.00   
     11   H                0.35 -0.21 -0.00   -0.46  0.27  0.00    0.20 -0.11  0.00   
     12   H               -0.35 -0.20  0.00    0.06  0.03 -0.00   -0.50 -0.28 -0.00   

  Vibration                       34                  35                  36          
  Freq [cm^-1]                3133.8179           3133.9301           3148.3145       
  Irrep                           Bu                  Bu                  Ag          
  Reduced mass [u]              1.0958              1.0958              1.1016        
  Force const [mDyne/A]         6.3403              6.3408              6.4332        
  Turning point v=0 [a0]        0.1872              0.1872              0.1863        
  RMS dev v=0 [a0 u^1/2]        0.1386              0.1386              0.1383        
  Char temp [K]               4508.8663           4509.0277           4529.7236       
  ----------------------------------------------------------------------------------
      1   C               -0.04 -0.02 -0.00   -0.03 -0.01 -0.00   -0.03 -0.02 -0.00   
      2   C               -0.04  0.02 -0.00    0.02 -0.01  0.00   -0.03  0.02  0.00   
      3   C                0.00  0.00  0.00   -0.00 -0.05  0.00   -0.00 -0.04 -0.00   
      4   C                0.00  0.00 -0.00   -0.00 -0.05  0.00    0.00  0.04  0.00   
      5   C               -0.04  0.02  0.00    0.02 -0.01 -0.00    0.03 -0.02  0.00   
      6   C               -0.04 -0.02  0.00   -0.03 -0.01 -0.00    0.03  0.02 -0.00   
      7   H                0.41  0.24  0.00    0.29  0.16 -0.00    0.35  0.20 -0.00   
      8   H                0.45 -0.27  0.00   -0.21  0.12 -0.00    0.35 -0.20 -0.00   
      9   H               -0.01 -0.05 -0.00    0.00  0.57  0.00    0.00  0.41  0.00   
     10   H               -0.01 -0.05  0.00    0.00  0.57 -0.00   -0.00 -0.41 -0.00   
     11   H                0.45 -0.27 -0.00   -0.21  0.12  0.00   -0.35  0.20 -0.00   
     12   H                0.41  0.24  0.00    0.29  0.16 -0.00   -0.35 -0.20 -0.00   

  ==> Thermochemistry Components <==

  Entropy, S
    Electronic S            0.000 [cal/(mol K)]        0.000 [J/(mol K)]       0.00000000 [mEh/K] (multiplicity = 1)
    Translational S        38.979 [cal/(mol K)]      163.089 [J/(mol K)]       0.06211726 [mEh/K] (mol. weight = 78.0470 [u], P = 101325.00 [Pa])
    Rotational S           24.318 [cal/(mol K)]      101.746 [J/(mol K)]       0.03875307 [mEh/K] (symmetry no. = 2)
    Vibrational S           3.949 [cal/(mol K)]       16.525 [J/(mol K)]       0.00629387 [mEh/K]
  Total S                  67.247 [cal/(mol K)]      281.360 [J/(mol K)]       0.10716421 [mEh/K]
  Correction S              0.000 [cal/(mol K)]        0.000 [J/(mol K)]       0.00000000 [mEh/K]

  Constant volume heat capacity, Cv
    Electronic Cv           0.000 [cal/(mol K)]        0.000 [J/(mol K)]       0.00000000 [mEh/K]
    Translational Cv        2.981 [cal/(mol K)]       12.472 [J/(mol K)]       0.00475022 [mEh/K]
    Rotational Cv           2.981 [cal/(mol K)]       12.472 [J/(mol K)]       0.00475022 [mEh/K]
    Vibrational Cv         10.416 [cal/(mol K)]       43.579 [J/(mol K)]       0.01659821 [mEh/K]
  Total Cv                 16.377 [cal/(mol K)]       68.522 [J/(mol K)]       0.02609864 [mEh/K]
  Correction Cv             0.000 [cal/(mol K)]        0.000 [J/(mol K)]       0.00000000 [mEh/K]

  Constant pressure heat capacity, Cp
    Electronic Cp           0.000 [cal/(mol K)]        0.000 [J/(mol K)]       0.00000000 [mEh/K]
    Translational Cp        4.968 [cal/(mol K)]       20.786 [J/(mol K)]       0.00791703 [mEh/K]
    Rotational Cp           2.981 [cal/(mol K)]       12.472 [J/(mol K)]       0.00475022 [mEh/K]
    Vibrational Cp         10.416 [cal/(mol K)]       43.579 [J/(mol K)]       0.01659821 [mEh/K]
  Total Cp                 18.364 [cal/(mol K)]       76.836 [J/(mol K)]       0.02926545 [mEh/K]
  Correction Cp             0.000 [cal/(mol K)]        0.000 [J/(mol K)]       0.00000000 [mEh/K]

  ==> Thermochemistry Energy Analysis <==

  Raw electronic energy, E0
  Total E0, Electronic energy at well bottom at 0 [K]                 -232.19827994 [Eh]

  Zero-point energy, ZPE_vib = Sum_i nu_i / 2
    Electronic ZPE          0.000 [kcal/mol]        0.000 [kJ/mol]       0.00000000 [Eh]
    Translational ZPE       0.000 [kcal/mol]        0.000 [kJ/mol]       0.00000000 [Eh]
    Rotational ZPE          0.000 [kcal/mol]        0.000 [kJ/mol]       0.00000000 [Eh]
    Vibrational ZPE        63.503 [kcal/mol]      265.699 [kJ/mol]       0.10119925 [Eh]       22210.667 [cm^-1]
  Correction ZPE           63.503 [kcal/mol]      265.699 [kJ/mol]       0.10119925 [Eh]       22210.667 [cm^-1]
  Total ZPE, Electronic energy at 0 [K]                               -232.09708070 [Eh]

  Thermal Energy, E (includes ZPE)
    Electronic E            0.000 [kcal/mol]        0.000 [kJ/mol]       0.00000000 [Eh]
    Translational E         0.889 [kcal/mol]        3.718 [kJ/mol]       0.00141628 [Eh]
    Rotational E            0.889 [kcal/mol]        3.718 [kJ/mol]       0.00141628 [Eh]
    Vibrational E          64.390 [kcal/mol]      269.407 [kJ/mol]       0.10261170 [Eh]
  Correction E             66.167 [kcal/mol]      276.844 [kJ/mol]       0.10544426 [Eh]
  Total E, Electronic energy at  298.15 [K]                           -232.09283569 [Eh]

  Enthalpy, H_trans = E_trans + k_B * T
    Electronic H            0.000 [kcal/mol]        0.000 [kJ/mol]       0.00000000 [Eh]
    Translational H         1.481 [kcal/mol]        6.197 [kJ/mol]       0.00236046 [Eh]
    Rotational H            0.889 [kcal/mol]        3.718 [kJ/mol]       0.00141628 [Eh]
    Vibrational H          64.390 [kcal/mol]      269.407 [kJ/mol]       0.10261170 [Eh]
  Correction H             66.760 [kcal/mol]      279.323 [kJ/mol]       0.10638844 [Eh]
  Total H, Enthalpy at  298.15 [K]                                    -232.09189150 [Eh]

  Gibbs free energy, G = H - T * S
    Electronic G            0.000 [kcal/mol]        0.000 [kJ/mol]       0.00000000 [Eh]
    Translational G       -10.140 [kcal/mol]      -42.428 [kJ/mol]      -0.01615980 [Eh]
    Rotational G           -6.362 [kcal/mol]      -26.617 [kJ/mol]      -0.01013795 [Eh]
    Vibrational G          63.212 [kcal/mol]      264.480 [kJ/mol]       0.10073518 [Eh]
  Correction G             46.710 [kcal/mol]      195.435 [kJ/mol]       0.07443743 [Eh]
  Total G, Free enthalpy at  298.15 [K]                               -232.12384251 [Eh]

    Psi4 stopped on: Wednesday, 20 April 2022 12:48AM
    Psi4 wall time for execution: 0:05:05.06

*** Psi4 exiting successfully. Buy a developer a beer!
