
    -----------------------------------------------------------------------
          Psi4: An Open-Source Ab Initio Electronic Structure Package
                               Psi4 1.3.2 release

                         Git: Rev {HEAD} ecbda83 


    R. M. Parrish, L. A. Burns, D. G. A. Smith, A. C. Simmonett,
    A. E. DePrince III, E. G. Hohenstein, U. Bozkaya, A. Yu. Sokolov,
    R. Di Remigio, R. M. Richard, J. F. Gonthier, A. M. James,
    H. R. McAlexander, A. Kumar, M. Saitow, X. Wang, B. P. Pritchard,
    P. Verma, H. F. Schaefer III, K. Patkowski, R. A. King, E. F. Valeev,
    F. A. Evangelista, J. M. Turney, T. D. Crawford, and C. D. Sherrill,
    J. Chem. Theory Comput. 13(7) pp 3185--3197 (2017).
    (doi: 10.1021/acs.jctc.7b00174)


                         Additional Contributions by
    P. Kraus, H. Kruse, M. H. Lechner, M. C. Schieber, R. A. Shaw,
    A. Alenaizan, R. Galvelis, Z. L. Glick, S. Lehtola, and J. P. Misiewicz

    -----------------------------------------------------------------------


    Psi4 started on: Tuesday, 19 April 2022 09:54AM

    Process ID: 27020
    Host:       atlantis
    PSIDATADIR: /home/akrom/software/anaconda3/envs/ffpenv/share/psi4
    Memory:     500.0 MiB
    Threads:    1
    
  ==> Input File <==

--------------------------------------------------------------------------
set basis  6-311++G**
molecule {
0 1
   C        0.32153        0.81326        0.00000
   C       -0.86505       -0.12817        0.00000
   C        0.54353       -0.68508        0.00000
   H        0.53795        1.36069       -0.92039
   H        0.53795        1.36069        0.92039
   H       -1.44742       -0.21449        0.92034
   H       -1.44742       -0.21449       -0.92034
   H        0.90937       -1.14629       -0.92037
   H        0.90937       -1.14629        0.92037
}
energy('m06-2x')
frequencies('m06-2x')
--------------------------------------------------------------------------

*** tstart() called on atlantis
*** at Tue Apr 19 09:54:29 2022

   => Loading Basis Set <=

    Name: 6-311++G**
    Role: ORBITAL
    Keyword: BASIS
    atoms 1-3 entry C          line   119 file /home/akrom/software/anaconda3/envs/ffpenv/share/psi4/basis/6-311ppgss.gbs 
    atoms 4-9 entry H          line    42 file /home/akrom/software/anaconda3/envs/ffpenv/share/psi4/basis/6-311ppgss.gbs 


         ---------------------------------------------------------
                                   SCF
               by Justin Turney, Rob Parrish, Andy Simmonett
                          and Daniel G. A. Smith
                              RKS Reference
                        1 Threads,    500 MiB Core
         ---------------------------------------------------------

  ==> Geometry <==

    Molecular point group: cs
    Full point group: Cs

    Geometry (in Angstrom), charge = 0, multiplicity = 1:

       Center              X                  Y                   Z               Mass       
    ------------   -----------------  -----------------  -----------------  -----------------
         C            0.321531939855     0.813261460475     0.000000000000    12.000000000000
         C           -0.865048060145    -0.128168539525     0.000000000000    12.000000000000
         C            0.543531939855    -0.685078539525     0.000000000000    12.000000000000
         H            0.537951939855     1.360691460475    -0.920390000000     1.007825032230
         H            0.537951939855     1.360691460475     0.920390000000     1.007825032230
         H           -1.447418060145    -0.214488539525     0.920340000000     1.007825032230
         H           -1.447418060145    -0.214488539525    -0.920340000000     1.007825032230
         H            0.909371939855    -1.146288539525    -0.920370000000     1.007825032230
         H            0.909371939855    -1.146288539525     0.920370000000     1.007825032230

  Running in cs symmetry.

  Rotational constants: A =      0.66472  B =      0.66470  C =      0.41647 [cm^-1]
  Rotational constants: A =  19927.70596  B =  19927.20236  C =  12485.44714 [MHz]
  Nuclear repulsion =   75.281464809014025

  Charge       = 0
  Multiplicity = 1
  Electrons    = 24
  Nalpha       = 12
  Nbeta        = 12

  ==> Algorithm <==

  SCF Algorithm Type is DF.
  DIIS enabled.
  MOM disabled.
  Fractional occupation disabled.
  Guess Type is SAD.
  Energy threshold   = 1.00e-06
  Density threshold  = 1.00e-06
  Integral threshold = 0.00e+00

  ==> Primary Basis <==

  Basis Set: 6-311++G**
    Blend: 6-311++G**
    Number of shells: 60
    Number of basis function: 108
    Number of Cartesian functions: 111
    Spherical Harmonics?: true
    Max angular momentum: 2

  ==> DFT Potential <==

   => Composite Functional: M06-2X <= 

    Hybrid M06-2X Meta-GGA XC Functional

    Y. Zhao and D. G. Truhlar,  Theor. Chem. Acc., 120, 215, 2008


    Deriv               =              1
    GGA                 =           TRUE
    Meta                =           TRUE

    Exchange Hybrid     =           TRUE
    MP2 Hybrid          =          FALSE

   => Exchange Functionals <=

    1.0000   XC_HYB_MGGA_X_M06_2X

   => Exact (HF) Exchange <=

    0.5400               HF 

   => Correlation Functionals <=

    1.0000   XC_MGGA_C_M06_2X

   => Molecular Quadrature <=

    Radial Scheme          =       TREUTLER
    Pruning Scheme         =           FLAT
    Nuclear Scheme         =       TREUTLER

    BS radius alpha        =              1
    Pruning alpha          =              1
    Radial Points          =             75
    Spherical Points       =            302
    Total Points           =         203850
    Total Blocks           =           1576
    Max Points             =            256
    Max Functions          =            108

   => Loading Basis Set <=

    Name: (6-311++G** AUX)
    Role: JKFIT
    Keyword: DF_BASIS_SCF
    atoms 1-3 entry C          line   162 file /home/akrom/software/anaconda3/envs/ffpenv/share/psi4/basis/aug-cc-pvtz-jkfit.gbs 
    atoms 4-9 entry H          line    70 file /home/akrom/software/anaconda3/envs/ffpenv/share/psi4/basis/aug-cc-pvtz-jkfit.gbs 

  ==> Pre-Iterations <==

   -------------------------------------------------------
    Irrep   Nso     Nmo     Nalpha   Nbeta   Ndocc  Nsocc
   -------------------------------------------------------
     A'        69      69       0       0       0       0
     A"        39      39       0       0       0       0
   -------------------------------------------------------
    Total     108     108      12      12      12       0
   -------------------------------------------------------

  ==> Integral Setup <==

  DFHelper Memory: AOs need 0.056 GiB; user supplied 0.056 GiB. Using in-core AOs.

  ==> MemDFJK: Density-Fitted J/K Matrices <==

    J tasked:                   Yes
    K tasked:                   Yes
    wK tasked:                   No
    OpenMP threads:               1
    Memory [MiB]:                57
    Algorithm:                 Core
    Schwarz Cutoff:           1E-12
    Mask sparsity (%):       0.0000
    Fitting Condition:        1E-10

   => Auxiliary Basis Set <=

  Basis Set: (6-311++G** AUX)
    Blend: AUG-CC-PVTZ-JKFIT
    Number of shells: 174
    Number of basis function: 588
    Number of Cartesian functions: 723
    Spherical Harmonics?: true
    Max angular momentum: 4

  Cached 25.0% of DFT collocation blocks in 0.355 [GiB].

  Minimum eigenvalue in the overlap matrix is 8.8978795943E-05.
  Using Symmetric Orthogonalization.

  SCF Guess: Superposition of Atomic Densities via on-the-fly atomic UHF.

  ==> Iterations <==

                           Total Energy        Delta E     RMS |[F,P]|

   @DF-RKS iter SAD:  -117.43804367181183   -1.17438e+02   0.00000e+00 
   @DF-RKS iter   1:  -117.56900832335096   -1.30965e-01   9.56876e-03 DIIS
   @DF-RKS iter   2:  -117.55863480460253    1.03735e-02   9.61540e-03 DIIS
   @DF-RKS iter   3:  -117.86403435054740   -3.05400e-01   4.88798e-04 DIIS
   @DF-RKS iter   4:  -117.86479901106081   -7.64661e-04   6.55220e-05 DIIS
   @DF-RKS iter   5:  -117.86481742043732   -1.84094e-05   9.80836e-06 DIIS
   @DF-RKS iter   6:  -117.86481799750675   -5.77069e-07   1.12681e-06 DIIS
   @DF-RKS iter   7:  -117.86481801124202   -1.37353e-08   1.48577e-07 DIIS
  Energy and wave function converged.


  ==> Post-Iterations <==

    Orbital Energies [Eh]
    ---------------------

    Doubly Occupied:                                                      

       1Ap   -10.539153     2Ap   -10.538556     3Ap   -10.538546  
       4Ap    -0.944601     5Ap    -0.678503     6Ap    -0.678492  
       1App   -0.565877     7Ap    -0.528771     2App   -0.424644  
       3App   -0.424623     8Ap    -0.350474     9Ap    -0.350443  

    Virtual:                                                              

      10Ap     0.004905     4App    0.018274    11Ap     0.021119  
      12Ap     0.021120     5App    0.057405     6App    0.057408  
      13Ap     0.077499    14Ap     0.086692    15Ap     0.086693  
      16Ap     0.117265    17Ap     0.129428    18Ap     0.129433  
       7App    0.146972     8App    0.156741     9App    0.156749  
      19Ap     0.158461    20Ap     0.166509    21Ap     0.166511  
      10App    0.191479    22Ap     0.213903    23Ap     0.215959  
      11App    0.277882    12App    0.277891    24Ap     0.289793  
      25Ap     0.289812    26Ap     0.348569    27Ap     0.348577  
      28Ap     0.435992    13App    0.477116    29Ap     0.531631  
      30Ap     0.531653    14App    0.590575    15App    0.590648  
      31Ap     0.605251    32Ap     0.689196    33Ap     0.689219  
      16App    0.689346    34Ap     0.693393    17App    0.710533  
      18App    0.710581    35Ap     0.737853    36Ap     0.737901  
      37Ap     0.808228    38Ap     0.951200    39Ap     0.951211  
      19App    1.237544    40Ap     1.263515    20App    1.282001  
      21App    1.282044    22App    1.403911    41Ap     1.506916  
      42Ap     1.506923    23App    1.564202    24App    1.564286  
      43Ap     1.637789    25App    1.673795    44Ap     1.695059  
      45Ap     1.695110    26App    1.786022    27App    1.786039  
      46Ap     1.801362    47Ap     1.850373    48Ap     1.850453  
      49Ap     2.052374    50Ap     2.052451    28App    2.069366  
      29App    2.069432    51Ap     2.145050    52Ap     2.247727  
      53Ap     2.247828    54Ap     2.293652    30App    2.396265  
      55Ap     2.410362    31App    2.458850    32App    2.572520  
      33App    2.572561    56Ap     2.674172    57Ap     2.674395  
      34App    2.749065    58Ap     2.771067    59Ap     2.776203  
      60Ap     2.776249    61Ap     2.982455    62Ap     2.982510  
      35App    2.993970    36App    2.994162    63Ap     3.405226  
      64Ap     3.560487    37App    3.574468    38App    3.897712  
      39App    3.897952    65Ap     4.413180    66Ap     4.413376  
      67Ap    23.960228    68Ap    23.960257    69Ap    23.976084  

    Final Occupation by Irrep:
             Ap   App 
    DOCC [     9,    3 ]

  @DF-RKS Final Energy:  -117.86481801124202

   => Energetics <=

    Nuclear Repulsion Energy =             75.2814648090140253
    One-Electron Energy =                -305.8497442204350136
    Two-Electron Energy =                 121.6145658880524536
    DFT Exchange-Correlation Energy =      -8.9111044878734891
    Empirical Dispersion Energy =           0.0000000000000000
    VV10 Nonlocal Energy =                  0.0000000000000000
    Total Energy =                       -117.8648180112420079

Computation Completed


Properties will be evaluated at   0.000000,   0.000000,   0.000000 [a0]

Properties computed using the SCF density matrix

  Nuclear Dipole Moment: [e a0]
     X:    -0.0002      Y:    -0.0002      Z:     0.0000

  Electronic Dipole Moment: [e a0]
     X:     0.0003      Y:     0.0001      Z:     0.0000

  Dipole Moment: [e a0]
     X:     0.0001      Y:    -0.0001      Z:     0.0000     Total:     0.0001

  Dipole Moment: [D]
     X:     0.0002      Y:    -0.0002      Z:     0.0000     Total:     0.0003


*** tstop() called on atlantis at Tue Apr 19 09:54:41 2022
Module time:
	user time   =      12.18 seconds =       0.20 minutes
	system time =       0.11 seconds =       0.00 minutes
	total time  =         12 seconds =       0.20 minutes
Total time:
	user time   =      12.18 seconds =       0.20 minutes
	system time =       0.11 seconds =       0.00 minutes
	total time  =         12 seconds =       0.20 minutes
gradient() will perform analytic gradient computation.

*** tstart() called on atlantis
*** at Tue Apr 19 09:54:41 2022

   => Loading Basis Set <=

    Name: 6-311++G**
    Role: ORBITAL
    Keyword: BASIS
    atoms 1-3 entry C          line   119 file /home/akrom/software/anaconda3/envs/ffpenv/share/psi4/basis/6-311ppgss.gbs 
    atoms 4-9 entry H          line    42 file /home/akrom/software/anaconda3/envs/ffpenv/share/psi4/basis/6-311ppgss.gbs 


         ---------------------------------------------------------
                                   SCF
               by Justin Turney, Rob Parrish, Andy Simmonett
                          and Daniel G. A. Smith
                              RKS Reference
                        1 Threads,    500 MiB Core
         ---------------------------------------------------------

  ==> Geometry <==

    Molecular point group: cs
    Full point group: Cs

    Geometry (in Angstrom), charge = 0, multiplicity = 1:

       Center              X                  Y                   Z               Mass       
    ------------   -----------------  -----------------  -----------------  -----------------
         C            0.321531939855     0.813261460475     0.000000000000    12.000000000000
         C           -0.865048060145    -0.128168539525     0.000000000000    12.000000000000
         C            0.543531939855    -0.685078539525     0.000000000000    12.000000000000
         H            0.537951939855     1.360691460475    -0.920390000000     1.007825032230
         H            0.537951939855     1.360691460475     0.920390000000     1.007825032230
         H           -1.447418060145    -0.214488539525     0.920340000000     1.007825032230
         H           -1.447418060145    -0.214488539525    -0.920340000000     1.007825032230
         H            0.909371939855    -1.146288539525    -0.920370000000     1.007825032230
         H            0.909371939855    -1.146288539525     0.920370000000     1.007825032230

  Running in cs symmetry.

  Rotational constants: A =      0.66472  B =      0.66470  C =      0.41647 [cm^-1]
  Rotational constants: A =  19927.70596  B =  19927.20236  C =  12485.44714 [MHz]
  Nuclear repulsion =   75.281464809014025

  Charge       = 0
  Multiplicity = 1
  Electrons    = 24
  Nalpha       = 12
  Nbeta        = 12

  ==> Algorithm <==

  SCF Algorithm Type is DF.
  DIIS enabled.
  MOM disabled.
  Fractional occupation disabled.
  Guess Type is SAD.
  Energy threshold   = 1.00e-08
  Density threshold  = 1.00e-08
  Integral threshold = 0.00e+00

  ==> Primary Basis <==

  Basis Set: 6-311++G**
    Blend: 6-311++G**
    Number of shells: 60
    Number of basis function: 108
    Number of Cartesian functions: 111
    Spherical Harmonics?: true
    Max angular momentum: 2

  ==> DFT Potential <==

   => Composite Functional: M06-2X <= 

    Hybrid M06-2X Meta-GGA XC Functional

    Y. Zhao and D. G. Truhlar,  Theor. Chem. Acc., 120, 215, 2008


    Deriv               =              1
    GGA                 =           TRUE
    Meta                =           TRUE

    Exchange Hybrid     =           TRUE
    MP2 Hybrid          =          FALSE

   => Exchange Functionals <=

    1.0000   XC_HYB_MGGA_X_M06_2X

   => Exact (HF) Exchange <=

    0.5400               HF 

   => Correlation Functionals <=

    1.0000   XC_MGGA_C_M06_2X

   => Molecular Quadrature <=

    Radial Scheme          =       TREUTLER
    Pruning Scheme         =           FLAT
    Nuclear Scheme         =       TREUTLER

    BS radius alpha        =              1
    Pruning alpha          =              1
    Radial Points          =             75
    Spherical Points       =            302
    Total Points           =         203850
    Total Blocks           =           1576
    Max Points             =            256
    Max Functions          =            108

   => Loading Basis Set <=

    Name: (6-311++G** AUX)
    Role: JKFIT
    Keyword: DF_BASIS_SCF
    atoms 1-3 entry C          line   162 file /home/akrom/software/anaconda3/envs/ffpenv/share/psi4/basis/aug-cc-pvtz-jkfit.gbs 
    atoms 4-9 entry H          line    70 file /home/akrom/software/anaconda3/envs/ffpenv/share/psi4/basis/aug-cc-pvtz-jkfit.gbs 

  ==> Pre-Iterations <==

   -------------------------------------------------------
    Irrep   Nso     Nmo     Nalpha   Nbeta   Ndocc  Nsocc
   -------------------------------------------------------
     A'        69      69       0       0       0       0
     A"        39      39       0       0       0       0
   -------------------------------------------------------
    Total     108     108      12      12      12       0
   -------------------------------------------------------

  ==> Integral Setup <==

  DFHelper Memory: AOs need 0.056 GiB; user supplied 0.056 GiB. Using in-core AOs.

  ==> MemDFJK: Density-Fitted J/K Matrices <==

    J tasked:                   Yes
    K tasked:                   Yes
    wK tasked:                   No
    OpenMP threads:               1
    Memory [MiB]:                57
    Algorithm:                 Core
    Schwarz Cutoff:           1E-12
    Mask sparsity (%):       0.0000
    Fitting Condition:        1E-10

   => Auxiliary Basis Set <=

  Basis Set: (6-311++G** AUX)
    Blend: AUG-CC-PVTZ-JKFIT
    Number of shells: 174
    Number of basis function: 588
    Number of Cartesian functions: 723
    Spherical Harmonics?: true
    Max angular momentum: 4

  Cached 25.0% of DFT collocation blocks in 0.355 [GiB].

  Minimum eigenvalue in the overlap matrix is 8.8978795942E-05.
  Using Symmetric Orthogonalization.

  SCF Guess: Superposition of Atomic Densities via on-the-fly atomic UHF.

  ==> Iterations <==

                           Total Energy        Delta E     RMS |[F,P]|

   @DF-RKS iter SAD:  -117.43804367177860   -1.17438e+02   0.00000e+00 
   @DF-RKS iter   1:  -117.56900832331075   -1.30965e-01   9.56876e-03 DIIS
   @DF-RKS iter   2:  -117.55863480455804    1.03735e-02   9.61540e-03 DIIS
   @DF-RKS iter   3:  -117.86403435051166   -3.05400e-01   4.88798e-04 DIIS
   @DF-RKS iter   4:  -117.86479901102517   -7.64661e-04   6.55220e-05 DIIS
   @DF-RKS iter   5:  -117.86481742040154   -1.84094e-05   9.80836e-06 DIIS
   @DF-RKS iter   6:  -117.86481799747079   -5.77069e-07   1.12681e-06 DIIS
   @DF-RKS iter   7:  -117.86481801120601   -1.37352e-08   1.48577e-07 DIIS
   @DF-RKS iter   8:  -117.86481801135059   -1.44581e-10   1.05307e-07 DIIS
   @DF-RKS iter   9:  -117.86481801138511   -3.45182e-11   1.77655e-08 DIIS
   @DF-RKS iter  10:  -117.86481801138666   -1.54898e-12   9.27652e-10 DIIS
  Energy and wave function converged.


  ==> Post-Iterations <==

    Orbital Energies [Eh]
    ---------------------

    Doubly Occupied:                                                      

       1Ap   -10.539153     2Ap   -10.538554     3Ap   -10.538548  
       4Ap    -0.944600     5Ap    -0.678502     6Ap    -0.678493  
       1App   -0.565877     7Ap    -0.528771     2App   -0.424643  
       3App   -0.424624     8Ap    -0.350473     9Ap    -0.350443  

    Virtual:                                                              

      10Ap     0.004905     4App    0.018273    11Ap     0.021119  
      12Ap     0.021120     5App    0.057405     6App    0.057408  
      13Ap     0.077499    14Ap     0.086692    15Ap     0.086693  
      16Ap     0.117265    17Ap     0.129428    18Ap     0.129433  
       7App    0.146972     8App    0.156740     9App    0.156748  
      19Ap     0.158461    20Ap     0.166509    21Ap     0.166511  
      10App    0.191479    22Ap     0.213903    23Ap     0.215959  
      11App    0.277882    12App    0.277891    24Ap     0.289793  
      25Ap     0.289812    26Ap     0.348569    27Ap     0.348577  
      28Ap     0.435991    13App    0.477116    29Ap     0.531631  
      30Ap     0.531653    14App    0.590575    15App    0.590648  
      31Ap     0.605251    32Ap     0.689196    33Ap     0.689219  
      16App    0.689346    34Ap     0.693393    17App    0.710533  
      18App    0.710582    35Ap     0.737853    36Ap     0.737901  
      37Ap     0.808228    38Ap     0.951200    39Ap     0.951212  
      19App    1.237544    40Ap     1.263516    20App    1.282001  
      21App    1.282044    22App    1.403911    41Ap     1.506916  
      42Ap     1.506923    23App    1.564201    24App    1.564286  
      43Ap     1.637789    25App    1.673795    44Ap     1.695059  
      45Ap     1.695110    26App    1.786022    27App    1.786039  
      46Ap     1.801362    47Ap     1.850373    48Ap     1.850454  
      49Ap     2.052375    50Ap     2.052451    28App    2.069366  
      29App    2.069432    51Ap     2.145050    52Ap     2.247727  
      53Ap     2.247828    54Ap     2.293653    30App    2.396265  
      55Ap     2.410363    31App    2.458850    32App    2.572519  
      33App    2.572562    56Ap     2.674171    57Ap     2.674396  
      34App    2.749064    58Ap     2.771067    59Ap     2.776202  
      60Ap     2.776249    61Ap     2.982456    62Ap     2.982509  
      35App    2.993969    36App    2.994163    63Ap     3.405226  
      64Ap     3.560488    37App    3.574468    38App    3.897712  
      39App    3.897953    65Ap     4.413180    66Ap     4.413376  
      67Ap    23.960231    68Ap    23.960255    69Ap    23.976085  

    Final Occupation by Irrep:
             Ap   App 
    DOCC [     9,    3 ]

  @DF-RKS Final Energy:  -117.86481801138666

   => Energetics <=

    Nuclear Repulsion Energy =             75.2814648090140253
    One-Electron Energy =                -305.8497522550499639
    Two-Electron Energy =                 121.6145742435469543
    DFT Exchange-Correlation Energy =      -8.9111048088976954
    Empirical Dispersion Energy =           0.0000000000000000
    VV10 Nonlocal Energy =                  0.0000000000000000
    Total Energy =                       -117.8648180113866601

Computation Completed


Properties will be evaluated at   0.000000,   0.000000,   0.000000 [a0]

Properties computed using the SCF density matrix

  Nuclear Dipole Moment: [e a0]
     X:    -0.0002      Y:    -0.0002      Z:     0.0000

  Electronic Dipole Moment: [e a0]
     X:     0.0003      Y:     0.0001      Z:     0.0000

  Dipole Moment: [e a0]
     X:     0.0001      Y:    -0.0001      Z:     0.0000     Total:     0.0001

  Dipole Moment: [D]
     X:     0.0002      Y:    -0.0002      Z:     0.0000     Total:     0.0003


*** tstop() called on atlantis at Tue Apr 19 09:54:58 2022
Module time:
	user time   =      16.84 seconds =       0.28 minutes
	system time =       0.04 seconds =       0.00 minutes
	total time  =         17 seconds =       0.28 minutes
Total time:
	user time   =      29.03 seconds =       0.48 minutes
	system time =       0.15 seconds =       0.00 minutes
	total time  =         29 seconds =       0.48 minutes

*** tstart() called on atlantis
*** at Tue Apr 19 09:54:58 2022


         ------------------------------------------------------------
                                   SCF GRAD                          
                          Rob Parrish, Justin Turney,                
                       Andy Simmonett, and Alex Sokolov              
         ------------------------------------------------------------

  ==> Geometry <==

    Molecular point group: cs
    Full point group: Cs

    Geometry (in Angstrom), charge = 0, multiplicity = 1:

       Center              X                  Y                   Z               Mass       
    ------------   -----------------  -----------------  -----------------  -----------------
         C            0.321531939855     0.813261460475     0.000000000000    12.000000000000
         C           -0.865048060145    -0.128168539525     0.000000000000    12.000000000000
         C            0.543531939855    -0.685078539525     0.000000000000    12.000000000000
         H            0.537951939855     1.360691460475    -0.920390000000     1.007825032230
         H            0.537951939855     1.360691460475     0.920390000000     1.007825032230
         H           -1.447418060145    -0.214488539525     0.920340000000     1.007825032230
         H           -1.447418060145    -0.214488539525    -0.920340000000     1.007825032230
         H            0.909371939855    -1.146288539525    -0.920370000000     1.007825032230
         H            0.909371939855    -1.146288539525     0.920370000000     1.007825032230

  Nuclear repulsion =   75.281464809014025

  ==> Basis Set <==

  Basis Set: 6-311++G**
    Blend: 6-311++G**
    Number of shells: 60
    Number of basis function: 108
    Number of Cartesian functions: 111
    Spherical Harmonics?: true
    Max angular momentum: 2

  ==> DFJKGrad: Density-Fitted SCF Gradients <==

    Gradient:                    1
    J tasked:                  Yes
    K tasked:                  Yes
    wK tasked:                  No
    OpenMP threads:              1
    Integrals threads:           1
    Memory [MiB]:              375
    Schwarz Cutoff:          0E+00
    Fitting Condition:       1E-10

   => Auxiliary Basis Set <=

  Basis Set: (6-311++G** AUX)
    Blend: AUG-CC-PVTZ-JKFIT
    Number of shells: 174
    Number of basis function: 588
    Number of Cartesian functions: 723
    Spherical Harmonics?: true
    Max angular momentum: 4

  ==> DFT Potential <==

   => Composite Functional: M06-2X <= 

    Hybrid M06-2X Meta-GGA XC Functional

    Y. Zhao and D. G. Truhlar,  Theor. Chem. Acc., 120, 215, 2008


    Deriv               =              1
    GGA                 =           TRUE
    Meta                =           TRUE

    Exchange Hybrid     =           TRUE
    MP2 Hybrid          =          FALSE

   => Exchange Functionals <=

    1.0000   XC_HYB_MGGA_X_M06_2X

   => Exact (HF) Exchange <=

    0.5400               HF 

   => Correlation Functionals <=

    1.0000   XC_MGGA_C_M06_2X

   => Molecular Quadrature <=

    Radial Scheme          =       TREUTLER
    Pruning Scheme         =           FLAT
    Nuclear Scheme         =       TREUTLER

    BS radius alpha        =              1
    Pruning alpha          =              1
    Radial Points          =             75
    Spherical Points       =            302
    Total Points           =         203850
    Total Blocks           =           1576
    Max Points             =            256
    Max Functions          =            108


  -Total Gradient:
     Atom            X                  Y                   Z
    ------   -----------------  -----------------  -----------------
       1        0.001162261995     0.002920748042     0.000000000000
       2       -0.003069276829    -0.000416488011     0.000000000000
       3        0.001981313208    -0.002459996561     0.000000000000
       4        0.001478068290     0.003714024445    -0.006135635489
       5        0.001478068290     0.003714024445     0.006135635489
       6       -0.003951074191    -0.000571109088     0.006124019846
       7       -0.003951074191    -0.000571109088    -0.006124019846
       8        0.002497588258    -0.003127625215    -0.006117070290
       9        0.002497588258    -0.003127625215     0.006117070290


*** tstop() called on atlantis at Tue Apr 19 09:55:02 2022
Module time:
	user time   =       3.17 seconds =       0.05 minutes
	system time =       0.01 seconds =       0.00 minutes
	total time  =          4 seconds =       0.07 minutes
Total time:
	user time   =      32.20 seconds =       0.54 minutes
	system time =       0.16 seconds =       0.00 minutes
	total time  =         33 seconds =       0.55 minutes

  Based on options and gradient (rms=3.60E-03), recommend projecting translations and projecting rotations.
hessian() will perform frequency computation by finite difference of analytic gradients.

         ----------------------------------------------------------
                                   FINDIF
                     R. A. King and Jonathon Misiewicz
         ---------------------------------------------------------

  Using finite-differences of gradients to determine vibrational frequencies and 
  normal modes.  Resulting frequencies are only valid at stationary points.
    Generating geometries for use with 3-point formula.
    Displacement size will be 5.00e-03.
    Number of atoms is 9.
    Number of irreps is 2.
    Number of SALCs is 21.
    Translations projected? 1. Rotations projected? 1.
    Index of SALCs per irrep:
     1 :  0  1  2  3  4  5  6  7  8  9  10  11 
     2 :  12  13  14  15  16  17  18  19  20 
    Number of SALCs per irrep:
     Irrep 1: 12
     Irrep 2: 9
    Number of geometries (including reference) is 34.
    Number of displacements per irrep:
      Irrep 1: 24
      Irrep 2: 9

  //>>>>>>>>>>>>>>>>>>>>>>>>>>>>>>>>>>>//
  //    Loading displacement 1 of 34   //
  //<<<<<<<<<<<<<<<<<<<<<<<<<<<<<<<<<<<//
gradient() will perform analytic gradient computation.

*** tstart() called on atlantis
*** at Tue Apr 19 09:55:02 2022

   => Loading Basis Set <=

    Name: 6-311++G**
    Role: ORBITAL
    Keyword: BASIS
    atoms 1-3 entry C          line   119 file /home/akrom/software/anaconda3/envs/ffpenv/share/psi4/basis/6-311ppgss.gbs 
    atoms 4-9 entry H          line    42 file /home/akrom/software/anaconda3/envs/ffpenv/share/psi4/basis/6-311ppgss.gbs 


         ---------------------------------------------------------
                                   SCF
               by Justin Turney, Rob Parrish, Andy Simmonett
                          and Daniel G. A. Smith
                              RKS Reference
                        1 Threads,    500 MiB Core
         ---------------------------------------------------------

  ==> Geometry <==

    Molecular point group: cs
    Full point group: Cs

    Geometry (in Angstrom), charge = 0, multiplicity = 1:

       Center              X                  Y                   Z               Mass       
    ------------   -----------------  -----------------  -----------------  -----------------
         C            0.321531939855     0.813261460475     0.000000000000    12.000000000000
         C           -0.865048060145    -0.128168539525     0.000000000000    12.000000000000
         C            0.543531939855    -0.685078539525     0.000000000000    12.000000000000
         H            0.537951939855     1.360691460475    -0.920390000000     1.007825032230
         H            0.537951939855     1.360691460475     0.920390000000     1.007825032230
         H           -1.447418060145    -0.214488539525     0.920340000000     1.007825032230
         H           -1.447418060145    -0.214488539525    -0.920340000000     1.007825032230
         H            0.909371939855    -1.146288539525    -0.920370000000     1.007825032230
         H            0.909371939855    -1.146288539525     0.920370000000     1.007825032230

  Running in cs symmetry.

  Rotational constants: A =      0.66472  B =      0.66470  C =      0.41647 [cm^-1]
  Rotational constants: A =  19927.70596  B =  19927.20236  C =  12485.44714 [MHz]
  Nuclear repulsion =   75.281464809014025

  Charge       = 0
  Multiplicity = 1
  Electrons    = 24
  Nalpha       = 12
  Nbeta        = 12

  ==> Algorithm <==

  SCF Algorithm Type is DF.
  DIIS enabled.
  MOM disabled.
  Fractional occupation disabled.
  Guess Type is SAD.
  Energy threshold   = 1.00e-08
  Density threshold  = 1.00e-08
  Integral threshold = 0.00e+00

  ==> Primary Basis <==

  Basis Set: 6-311++G**
    Blend: 6-311++G**
    Number of shells: 60
    Number of basis function: 108
    Number of Cartesian functions: 111
    Spherical Harmonics?: true
    Max angular momentum: 2

  ==> DFT Potential <==

   => Composite Functional: M06-2X <= 

    Hybrid M06-2X Meta-GGA XC Functional

    Y. Zhao and D. G. Truhlar,  Theor. Chem. Acc., 120, 215, 2008


    Deriv               =              1
    GGA                 =           TRUE
    Meta                =           TRUE

    Exchange Hybrid     =           TRUE
    MP2 Hybrid          =          FALSE

   => Exchange Functionals <=

    1.0000   XC_HYB_MGGA_X_M06_2X

   => Exact (HF) Exchange <=

    0.5400               HF 

   => Correlation Functionals <=

    1.0000   XC_MGGA_C_M06_2X

   => Molecular Quadrature <=

    Radial Scheme          =       TREUTLER
    Pruning Scheme         =           FLAT
    Nuclear Scheme         =       TREUTLER

    BS radius alpha        =              1
    Pruning alpha          =              1
    Radial Points          =             75
    Spherical Points       =            302
    Total Points           =         203850
    Total Blocks           =           1576
    Max Points             =            256
    Max Functions          =            108

   => Loading Basis Set <=

    Name: (6-311++G** AUX)
    Role: JKFIT
    Keyword: DF_BASIS_SCF
    atoms 1-3 entry C          line   162 file /home/akrom/software/anaconda3/envs/ffpenv/share/psi4/basis/aug-cc-pvtz-jkfit.gbs 
    atoms 4-9 entry H          line    70 file /home/akrom/software/anaconda3/envs/ffpenv/share/psi4/basis/aug-cc-pvtz-jkfit.gbs 

  ==> Pre-Iterations <==

   -------------------------------------------------------
    Irrep   Nso     Nmo     Nalpha   Nbeta   Ndocc  Nsocc
   -------------------------------------------------------
     A'        69      69       0       0       0       0
     A"        39      39       0       0       0       0
   -------------------------------------------------------
    Total     108     108      12      12      12       0
   -------------------------------------------------------

  ==> Integral Setup <==

  DFHelper Memory: AOs need 0.056 GiB; user supplied 0.056 GiB. Using in-core AOs.

  ==> MemDFJK: Density-Fitted J/K Matrices <==

    J tasked:                   Yes
    K tasked:                   Yes
    wK tasked:                   No
    OpenMP threads:               1
    Memory [MiB]:                57
    Algorithm:                 Core
    Schwarz Cutoff:           1E-12
    Mask sparsity (%):       0.0000
    Fitting Condition:        1E-10

   => Auxiliary Basis Set <=

  Basis Set: (6-311++G** AUX)
    Blend: AUG-CC-PVTZ-JKFIT
    Number of shells: 174
    Number of basis function: 588
    Number of Cartesian functions: 723
    Spherical Harmonics?: true
    Max angular momentum: 4

  Cached 25.0% of DFT collocation blocks in 0.355 [GiB].

  Minimum eigenvalue in the overlap matrix is 8.8978795942E-05.
  Using Symmetric Orthogonalization.

  SCF Guess: Superposition of Atomic Densities via on-the-fly atomic UHF.

  ==> Iterations <==

                           Total Energy        Delta E     RMS |[F,P]|

   @DF-RKS iter SAD:  -117.43804367177820   -1.17438e+02   0.00000e+00 
   @DF-RKS iter   1:  -117.56900832331021   -1.30965e-01   9.56876e-03 DIIS
   @DF-RKS iter   2:  -117.55863480455703    1.03735e-02   9.61540e-03 DIIS
   @DF-RKS iter   3:  -117.86403435051074   -3.05400e-01   4.88798e-04 DIIS
   @DF-RKS iter   4:  -117.86479901102416   -7.64661e-04   6.55220e-05 DIIS
   @DF-RKS iter   5:  -117.86481742040039   -1.84094e-05   9.80836e-06 DIIS
   @DF-RKS iter   6:  -117.86481799746986   -5.77069e-07   1.12681e-06 DIIS
   @DF-RKS iter   7:  -117.86481801120510   -1.37352e-08   1.48577e-07 DIIS
   @DF-RKS iter   8:  -117.86481801134968   -1.44581e-10   1.05307e-07 DIIS
   @DF-RKS iter   9:  -117.86481801138417   -3.44897e-11   1.77655e-08 DIIS
   @DF-RKS iter  10:  -117.86481801138548   -1.30740e-12   9.27651e-10 DIIS
  Energy and wave function converged.


  ==> Post-Iterations <==

    Orbital Energies [Eh]
    ---------------------

    Doubly Occupied:                                                      

       1Ap   -10.539153     2Ap   -10.538554     3Ap   -10.538548  
       4Ap    -0.944600     5Ap    -0.678502     6Ap    -0.678493  
       1App   -0.565877     7Ap    -0.528771     2App   -0.424643  
       3App   -0.424624     8Ap    -0.350473     9Ap    -0.350443  

    Virtual:                                                              

      10Ap     0.004905     4App    0.018273    11Ap     0.021119  
      12Ap     0.021120     5App    0.057405     6App    0.057408  
      13Ap     0.077499    14Ap     0.086692    15Ap     0.086693  
      16Ap     0.117265    17Ap     0.129428    18Ap     0.129433  
       7App    0.146972     8App    0.156740     9App    0.156748  
      19Ap     0.158461    20Ap     0.166509    21Ap     0.166511  
      10App    0.191479    22Ap     0.213903    23Ap     0.215959  
      11App    0.277882    12App    0.277891    24Ap     0.289793  
      25Ap     0.289812    26Ap     0.348569    27Ap     0.348577  
      28Ap     0.435991    13App    0.477116    29Ap     0.531631  
      30Ap     0.531653    14App    0.590575    15App    0.590648  
      31Ap     0.605251    32Ap     0.689196    33Ap     0.689219  
      16App    0.689346    34Ap     0.693393    17App    0.710533  
      18App    0.710582    35Ap     0.737853    36Ap     0.737901  
      37Ap     0.808228    38Ap     0.951200    39Ap     0.951212  
      19App    1.237544    40Ap     1.263516    20App    1.282001  
      21App    1.282044    22App    1.403911    41Ap     1.506916  
      42Ap     1.506923    23App    1.564201    24App    1.564286  
      43Ap     1.637789    25App    1.673795    44Ap     1.695059  
      45Ap     1.695110    26App    1.786022    27App    1.786039  
      46Ap     1.801362    47Ap     1.850373    48Ap     1.850454  
      49Ap     2.052375    50Ap     2.052451    28App    2.069366  
      29App    2.069432    51Ap     2.145050    52Ap     2.247727  
      53Ap     2.247828    54Ap     2.293653    30App    2.396265  
      55Ap     2.410363    31App    2.458850    32App    2.572519  
      33App    2.572562    56Ap     2.674171    57Ap     2.674396  
      34App    2.749064    58Ap     2.771067    59Ap     2.776202  
      60Ap     2.776249    61Ap     2.982456    62Ap     2.982509  
      35App    2.993969    36App    2.994163    63Ap     3.405226  
      64Ap     3.560488    37App    3.574468    38App    3.897712  
      39App    3.897953    65Ap     4.413180    66Ap     4.413376  
      67Ap    23.960231    68Ap    23.960255    69Ap    23.976085  

    Final Occupation by Irrep:
             Ap   App 
    DOCC [     9,    3 ]

  @DF-RKS Final Energy:  -117.86481801138548

   => Energetics <=

    Nuclear Repulsion Energy =             75.2814648090140253
    One-Electron Energy =                -305.8497522550491112
    Two-Electron Energy =                 121.6145742435472670
    DFT Exchange-Correlation Energy =      -8.9111048088976812
    Empirical Dispersion Energy =           0.0000000000000000
    VV10 Nonlocal Energy =                  0.0000000000000000
    Total Energy =                       -117.8648180113854806

Computation Completed


Properties will be evaluated at   0.000000,   0.000000,   0.000000 [a0]

Properties computed using the SCF density matrix

  Nuclear Dipole Moment: [e a0]
     X:    -0.0002      Y:    -0.0002      Z:     0.0000

  Electronic Dipole Moment: [e a0]
     X:     0.0003      Y:     0.0001      Z:     0.0000

  Dipole Moment: [e a0]
     X:     0.0001      Y:    -0.0001      Z:     0.0000     Total:     0.0001

  Dipole Moment: [D]
     X:     0.0002      Y:    -0.0002      Z:     0.0000     Total:     0.0003


*** tstop() called on atlantis at Tue Apr 19 09:55:19 2022
Module time:
	user time   =      16.47 seconds =       0.27 minutes
	system time =       0.06 seconds =       0.00 minutes
	total time  =         17 seconds =       0.28 minutes
Total time:
	user time   =      48.96 seconds =       0.82 minutes
	system time =       0.23 seconds =       0.00 minutes
	total time  =         50 seconds =       0.83 minutes

*** tstart() called on atlantis
*** at Tue Apr 19 09:55:19 2022


         ------------------------------------------------------------
                                   SCF GRAD                          
                          Rob Parrish, Justin Turney,                
                       Andy Simmonett, and Alex Sokolov              
         ------------------------------------------------------------

  ==> Geometry <==

    Molecular point group: cs
    Full point group: Cs

    Geometry (in Angstrom), charge = 0, multiplicity = 1:

       Center              X                  Y                   Z               Mass       
    ------------   -----------------  -----------------  -----------------  -----------------
         C            0.321531939855     0.813261460475     0.000000000000    12.000000000000
         C           -0.865048060145    -0.128168539525     0.000000000000    12.000000000000
         C            0.543531939855    -0.685078539525     0.000000000000    12.000000000000
         H            0.537951939855     1.360691460475    -0.920390000000     1.007825032230
         H            0.537951939855     1.360691460475     0.920390000000     1.007825032230
         H           -1.447418060145    -0.214488539525     0.920340000000     1.007825032230
         H           -1.447418060145    -0.214488539525    -0.920340000000     1.007825032230
         H            0.909371939855    -1.146288539525    -0.920370000000     1.007825032230
         H            0.909371939855    -1.146288539525     0.920370000000     1.007825032230

  Nuclear repulsion =   75.281464809014025

  ==> Basis Set <==

  Basis Set: 6-311++G**
    Blend: 6-311++G**
    Number of shells: 60
    Number of basis function: 108
    Number of Cartesian functions: 111
    Spherical Harmonics?: true
    Max angular momentum: 2

  ==> DFJKGrad: Density-Fitted SCF Gradients <==

    Gradient:                    1
    J tasked:                  Yes
    K tasked:                  Yes
    wK tasked:                  No
    OpenMP threads:              1
    Integrals threads:           1
    Memory [MiB]:              375
    Schwarz Cutoff:          0E+00
    Fitting Condition:       1E-10

   => Auxiliary Basis Set <=

  Basis Set: (6-311++G** AUX)
    Blend: AUG-CC-PVTZ-JKFIT
    Number of shells: 174
    Number of basis function: 588
    Number of Cartesian functions: 723
    Spherical Harmonics?: true
    Max angular momentum: 4

  ==> DFT Potential <==

   => Composite Functional: M06-2X <= 

    Hybrid M06-2X Meta-GGA XC Functional

    Y. Zhao and D. G. Truhlar,  Theor. Chem. Acc., 120, 215, 2008


    Deriv               =              1
    GGA                 =           TRUE
    Meta                =           TRUE

    Exchange Hybrid     =           TRUE
    MP2 Hybrid          =          FALSE

   => Exchange Functionals <=

    1.0000   XC_HYB_MGGA_X_M06_2X

   => Exact (HF) Exchange <=

    0.5400               HF 

   => Correlation Functionals <=

    1.0000   XC_MGGA_C_M06_2X

   => Molecular Quadrature <=

    Radial Scheme          =       TREUTLER
    Pruning Scheme         =           FLAT
    Nuclear Scheme         =       TREUTLER

    BS radius alpha        =              1
    Pruning alpha          =              1
    Radial Points          =             75
    Spherical Points       =            302
    Total Points           =         203850
    Total Blocks           =           1576
    Max Points             =            256
    Max Functions          =            108


  -Total Gradient:
     Atom            X                  Y                   Z
    ------   -----------------  -----------------  -----------------
       1        0.001162265657     0.002920756621     0.000000000000
       2       -0.003069286763    -0.000416489052     0.000000000000
       3        0.001981319463    -0.002460003503     0.000000000000
       4        0.001478066620     0.003714020443    -0.006135628080
       5        0.001478066620     0.003714020443     0.006135628080
       6       -0.003951070065    -0.000571108412     0.006124012395
       7       -0.003951070065    -0.000571108412    -0.006124012395
       8        0.002497585810    -0.003127622187    -0.006117063496
       9        0.002497585810    -0.003127622187     0.006117063496


*** tstop() called on atlantis at Tue Apr 19 09:55:23 2022
Module time:
	user time   =       3.16 seconds =       0.05 minutes
	system time =       0.00 seconds =       0.00 minutes
	total time  =          4 seconds =       0.07 minutes
Total time:
	user time   =      52.12 seconds =       0.87 minutes
	system time =       0.23 seconds =       0.00 minutes
	total time  =         54 seconds =       0.90 minutes

  //>>>>>>>>>>>>>>>>>>>>>>>>>>>>>>>>>>>//
  //    Loading displacement 2 of 34   //
  //<<<<<<<<<<<<<<<<<<<<<<<<<<<<<<<<<<<//
gradient() will perform analytic gradient computation.

*** tstart() called on atlantis
*** at Tue Apr 19 09:55:23 2022

   => Loading Basis Set <=

    Name: 6-311++G**
    Role: ORBITAL
    Keyword: BASIS
    atoms 1-3 entry C          line   119 file /home/akrom/software/anaconda3/envs/ffpenv/share/psi4/basis/6-311ppgss.gbs 
    atoms 4-9 entry H          line    42 file /home/akrom/software/anaconda3/envs/ffpenv/share/psi4/basis/6-311ppgss.gbs 


         ---------------------------------------------------------
                                   SCF
               by Justin Turney, Rob Parrish, Andy Simmonett
                          and Daniel G. A. Smith
                              RKS Reference
                        1 Threads,    500 MiB Core
         ---------------------------------------------------------

  ==> Geometry <==

    Molecular point group: cs
    Full point group: Cs

    Geometry (in Angstrom), charge = 0, multiplicity = 1:

       Center              X                  Y                   Z               Mass       
    ------------   -----------------  -----------------  -----------------  -----------------
         C            0.320981935461     0.813179232929     0.000000000000    12.000000000000
         C           -0.864778117207    -0.127947314912     0.000000000000    12.000000000000
         C            0.543659460418    -0.685217540638     0.000000000000    12.000000000000
         H            0.538602639069     1.360553886373    -0.920390000000     1.007825032230
         H            0.538602639069     1.360553886373     0.920390000000     1.007825032230
         H           -1.447170192407    -0.214118381478     0.920340000000     1.007825032230
         H           -1.447170192407    -0.214118381478    -0.920340000000     1.007825032230
         H            0.909381512053    -1.146521099385    -0.920370000000     1.007825032230
         H            0.909381512053    -1.146521099385     0.920370000000     1.007825032230

  Running in cs symmetry.

  Rotational constants: A =      0.66511  B =      0.66452  C =      0.41655 [cm^-1]
  Rotational constants: A =  19939.46144  B =  19921.88173  C =  12487.97026 [MHz]
  Nuclear repulsion =   75.286659304380962

  Charge       = 0
  Multiplicity = 1
  Electrons    = 24
  Nalpha       = 12
  Nbeta        = 12

  ==> Algorithm <==

  SCF Algorithm Type is DF.
  DIIS enabled.
  MOM disabled.
  Fractional occupation disabled.
  Guess Type is SAD.
  Energy threshold   = 1.00e-08
  Density threshold  = 1.00e-08
  Integral threshold = 0.00e+00

  ==> Primary Basis <==

  Basis Set: 6-311++G**
    Blend: 6-311++G**
    Number of shells: 60
    Number of basis function: 108
    Number of Cartesian functions: 111
    Spherical Harmonics?: true
    Max angular momentum: 2

  ==> DFT Potential <==

   => Composite Functional: M06-2X <= 

    Hybrid M06-2X Meta-GGA XC Functional

    Y. Zhao and D. G. Truhlar,  Theor. Chem. Acc., 120, 215, 2008


    Deriv               =              1
    GGA                 =           TRUE
    Meta                =           TRUE

    Exchange Hybrid     =           TRUE
    MP2 Hybrid          =          FALSE

   => Exchange Functionals <=

    1.0000   XC_HYB_MGGA_X_M06_2X

   => Exact (HF) Exchange <=

    0.5400               HF 

   => Correlation Functionals <=

    1.0000   XC_MGGA_C_M06_2X

   => Molecular Quadrature <=

    Radial Scheme          =       TREUTLER
    Pruning Scheme         =           FLAT
    Nuclear Scheme         =       TREUTLER

    BS radius alpha        =              1
    Pruning alpha          =              1
    Radial Points          =             75
    Spherical Points       =            302
    Total Points           =         203850
    Total Blocks           =           1568
    Max Points             =            256
    Max Functions          =            108

   => Loading Basis Set <=

    Name: (6-311++G** AUX)
    Role: JKFIT
    Keyword: DF_BASIS_SCF
    atoms 1-3 entry C          line   162 file /home/akrom/software/anaconda3/envs/ffpenv/share/psi4/basis/aug-cc-pvtz-jkfit.gbs 
    atoms 4-9 entry H          line    70 file /home/akrom/software/anaconda3/envs/ffpenv/share/psi4/basis/aug-cc-pvtz-jkfit.gbs 

  ==> Pre-Iterations <==

   -------------------------------------------------------
    Irrep   Nso     Nmo     Nalpha   Nbeta   Ndocc  Nsocc
   -------------------------------------------------------
     A'        69      69       0       0       0       0
     A"        39      39       0       0       0       0
   -------------------------------------------------------
    Total     108     108      12      12      12       0
   -------------------------------------------------------

  ==> Integral Setup <==

  DFHelper Memory: AOs need 0.056 GiB; user supplied 0.056 GiB. Using in-core AOs.

  ==> MemDFJK: Density-Fitted J/K Matrices <==

    J tasked:                   Yes
    K tasked:                   Yes
    wK tasked:                   No
    OpenMP threads:               1
    Memory [MiB]:                57
    Algorithm:                 Core
    Schwarz Cutoff:           1E-12
    Mask sparsity (%):       0.0000
    Fitting Condition:        1E-10

   => Auxiliary Basis Set <=

  Basis Set: (6-311++G** AUX)
    Blend: AUG-CC-PVTZ-JKFIT
    Number of shells: 174
    Number of basis function: 588
    Number of Cartesian functions: 723
    Spherical Harmonics?: true
    Max angular momentum: 4

  Cached 25.0% of DFT collocation blocks in 0.354 [GiB].

  Minimum eigenvalue in the overlap matrix is 8.8787155085E-05.
  Using Symmetric Orthogonalization.

  SCF Guess: Superposition of Atomic Densities via on-the-fly atomic UHF.

  ==> Iterations <==

                           Total Energy        Delta E     RMS |[F,P]|

   @DF-RKS iter SAD:  -117.43855543215990   -1.17439e+02   0.00000e+00 
   @DF-RKS iter   1:  -117.56885739248685   -1.30302e-01   9.57175e-03 DIIS
   @DF-RKS iter   2:  -117.55835167416812    1.05057e-02   9.62017e-03 DIIS
   @DF-RKS iter   3:  -117.86404616827761   -3.05694e-01   4.88989e-04 DIIS
   @DF-RKS iter   4:  -117.86481150224841   -7.65334e-04   6.55431e-05 DIIS
   @DF-RKS iter   5:  -117.86482992036369   -1.84181e-05   9.81731e-06 DIIS
   @DF-RKS iter   6:  -117.86483049802858   -5.77665e-07   1.17096e-06 DIIS
   @DF-RKS iter   7:  -117.86483051156809   -1.35395e-08   4.41145e-07 DIIS
   @DF-RKS iter   8:  -117.86483051216635   -5.98263e-10   1.71325e-07 DIIS
   @DF-RKS iter   9:  -117.86483051227140   -1.05047e-10   1.30976e-08 DIIS
   @DF-RKS iter  10:  -117.86483051227252   -1.12266e-12   1.01326e-09 DIIS
  Energy and wave function converged.


  ==> Post-Iterations <==

    Orbital Energies [Eh]
    ---------------------

    Doubly Occupied:                                                      

       1Ap   -10.539140     2Ap   -10.538545     3Ap   -10.538529  
       4Ap    -0.944705     5Ap    -0.678523     6Ap    -0.678436  
       1App   -0.565880     7Ap    -0.528833     2App   -0.424635  
       3App   -0.424518     8Ap    -0.350691     9Ap    -0.350293  

    Virtual:                                                              

      10Ap     0.004905     4App    0.018269    11Ap     0.021118  
      12Ap     0.021121     5App    0.057401     6App    0.057416  
      13Ap     0.077502    14Ap     0.086668    15Ap     0.086711  
      16Ap     0.117285    17Ap     0.129430    18Ap     0.129441  
       7App    0.146962     8App    0.156704     9App    0.156781  
      19Ap     0.158460    20Ap     0.166509    21Ap     0.166512  
      10App    0.191439    22Ap     0.213902    23Ap     0.216039  
      11App    0.277786    12App    0.277971    24Ap     0.289778  
      25Ap     0.289860    26Ap     0.348521    27Ap     0.348784  
      28Ap     0.435991    13App    0.477102    29Ap     0.531601  
      30Ap     0.531679    14App    0.590367    15App    0.590812  
      31Ap     0.605215    32Ap     0.689176    16App    0.689286  
      33Ap     0.689393    34Ap     0.693434    17App    0.710435  
      18App    0.710614    35Ap     0.737834    36Ap     0.737969  
      37Ap     0.808228    38Ap     0.951197    39Ap     0.951235  
      19App    1.237577    40Ap     1.263500    20App    1.281982  
      21App    1.282067    22App    1.403879    41Ap     1.506982  
      42Ap     1.507104    23App    1.564199    24App    1.564302  
      43Ap     1.637962    25App    1.673841    44Ap     1.695054  
      45Ap     1.695205    26App    1.785697    27App    1.786308  
      46Ap     1.801390    47Ap     1.850235    48Ap     1.850838  
      49Ap     2.052333    50Ap     2.052663    28App    2.069319  
      29App    2.069401    51Ap     2.144993    52Ap     2.247721  
      53Ap     2.248096    54Ap     2.293814    30App    2.396197  
      55Ap     2.410125    31App    2.458886    32App    2.572356  
      33App    2.572721    56Ap     2.673768    57Ap     2.674365  
      34App    2.749118    58Ap     2.771107    59Ap     2.776225  
      60Ap     2.776277    61Ap     2.982402    62Ap     2.982841  
      35App    2.993751    36App    2.994821    63Ap     3.405903  
      64Ap     3.560630    37App    3.574274    38App    3.897568  
      39App    3.897957    65Ap     4.413087    66Ap     4.413712  
      67Ap    23.959987    68Ap    23.961086    69Ap    23.975872  

    Final Occupation by Irrep:
             Ap   App 
    DOCC [     9,    3 ]

  @DF-RKS Final Energy:  -117.86483051227252

   => Energetics <=

    Nuclear Repulsion Energy =             75.2866593043809615
    One-Electron Energy =                -305.8600149807663229
    Two-Electron Energy =                 121.6196875604114780
    DFT Exchange-Correlation Energy =      -8.9111623962986517
    Empirical Dispersion Energy =           0.0000000000000000
    VV10 Nonlocal Energy =                  0.0000000000000000
    Total Energy =                       -117.8648305122725191

Computation Completed


Properties will be evaluated at   0.000000,   0.000000,   0.000000 [a0]

Properties computed using the SCF density matrix

  Nuclear Dipole Moment: [e a0]
     X:     0.0015      Y:    -0.0002      Z:     0.0000

  Electronic Dipole Moment: [e a0]
     X:    -0.0016      Y:     0.0004      Z:     0.0000

  Dipole Moment: [e a0]
     X:    -0.0001      Y:     0.0002      Z:     0.0000     Total:     0.0002

  Dipole Moment: [D]
     X:    -0.0002      Y:     0.0005      Z:     0.0000     Total:     0.0005


*** tstop() called on atlantis at Tue Apr 19 09:55:39 2022
Module time:
	user time   =      16.09 seconds =       0.27 minutes
	system time =       0.04 seconds =       0.00 minutes
	total time  =         16 seconds =       0.27 minutes
Total time:
	user time   =      68.21 seconds =       1.14 minutes
	system time =       0.27 seconds =       0.00 minutes
	total time  =         70 seconds =       1.17 minutes

*** tstart() called on atlantis
*** at Tue Apr 19 09:55:39 2022


         ------------------------------------------------------------
                                   SCF GRAD                          
                          Rob Parrish, Justin Turney,                
                       Andy Simmonett, and Alex Sokolov              
         ------------------------------------------------------------

  ==> Geometry <==

    Molecular point group: cs
    Full point group: Cs

    Geometry (in Angstrom), charge = 0, multiplicity = 1:

       Center              X                  Y                   Z               Mass       
    ------------   -----------------  -----------------  -----------------  -----------------
         C            0.320981935461     0.813179232929     0.000000000000    12.000000000000
         C           -0.864778117207    -0.127947314912     0.000000000000    12.000000000000
         C            0.543659460418    -0.685217540638     0.000000000000    12.000000000000
         H            0.538602639069     1.360553886373    -0.920390000000     1.007825032230
         H            0.538602639069     1.360553886373     0.920390000000     1.007825032230
         H           -1.447170192407    -0.214118381478     0.920340000000     1.007825032230
         H           -1.447170192407    -0.214118381478    -0.920340000000     1.007825032230
         H            0.909381512053    -1.146521099385    -0.920370000000     1.007825032230
         H            0.909381512053    -1.146521099385     0.920370000000     1.007825032230

  Nuclear repulsion =   75.286659304380962

  ==> Basis Set <==

  Basis Set: 6-311++G**
    Blend: 6-311++G**
    Number of shells: 60
    Number of basis function: 108
    Number of Cartesian functions: 111
    Spherical Harmonics?: true
    Max angular momentum: 2

  ==> DFJKGrad: Density-Fitted SCF Gradients <==

    Gradient:                    1
    J tasked:                  Yes
    K tasked:                  Yes
    wK tasked:                  No
    OpenMP threads:              1
    Integrals threads:           1
    Memory [MiB]:              375
    Schwarz Cutoff:          0E+00
    Fitting Condition:       1E-10

   => Auxiliary Basis Set <=

  Basis Set: (6-311++G** AUX)
    Blend: AUG-CC-PVTZ-JKFIT
    Number of shells: 174
    Number of basis function: 588
    Number of Cartesian functions: 723
    Spherical Harmonics?: true
    Max angular momentum: 4

  ==> DFT Potential <==

   => Composite Functional: M06-2X <= 

    Hybrid M06-2X Meta-GGA XC Functional

    Y. Zhao and D. G. Truhlar,  Theor. Chem. Acc., 120, 215, 2008


    Deriv               =              1
    GGA                 =           TRUE
    Meta                =           TRUE

    Exchange Hybrid     =           TRUE
    MP2 Hybrid          =          FALSE

   => Exchange Functionals <=

    1.0000   XC_HYB_MGGA_X_M06_2X

   => Exact (HF) Exchange <=

    0.5400               HF 

   => Correlation Functionals <=

    1.0000   XC_MGGA_C_M06_2X

   => Molecular Quadrature <=

    Radial Scheme          =       TREUTLER
    Pruning Scheme         =           FLAT
    Nuclear Scheme         =       TREUTLER

    BS radius alpha        =              1
    Pruning alpha          =              1
    Radial Points          =             75
    Spherical Points       =            302
    Total Points           =         203850
    Total Blocks           =           1568
    Max Points             =            256
    Max Functions          =            108


  -Total Gradient:
     Atom            X                  Y                   Z
    ------   -----------------  -----------------  -----------------
       1        0.000608606414     0.002652549293     0.000000000000
       2       -0.002785123418    -0.000297245523     0.000000000000
       3        0.002015342083    -0.002416524857     0.000000000000
       4        0.001570175753     0.003768643618    -0.006225972891
       5        0.001570175753     0.003768643618     0.006225972891
       6       -0.003910856127    -0.000558587210     0.006135183832
       7       -0.003910856127    -0.000558587210    -0.006135183832
       8        0.002489414008    -0.003119827692    -0.006128708154
       9        0.002489414008    -0.003119827692     0.006128708154


*** tstop() called on atlantis at Tue Apr 19 09:55:42 2022
Module time:
	user time   =       3.09 seconds =       0.05 minutes
	system time =       0.00 seconds =       0.00 minutes
	total time  =          3 seconds =       0.05 minutes
Total time:
	user time   =      71.30 seconds =       1.19 minutes
	system time =       0.27 seconds =       0.00 minutes
	total time  =         73 seconds =       1.22 minutes

  //>>>>>>>>>>>>>>>>>>>>>>>>>>>>>>>>>>>//
  //    Loading displacement 3 of 34   //
  //<<<<<<<<<<<<<<<<<<<<<<<<<<<<<<<<<<<//
gradient() will perform analytic gradient computation.

*** tstart() called on atlantis
*** at Tue Apr 19 09:55:42 2022

   => Loading Basis Set <=

    Name: 6-311++G**
    Role: ORBITAL
    Keyword: BASIS
    atoms 1-3 entry C          line   119 file /home/akrom/software/anaconda3/envs/ffpenv/share/psi4/basis/6-311ppgss.gbs 
    atoms 4-9 entry H          line    42 file /home/akrom/software/anaconda3/envs/ffpenv/share/psi4/basis/6-311ppgss.gbs 


         ---------------------------------------------------------
                                   SCF
               by Justin Turney, Rob Parrish, Andy Simmonett
                          and Daniel G. A. Smith
                              RKS Reference
                        1 Threads,    500 MiB Core
         ---------------------------------------------------------

  ==> Geometry <==

    Molecular point group: cs
    Full point group: Cs

    Geometry (in Angstrom), charge = 0, multiplicity = 1:

       Center              X                  Y                   Z               Mass       
    ------------   -----------------  -----------------  -----------------  -----------------
         C            0.322081944250     0.813343688021     0.000000000000    12.000000000000
         C           -0.865318003082    -0.128389764139     0.000000000000    12.000000000000
         C            0.543404419293    -0.684939538412     0.000000000000    12.000000000000
         H            0.537301240642     1.360829034576    -0.920390000000     1.007825032230
         H            0.537301240642     1.360829034576     0.920390000000     1.007825032230
         H           -1.447665927882    -0.214858697572     0.920340000000     1.007825032230
         H           -1.447665927882    -0.214858697572    -0.920340000000     1.007825032230
         H            0.909362367658    -1.146055979665    -0.920370000000     1.007825032230
         H            0.909362367658    -1.146055979665     0.920370000000     1.007825032230

  Running in cs symmetry.

  Rotational constants: A =      0.66489  B =      0.66431  C =      0.41639 [cm^-1]
  Rotational constants: A =  19932.94970  B =  19915.53021  C =  12482.92073 [MHz]
  Nuclear repulsion =   75.276267816162189

  Charge       = 0
  Multiplicity = 1
  Electrons    = 24
  Nalpha       = 12
  Nbeta        = 12

  ==> Algorithm <==

  SCF Algorithm Type is DF.
  DIIS enabled.
  MOM disabled.
  Fractional occupation disabled.
  Guess Type is SAD.
  Energy threshold   = 1.00e-08
  Density threshold  = 1.00e-08
  Integral threshold = 0.00e+00

  ==> Primary Basis <==

  Basis Set: 6-311++G**
    Blend: 6-311++G**
    Number of shells: 60
    Number of basis function: 108
    Number of Cartesian functions: 111
    Spherical Harmonics?: true
    Max angular momentum: 2

  ==> DFT Potential <==

   => Composite Functional: M06-2X <= 

    Hybrid M06-2X Meta-GGA XC Functional

    Y. Zhao and D. G. Truhlar,  Theor. Chem. Acc., 120, 215, 2008


    Deriv               =              1
    GGA                 =           TRUE
    Meta                =           TRUE

    Exchange Hybrid     =           TRUE
    MP2 Hybrid          =          FALSE

   => Exchange Functionals <=

    1.0000   XC_HYB_MGGA_X_M06_2X

   => Exact (HF) Exchange <=

    0.5400               HF 

   => Correlation Functionals <=

    1.0000   XC_MGGA_C_M06_2X

   => Molecular Quadrature <=

    Radial Scheme          =       TREUTLER
    Pruning Scheme         =           FLAT
    Nuclear Scheme         =       TREUTLER

    BS radius alpha        =              1
    Pruning alpha          =              1
    Radial Points          =             75
    Spherical Points       =            302
    Total Points           =         203850
    Total Blocks           =           1573
    Max Points             =            256
    Max Functions          =            108

   => Loading Basis Set <=

    Name: (6-311++G** AUX)
    Role: JKFIT
    Keyword: DF_BASIS_SCF
    atoms 1-3 entry C          line   162 file /home/akrom/software/anaconda3/envs/ffpenv/share/psi4/basis/aug-cc-pvtz-jkfit.gbs 
    atoms 4-9 entry H          line    70 file /home/akrom/software/anaconda3/envs/ffpenv/share/psi4/basis/aug-cc-pvtz-jkfit.gbs 

  ==> Pre-Iterations <==

   -------------------------------------------------------
    Irrep   Nso     Nmo     Nalpha   Nbeta   Ndocc  Nsocc
   -------------------------------------------------------
     A'        69      69       0       0       0       0
     A"        39      39       0       0       0       0
   -------------------------------------------------------
    Total     108     108      12      12      12       0
   -------------------------------------------------------

  ==> Integral Setup <==

  DFHelper Memory: AOs need 0.056 GiB; user supplied 0.056 GiB. Using in-core AOs.

  ==> MemDFJK: Density-Fitted J/K Matrices <==

    J tasked:                   Yes
    K tasked:                   Yes
    wK tasked:                   No
    OpenMP threads:               1
    Memory [MiB]:                57
    Algorithm:                 Core
    Schwarz Cutoff:           1E-12
    Mask sparsity (%):       0.0000
    Fitting Condition:        1E-10

   => Auxiliary Basis Set <=

  Basis Set: (6-311++G** AUX)
    Blend: AUG-CC-PVTZ-JKFIT
    Number of shells: 174
    Number of basis function: 588
    Number of Cartesian functions: 723
    Spherical Harmonics?: true
    Max angular momentum: 4

  Cached 25.0% of DFT collocation blocks in 0.345 [GiB].

  Minimum eigenvalue in the overlap matrix is 8.8922599819E-05.
  Using Symmetric Orthogonalization.

  SCF Guess: Superposition of Atomic Densities via on-the-fly atomic UHF.

  ==> Iterations <==

                           Total Energy        Delta E     RMS |[F,P]|

   @DF-RKS iter SAD:  -117.43755625220336   -1.17438e+02   0.00000e+00 
   @DF-RKS iter   1:  -117.56918664494582   -1.31630e-01   9.56602e-03 DIIS
   @DF-RKS iter   2:  -117.55893985011558    1.02468e-02   9.61090e-03 DIIS
   @DF-RKS iter   3:  -117.86404737877662   -3.05108e-01   4.88772e-04 DIIS
   @DF-RKS iter   4:  -117.86481182068746   -7.64442e-04   6.55521e-05 DIIS
   @DF-RKS iter   5:  -117.86483024830760   -1.84276e-05   9.80832e-06 DIIS
   @DF-RKS iter   6:  -117.86483082530917   -5.77002e-07   1.15569e-06 DIIS
   @DF-RKS iter   7:  -117.86483083890471   -1.35955e-08   3.67300e-07 DIIS
   @DF-RKS iter   8:  -117.86483083931748   -4.12768e-10   1.78591e-07 DIIS
   @DF-RKS iter   9:  -117.86483083942635   -1.08869e-10   1.32769e-08 DIIS
   @DF-RKS iter  10:  -117.86483083942724   -8.95284e-13   9.98338e-10 DIIS
  Energy and wave function converged.


  ==> Post-Iterations <==

    Orbital Energies [Eh]
    ---------------------

    Doubly Occupied:                                                      

       1Ap   -10.539167     2Ap   -10.538572     3Ap   -10.538557  
       4Ap    -0.944504     5Ap    -0.678564     6Ap    -0.678477  
       1App   -0.565863     7Ap    -0.528735     2App   -0.424743  
       3App   -0.424619     8Ap    -0.350621     9Ap    -0.350228  

    Virtual:                                                              

      10Ap     0.004905     4App    0.018278    11Ap     0.021118  
      12Ap     0.021121     5App    0.057396     6App    0.057415  
      13Ap     0.077499    14Ap     0.086672    15Ap     0.086720  
      16Ap     0.117251    17Ap     0.129420    18Ap     0.129438  
       7App    0.146988     8App    0.156700     9App    0.156790  
      19Ap     0.158458    20Ap     0.166509    21Ap     0.166513  
      10App    0.191509    22Ap     0.213912    23Ap     0.215901  
      11App    0.277802    12App    0.277996    24Ap     0.289761  
      25Ap     0.289846    26Ap     0.348363    27Ap     0.348625  
      28Ap     0.436018    13App    0.477095    29Ap     0.531602  
      30Ap     0.531696    14App    0.590374    15App    0.590832  
      31Ap     0.605325    32Ap     0.689005    33Ap     0.689223  
      16App    0.689393    34Ap     0.693360    17App    0.710502  
      18App    0.710706    35Ap     0.737838    36Ap     0.737976  
      37Ap     0.808261    38Ap     0.951134    39Ap     0.951209  
      19App    1.237506    40Ap     1.263510    20App    1.281913  
      21App    1.282060    22App    1.403917    41Ap     1.506858  
      42Ap     1.506972    23App    1.564045    24App    1.564236  
      43Ap     1.637855    25App    1.673784    44Ap     1.695016  
      45Ap     1.695268    26App    1.785823    27App    1.786411  
      46Ap     1.801367    47Ap     1.850041    48Ap     1.850616  
      49Ap     2.052156    50Ap     2.052428    28App    2.069329  
      29App    2.069472    51Ap     2.145094    52Ap     2.247566  
      53Ap     2.247989    54Ap     2.293523    30App    2.396078  
      55Ap     2.410591    31App    2.458924    32App    2.572351  
      33App    2.572754    56Ap     2.674021    57Ap     2.674768  
      34App    2.749040    58Ap     2.771066    59Ap     2.776091  
      60Ap     2.776196    61Ap     2.982032    62Ap     2.982485  
      35App    2.993411    36App    2.994795    63Ap     3.404577  
      64Ap     3.560077    37App    3.574777    38App    3.897872  
      39App    3.897977    65Ap     4.413023    66Ap     4.413452  
      67Ap    23.959413    68Ap    23.960475    69Ap    23.976299  

    Final Occupation by Irrep:
             Ap   App 
    DOCC [     9,    3 ]

  @DF-RKS Final Energy:  -117.86483083942724

   => Energetics <=

    Nuclear Repulsion Energy =             75.2762678161621892
    One-Electron Energy =                -305.8394712783131695
    Two-Electron Energy =                 121.6094532545091909
    DFT Exchange-Correlation Energy =      -8.9110806317854685
    Empirical Dispersion Energy =           0.0000000000000000
    VV10 Nonlocal Energy =                  0.0000000000000000
    Total Energy =                       -117.8648308394272419

Computation Completed


Properties will be evaluated at   0.000000,   0.000000,   0.000000 [a0]

Properties computed using the SCF density matrix

  Nuclear Dipole Moment: [e a0]
     X:    -0.0019      Y:    -0.0002      Z:     0.0000

  Electronic Dipole Moment: [e a0]
     X:     0.0021      Y:    -0.0001      Z:     0.0000

  Dipole Moment: [e a0]
     X:     0.0002      Y:    -0.0003      Z:     0.0000     Total:     0.0003

  Dipole Moment: [D]
     X:     0.0004      Y:    -0.0007      Z:     0.0000     Total:     0.0008


*** tstop() called on atlantis at Tue Apr 19 09:55:58 2022
Module time:
	user time   =      16.03 seconds =       0.27 minutes
	system time =       0.04 seconds =       0.00 minutes
	total time  =         16 seconds =       0.27 minutes
Total time:
	user time   =      87.34 seconds =       1.46 minutes
	system time =       0.31 seconds =       0.01 minutes
	total time  =         89 seconds =       1.48 minutes

*** tstart() called on atlantis
*** at Tue Apr 19 09:55:58 2022


         ------------------------------------------------------------
                                   SCF GRAD                          
                          Rob Parrish, Justin Turney,                
                       Andy Simmonett, and Alex Sokolov              
         ------------------------------------------------------------

  ==> Geometry <==

    Molecular point group: cs
    Full point group: Cs

    Geometry (in Angstrom), charge = 0, multiplicity = 1:

       Center              X                  Y                   Z               Mass       
    ------------   -----------------  -----------------  -----------------  -----------------
         C            0.322081944250     0.813343688021     0.000000000000    12.000000000000
         C           -0.865318003082    -0.128389764139     0.000000000000    12.000000000000
         C            0.543404419293    -0.684939538412     0.000000000000    12.000000000000
         H            0.537301240642     1.360829034576    -0.920390000000     1.007825032230
         H            0.537301240642     1.360829034576     0.920390000000     1.007825032230
         H           -1.447665927882    -0.214858697572     0.920340000000     1.007825032230
         H           -1.447665927882    -0.214858697572    -0.920340000000     1.007825032230
         H            0.909362367658    -1.146055979665    -0.920370000000     1.007825032230
         H            0.909362367658    -1.146055979665     0.920370000000     1.007825032230

  Nuclear repulsion =   75.276267816162189

  ==> Basis Set <==

  Basis Set: 6-311++G**
    Blend: 6-311++G**
    Number of shells: 60
    Number of basis function: 108
    Number of Cartesian functions: 111
    Spherical Harmonics?: true
    Max angular momentum: 2

  ==> DFJKGrad: Density-Fitted SCF Gradients <==

    Gradient:                    1
    J tasked:                  Yes
    K tasked:                  Yes
    wK tasked:                  No
    OpenMP threads:              1
    Integrals threads:           1
    Memory [MiB]:              375
    Schwarz Cutoff:          0E+00
    Fitting Condition:       1E-10

   => Auxiliary Basis Set <=

  Basis Set: (6-311++G** AUX)
    Blend: AUG-CC-PVTZ-JKFIT
    Number of shells: 174
    Number of basis function: 588
    Number of Cartesian functions: 723
    Spherical Harmonics?: true
    Max angular momentum: 4

  ==> DFT Potential <==

   => Composite Functional: M06-2X <= 

    Hybrid M06-2X Meta-GGA XC Functional

    Y. Zhao and D. G. Truhlar,  Theor. Chem. Acc., 120, 215, 2008


    Deriv               =              1
    GGA                 =           TRUE
    Meta                =           TRUE

    Exchange Hybrid     =           TRUE
    MP2 Hybrid          =          FALSE

   => Exchange Functionals <=

    1.0000   XC_HYB_MGGA_X_M06_2X

   => Exact (HF) Exchange <=

    0.5400               HF 

   => Correlation Functionals <=

    1.0000   XC_MGGA_C_M06_2X

   => Molecular Quadrature <=

    Radial Scheme          =       TREUTLER
    Pruning Scheme         =           FLAT
    Nuclear Scheme         =       TREUTLER

    BS radius alpha        =              1
    Pruning alpha          =              1
    Radial Points          =             75
    Spherical Points       =            302
    Total Points           =         203850
    Total Blocks           =           1573
    Max Points             =            256
    Max Functions          =            108


  -Total Gradient:
     Atom            X                  Y                   Z
    ------   -----------------  -----------------  -----------------
       1        0.001694804107     0.003182792792     0.000000000000
       2       -0.003351085852    -0.000582548920     0.000000000000
       3        0.001925708899    -0.002397554833     0.000000000000
       4        0.001366102341     0.003645426842    -0.006049542306
       5        0.001366102341     0.003645426842     0.006049542306
       6       -0.003948841549    -0.000599141356     0.006127056151
       7       -0.003948841549    -0.000599141356    -0.006127056151
       8        0.002476569576    -0.003077046410    -0.006134520707
       9        0.002476569576    -0.003077046410     0.006134520707


*** tstop() called on atlantis at Tue Apr 19 09:56:01 2022
Module time:
	user time   =       3.08 seconds =       0.05 minutes
	system time =       0.00 seconds =       0.00 minutes
	total time  =          3 seconds =       0.05 minutes
Total time:
	user time   =      90.42 seconds =       1.51 minutes
	system time =       0.31 seconds =       0.01 minutes
	total time  =         92 seconds =       1.53 minutes

  //>>>>>>>>>>>>>>>>>>>>>>>>>>>>>>>>>>>//
  //    Loading displacement 4 of 34   //
  //<<<<<<<<<<<<<<<<<<<<<<<<<<<<<<<<<<<//
gradient() will perform analytic gradient computation.

*** tstart() called on atlantis
*** at Tue Apr 19 09:56:01 2022

   => Loading Basis Set <=

    Name: 6-311++G**
    Role: ORBITAL
    Keyword: BASIS
    atoms 1-3 entry C          line   119 file /home/akrom/software/anaconda3/envs/ffpenv/share/psi4/basis/6-311ppgss.gbs 
    atoms 4-9 entry H          line    42 file /home/akrom/software/anaconda3/envs/ffpenv/share/psi4/basis/6-311ppgss.gbs 


         ---------------------------------------------------------
                                   SCF
               by Justin Turney, Rob Parrish, Andy Simmonett
                          and Daniel G. A. Smith
                              RKS Reference
                        1 Threads,    500 MiB Core
         ---------------------------------------------------------

  ==> Geometry <==

    Molecular point group: cs
    Full point group: Cs

    Geometry (in Angstrom), charge = 0, multiplicity = 1:

       Center              X                  Y                   Z               Mass       
    ------------   -----------------  -----------------  -----------------  -----------------
         C            0.321531939855     0.812635159068     0.000000000000    12.000000000000
         C           -0.865072120902    -0.128008550426     0.000000000000    12.000000000000
         C            0.543576026536    -0.684746186637     0.000000000000    12.000000000000
         H            0.537745691682     1.361023130555    -0.920390000000     1.007825032230
         H            0.537745691682     1.361023130555     0.920390000000     1.007825032230
         H           -1.447431558178    -0.214399813329     0.920340000000     1.007825032230
         H           -1.447431558178    -0.214399813329    -0.920340000000     1.007825032230
         H            0.909472463446    -1.145911419873    -0.920370000000     1.007825032230
         H            0.909472463446    -1.145911419873     0.920370000000     1.007825032230

  Running in cs symmetry.

  Rotational constants: A =      0.66518  B =      0.66468  C =      0.41665 [cm^-1]
  Rotational constants: A =  19941.69418  B =  19926.66026  C =  12490.72376 [MHz]
  Nuclear repulsion =   75.292327113354389

  Charge       = 0
  Multiplicity = 1
  Electrons    = 24
  Nalpha       = 12
  Nbeta        = 12

  ==> Algorithm <==

  SCF Algorithm Type is DF.
  DIIS enabled.
  MOM disabled.
  Fractional occupation disabled.
  Guess Type is SAD.
  Energy threshold   = 1.00e-08
  Density threshold  = 1.00e-08
  Integral threshold = 0.00e+00

  ==> Primary Basis <==

  Basis Set: 6-311++G**
    Blend: 6-311++G**
    Number of shells: 60
    Number of basis function: 108
    Number of Cartesian functions: 111
    Spherical Harmonics?: true
    Max angular momentum: 2

  ==> DFT Potential <==

   => Composite Functional: M06-2X <= 

    Hybrid M06-2X Meta-GGA XC Functional

    Y. Zhao and D. G. Truhlar,  Theor. Chem. Acc., 120, 215, 2008


    Deriv               =              1
    GGA                 =           TRUE
    Meta                =           TRUE

    Exchange Hybrid     =           TRUE
    MP2 Hybrid          =          FALSE

[...]

    Exchange Hybrid     =           TRUE
    MP2 Hybrid          =          FALSE

   => Exchange Functionals <=

    1.0000   XC_HYB_MGGA_X_M06_2X

   => Exact (HF) Exchange <=

    0.5400               HF 

   => Correlation Functionals <=

    1.0000   XC_MGGA_C_M06_2X

   => Molecular Quadrature <=

    Radial Scheme          =       TREUTLER
    Pruning Scheme         =           FLAT
    Nuclear Scheme         =       TREUTLER

    BS radius alpha        =              1
    Pruning alpha          =              1
    Radial Points          =             75
    Spherical Points       =            302
    Total Points           =         203850
    Total Blocks           =           1569
    Max Points             =            256
    Max Functions          =            108


  -Total Gradient:
     Atom            X                  Y                   Z
    ------   -----------------  -----------------  -----------------
       1        0.001159253365     0.002922009762     0.000006140810
       2       -0.003069702181    -0.000417994632     0.000439598180
       3        0.001981511770    -0.002464069216    -0.001224674532
       4        0.001475257329     0.003708342753    -0.006136999234
       5        0.001478437888     0.003721432869     0.006134180380
       6       -0.003780368162    -0.000567433711     0.005847409677
       7       -0.004123411850    -0.000575593555    -0.006399922415
       8        0.002138507099    -0.002773938330    -0.005447423362
       9        0.002854499218    -0.003480262929     0.006780938966


*** tstop() called on atlantis at Tue Apr 19 10:05:57 2022
Module time:
	user time   =       3.12 seconds =       0.05 minutes
	system time =       0.00 seconds =       0.00 minutes
	total time  =          3 seconds =       0.05 minutes
Total time:
	user time   =     684.74 seconds =      11.41 minutes
	system time =       1.63 seconds =       0.03 minutes
	total time  =        688 seconds =      11.47 minutes

         ----------------------------------------------------------
                                   FINDIF
                     R. A. King and Jonathon Misiewicz
         ---------------------------------------------------------

  Computing second-derivative from gradients using projected, 
  symmetry-adapted, cartesian coordinates.

  34 gradients passed in, including the reference geometry.
  Generating complete list of displacements from unique ones.

    Operation 2 takes plus displacements of irrep A" to minus ones.

-------------------------------------------------------------


  ==> Harmonic Vibrational Analysis <==

  non-mass-weighted Hessian:       Symmetric? True   Hermitian? True   Lin Dep Dim?  6 (0)
  projection of translations (True) and rotations (True) removed 6 degrees of freedom (6)
  total projector:                 Symmetric? True   Hermitian? True   Lin Dep Dim?  6 (6)
  mass-weighted Hessian:           Symmetric? True   Hermitian? True   Lin Dep Dim?  6 (0)
  pre-proj  low-frequency mode:    0.0000i [cm^-1]
  pre-proj  low-frequency mode:    0.0000i [cm^-1]
  pre-proj  low-frequency mode:    0.0000i [cm^-1]
  pre-proj  low-frequency mode:    0.0000i [cm^-1]
  pre-proj  low-frequency mode:    0.0000i [cm^-1]
  pre-proj  low-frequency mode:    0.0000  [cm^-1]
  pre-proj  all modes:['0.0001i' '0.0000i' '0.0000i' '0.0000i' '0.0000i' '0.0000' '790.7752'
 '795.7525' '890.0700' '898.4979' '899.0936' '1068.7278' '1072.3683'
 '1117.8513' '1173.0227' '1205.3520' '1222.5960' '1223.3101' '1481.2311'
 '1488.1837' '1537.5156' '3069.9122' '3073.3374' '3077.7080' '3150.5551'
 '3150.6741' '3169.0561']
  projected mass-weighted Hessian: Symmetric? True   Hermitian? True   Lin Dep Dim?  6 (6)
  post-proj low-frequency mode:    0.0000i [cm^-1] (TR)
  post-proj low-frequency mode:    0.0000i [cm^-1] (TR)
  post-proj low-frequency mode:    0.0000i [cm^-1] (TR)
  post-proj low-frequency mode:    0.0000i [cm^-1] (TR)
  post-proj low-frequency mode:    0.0000  [cm^-1] (TR)
  post-proj low-frequency mode:    0.0000  [cm^-1] (TR)
  post-proj  all modes:['0.0000i' '0.0000i' '0.0000i' '0.0000i' '0.0000' '0.0000' '790.7752'
 '795.7525' '890.0700' '898.4979' '899.0936' '1068.7278' '1072.3683'
 '1117.8513' '1173.0227' '1205.3520' '1222.5960' '1223.3101' '1481.2311'
 '1488.1837' '1537.5156' '3069.9122' '3073.3374' '3077.7080' '3150.5551'
 '3150.6741' '3169.0561']

  Vibration                       7                   8                   9           
  Freq [cm^-1]                 790.7752            795.7525            890.0700       
  Irrep                          App                 App                  Ap          
  Reduced mass [u]              1.0219              1.0225              3.4152        
  Force const [mDyne/A]         0.3765              0.3815              1.5941        
  Turning point v=0 [a0]        0.3860              0.3847              0.1990        
  RMS dev v=0 [a0 u^1/2]        0.2759              0.2750              0.2601        
  Char temp [K]               1137.7494           1144.9106           1280.6126       
  ----------------------------------------------------------------------------------
      1   C                0.00 -0.00 -0.00   -0.00 -0.00  0.03   -0.16  0.22  0.00   
      2   C               -0.00 -0.00 -0.02   -0.00 -0.00 -0.02    0.29  0.04  0.00   
      3   C                0.00 -0.00  0.03    0.00 -0.00 -0.01   -0.08 -0.24  0.00   
      4   H                0.43 -0.12  0.03   -0.06 -0.32 -0.18   -0.28  0.24 -0.02   
      5   H               -0.43  0.12  0.03    0.06  0.32 -0.18   -0.28  0.24  0.02   
      6   H                0.22  0.31  0.14    0.25 -0.32  0.11    0.24  0.03 -0.03   
      7   H               -0.22 -0.31  0.14   -0.25  0.32  0.11    0.24  0.03  0.03   
      8   H               -0.06  0.33 -0.16    0.40  0.16  0.07   -0.26 -0.35 -0.02   
      9   H                0.06 -0.33 -0.16   -0.40 -0.16  0.07   -0.26 -0.35  0.02   

  Vibration                       10                  11                  12          
  Freq [cm^-1]                 898.4979            899.0936           1068.7278       
  Irrep                           Ap                 App                  Ap          
  Reduced mass [u]              4.2006              1.0440              1.3073        
  Force const [mDyne/A]         1.9980              0.4973              0.8797        
  Turning point v=0 [a0]        0.1786              0.3581              0.2936        
  RMS dev v=0 [a0 u^1/2]        0.2588              0.2588              0.2373        
  Char temp [K]               1292.7385           1293.5955           1537.6614       
  ----------------------------------------------------------------------------------
      1   C               -0.25 -0.21 -0.00    0.00  0.00 -0.03   -0.07  0.05  0.00   
      2   C               -0.03  0.29 -0.00    0.00 -0.00 -0.03    0.02  0.00 -0.00   
      3   C                0.30 -0.11 -0.00   -0.00  0.00 -0.03   -0.08 -0.11 -0.00   
      4   H               -0.28 -0.17  0.02    0.12  0.33  0.20    0.33 -0.10  0.00   
      5   H               -0.28 -0.17 -0.02   -0.12 -0.33  0.20    0.33 -0.10 -0.00   
      6   H               -0.05  0.42  0.00    0.35  0.05  0.20   -0.03  0.09 -0.02   
      7   H               -0.05  0.42 -0.00   -0.35 -0.05  0.20   -0.03  0.09  0.02   
      8   H                0.23 -0.11 -0.02    0.23 -0.28  0.20    0.50  0.34  0.01   
      9   H                0.23 -0.11  0.02   -0.23  0.28  0.20    0.50  0.34 -0.01   

  Vibration                       13                  14                  15          
  Freq [cm^-1]                1072.3683           1117.8513           1173.0227       
  Irrep                           Ap                  Ap                 App          
  Reduced mass [u]              1.2757              1.3533              1.0084        
  Force const [mDyne/A]         0.8643              0.9963              0.8175        
  Turning point v=0 [a0]        0.2967              0.2821              0.3190        
  RMS dev v=0 [a0 u^1/2]        0.2369              0.2321              0.2265        
  Char temp [K]               1542.8993           1608.3392           1687.7185       
  ----------------------------------------------------------------------------------
      1   C                0.02 -0.01  0.00   -0.13  0.04  0.00   -0.00 -0.00  0.00   
      2   C                0.03 -0.15  0.00    0.02 -0.05 -0.00    0.00  0.00 -0.01   
      3   C               -0.02  0.03  0.00    0.06  0.07 -0.00   -0.00  0.00  0.00   
      4   H               -0.16  0.02 -0.02    0.55 -0.24 -0.01   -0.39  0.15 -0.00   
      5   H               -0.16  0.02  0.02    0.55 -0.24  0.01    0.39 -0.15 -0.00   
      6   H               -0.06  0.67  0.02    0.01  0.09  0.01   -0.05  0.40  0.00   
      7   H               -0.06  0.67 -0.02    0.01  0.09 -0.01    0.05 -0.40  0.00   
      8   H                0.01  0.03  0.01   -0.30 -0.16 -0.02    0.30  0.26 -0.00   
      9   H                0.01  0.03 -0.01   -0.30 -0.16  0.02   -0.30 -0.26 -0.00   

  Vibration                       16                  17                  18          
  Freq [cm^-1]                1205.3520           1222.5960           1223.3101       
  Irrep                           Ap                 App                 App          
  Reduced mass [u]              2.6442              1.4460              1.4481        
  Force const [mDyne/A]         2.2634              1.2734              1.2768        
  Turning point v=0 [a0]        0.1944              0.2610              0.2607        
  RMS dev v=0 [a0 u^1/2]        0.2235              0.2219              0.2218        
  Char temp [K]               1734.2332           1759.0435           1760.0709       
  ----------------------------------------------------------------------------------
      1   C               -0.07 -0.20  0.00   -0.00 -0.00 -0.13   -0.00  0.00 -0.10   
      2   C                0.22  0.06 -0.00    0.00  0.00  0.15    0.00 -0.00 -0.06   
      3   C               -0.17  0.15 -0.00   -0.00  0.00 -0.03    0.00 -0.00  0.16   
      4   H               -0.15 -0.33 -0.06    0.33  0.20  0.06   -0.17  0.34  0.05   
      5   H               -0.15 -0.33  0.06   -0.33 -0.20  0.06    0.17 -0.34  0.05   
      6   H                0.36 -0.08  0.05   -0.35 -0.17 -0.08    0.19 -0.35  0.03   
      7   H                0.36 -0.08 -0.05    0.35  0.17 -0.08   -0.19  0.35  0.03   
      8   H               -0.13  0.36 -0.06    0.36  0.20  0.01   -0.20  0.35 -0.08   
      9   H               -0.13  0.36  0.06   -0.36 -0.20  0.01    0.20 -0.35 -0.08   

  Vibration                       19                  20                  21          
  Freq [cm^-1]                1481.2311           1488.1837           1537.5156       
  Irrep                           Ap                  Ap                  Ap          
  Reduced mass [u]              1.0922              1.0942              1.3195        
  Force const [mDyne/A]         1.4119              1.4278              1.8378        
  Turning point v=0 [a0]        0.2728              0.2719              0.2436        
  RMS dev v=0 [a0 u^1/2]        0.2016              0.2011              0.1979        
  Char temp [K]               2131.1617           2141.1651           2212.1426       
  ----------------------------------------------------------------------------------
      1   C               -0.03 -0.06 -0.00   -0.00 -0.04  0.00   -0.04 -0.08 -0.00   
      2   C               -0.05 -0.01  0.00    0.04 -0.00  0.00    0.10  0.01  0.00   
      3   C               -0.01 -0.01 -0.00    0.04 -0.05 -0.00   -0.06  0.08  0.00   
      4   H                0.16  0.40  0.31    0.06  0.21  0.16    0.11  0.25  0.23   
      5   H                0.16  0.40 -0.31    0.06  0.21 -0.16    0.11  0.25 -0.23   
      6   H                0.37  0.06  0.26   -0.27 -0.01 -0.19   -0.33 -0.04 -0.27   
      7   H                0.37  0.06 -0.26   -0.27 -0.01  0.19   -0.33 -0.04  0.27   
      8   H               -0.00  0.01 -0.01   -0.28  0.36 -0.32    0.18 -0.27  0.27   
      9   H               -0.00  0.01  0.01   -0.28  0.36  0.32    0.18 -0.27 -0.27   

  Vibration                       22                  23                  24          
  Freq [cm^-1]                3069.9122           3073.3374           3077.7080       
  Irrep                           Ap                  Ap                  Ap          
  Reduced mass [u]              1.0501              1.0510              1.0638        
  Force const [mDyne/A]         5.8307              5.8490              5.9369        
  Turning point v=0 [a0]        0.1933              0.1931              0.1918        
  RMS dev v=0 [a0 u^1/2]        0.1400              0.1400              0.1399        
  Char temp [K]               4416.9201           4421.8482           4428.1366       
  ----------------------------------------------------------------------------------
      1   C                0.01  0.03 -0.00    0.02  0.04 -0.00   -0.01 -0.03  0.00   
      2   C                0.05  0.01 -0.00   -0.01 -0.00  0.00    0.04  0.01 -0.00   
      3   C                0.01 -0.02 -0.00   -0.03  0.03  0.00   -0.03  0.03 -0.00   
      4   H               -0.07 -0.17  0.30   -0.09 -0.24  0.43    0.07  0.17 -0.30   
      5   H               -0.07 -0.17 -0.30   -0.09 -0.24 -0.43    0.07  0.17  0.30   
      6   H               -0.28 -0.04  0.47    0.04  0.00 -0.06   -0.22 -0.03  0.38   
      7   H               -0.28 -0.04 -0.47    0.04  0.00  0.06   -0.22 -0.03 -0.38   
      8   H               -0.09  0.11  0.24    0.16 -0.20 -0.42    0.14 -0.17 -0.37   
      9   H               -0.09  0.11 -0.24    0.16 -0.20  0.42    0.14 -0.17  0.37   

  Vibration                       25                  26                  27          
  Freq [cm^-1]                3150.5551           3150.6741           3169.0561       
  Irrep                          App                 App                 App          
  Reduced mass [u]              1.1210              1.1210              1.1161        
  Force const [mDyne/A]         6.5559              6.5563              6.6043        
  Turning point v=0 [a0]        0.1846              0.1846              0.1845        
  RMS dev v=0 [a0 u^1/2]        0.1382              0.1382              0.1378        
  Char temp [K]               4532.9473           4533.1186           4559.5661       
  ----------------------------------------------------------------------------------
      1   C               -0.00 -0.00 -0.08    0.00  0.00  0.03   -0.00 -0.00 -0.06   
      2   C               -0.00  0.00  0.01   -0.00 -0.00 -0.08   -0.00  0.00 -0.06   
      3   C               -0.00  0.00  0.07   -0.00  0.00  0.05   -0.00  0.00 -0.06   
      4   H               -0.11 -0.26  0.44    0.04  0.11 -0.19   -0.08 -0.21  0.34   
      5   H                0.11  0.26  0.44   -0.04 -0.11 -0.19    0.08  0.21  0.34   
      6   H                0.04  0.00 -0.06   -0.30 -0.05  0.48   -0.22 -0.03  0.34   
      7   H               -0.04 -0.00 -0.06    0.30  0.05  0.48    0.22  0.03  0.34   
      8   H                0.16 -0.19 -0.39    0.11 -0.15 -0.29   -0.14  0.17  0.34   
      9   H               -0.16  0.19 -0.39   -0.11  0.15 -0.29    0.14 -0.17  0.34   

  ==> Thermochemistry Components <==

  Entropy, S
    Electronic S            0.000 [cal/(mol K)]        0.000 [J/(mol K)]       0.00000000 [mEh/K] (multiplicity = 1)
    Translational S        37.135 [cal/(mol K)]      155.375 [J/(mol K)]       0.05917914 [mEh/K] (mol. weight = 42.0470 [u], P = 101325.00 [Pa])
    Rotational S           21.699 [cal/(mol K)]       90.789 [J/(mol K)]       0.03457982 [mEh/K] (symmetry no. = 1)
    Vibrational S           1.247 [cal/(mol K)]        5.218 [J/(mol K)]       0.00198759 [mEh/K]
  Total S                  60.082 [cal/(mol K)]      251.383 [J/(mol K)]       0.09574655 [mEh/K]
  Correction S              0.000 [cal/(mol K)]        0.000 [J/(mol K)]       0.00000000 [mEh/K]

  Constant volume heat capacity, Cv
    Electronic Cv           0.000 [cal/(mol K)]        0.000 [J/(mol K)]       0.00000000 [mEh/K]
    Translational Cv        2.981 [cal/(mol K)]       12.472 [J/(mol K)]       0.00475022 [mEh/K]
    Rotational Cv           2.981 [cal/(mol K)]       12.472 [J/(mol K)]       0.00475022 [mEh/K]
    Vibrational Cv          4.748 [cal/(mol K)]       19.866 [J/(mol K)]       0.00756654 [mEh/K]
  Total Cv                 10.710 [cal/(mol K)]       44.809 [J/(mol K)]       0.01706697 [mEh/K]
  Correction Cv             0.000 [cal/(mol K)]        0.000 [J/(mol K)]       0.00000000 [mEh/K]

  Constant pressure heat capacity, Cp
    Electronic Cp           0.000 [cal/(mol K)]        0.000 [J/(mol K)]       0.00000000 [mEh/K]
    Translational Cp        4.968 [cal/(mol K)]       20.786 [J/(mol K)]       0.00791703 [mEh/K]
    Rotational Cp           2.981 [cal/(mol K)]       12.472 [J/(mol K)]       0.00475022 [mEh/K]
    Vibrational Cp          4.748 [cal/(mol K)]       19.866 [J/(mol K)]       0.00756654 [mEh/K]
  Total Cp                 12.697 [cal/(mol K)]       53.124 [J/(mol K)]       0.02023378 [mEh/K]
  Correction Cp             0.000 [cal/(mol K)]        0.000 [J/(mol K)]       0.00000000 [mEh/K]

  ==> Thermochemistry Energy Analysis <==

  Raw electronic energy, E0
  Total E0, Electronic energy at well bottom at 0 [K]                 -117.86481801 [Eh]

  Zero-point energy, ZPE_vib = Sum_i nu_i / 2
    Electronic ZPE          0.000 [kcal/mol]        0.000 [kJ/mol]       0.00000000 [Eh]
    Translational ZPE       0.000 [kcal/mol]        0.000 [kJ/mol]       0.00000000 [Eh]
    Rotational ZPE          0.000 [kcal/mol]        0.000 [kJ/mol]       0.00000000 [Eh]
    Vibrational ZPE        50.829 [kcal/mol]      212.670 [kJ/mol]       0.08100160 [Eh]       17777.795 [cm^-1]
  Correction ZPE           50.829 [kcal/mol]      212.670 [kJ/mol]       0.08100160 [Eh]       17777.795 [cm^-1]
  Total ZPE, Electronic energy at 0 [K]                               -117.78381642 [Eh]

  Thermal Energy, E (includes ZPE)
    Electronic E            0.000 [kcal/mol]        0.000 [kJ/mol]       0.00000000 [Eh]
    Translational E         0.889 [kcal/mol]        3.718 [kJ/mol]       0.00141628 [Eh]
    Rotational E            0.889 [kcal/mol]        3.718 [kJ/mol]       0.00141628 [Eh]
    Vibrational E          51.134 [kcal/mol]      213.943 [kJ/mol]       0.08148644 [Eh]
  Correction E             52.911 [kcal/mol]      221.379 [kJ/mol]       0.08431899 [Eh]
  Total E, Electronic energy at  298.15 [K]                           -117.78049902 [Eh]

  Enthalpy, H_trans = E_trans + k_B * T
    Electronic H            0.000 [kcal/mol]        0.000 [kJ/mol]       0.00000000 [Eh]
    Translational H         1.481 [kcal/mol]        6.197 [kJ/mol]       0.00236046 [Eh]
    Rotational H            0.889 [kcal/mol]        3.718 [kJ/mol]       0.00141628 [Eh]
    Vibrational H          51.134 [kcal/mol]      213.943 [kJ/mol]       0.08148644 [Eh]
  Correction H             53.503 [kcal/mol]      223.858 [kJ/mol]       0.08526318 [Eh]
  Total H, Enthalpy at  298.15 [K]                                    -117.77955483 [Eh]

  Gibbs free energy, G = H - T * S
    Electronic G            0.000 [kcal/mol]        0.000 [kJ/mol]       0.00000000 [Eh]
    Translational G        -9.591 [kcal/mol]      -40.128 [kJ/mol]      -0.01528380 [Eh]
    Rotational G           -5.581 [kcal/mol]      -23.350 [kJ/mol]      -0.00889370 [Eh]
    Vibrational G          50.762 [kcal/mol]      212.387 [kJ/mol]       0.08089384 [Eh]
  Correction G             35.590 [kcal/mol]      148.909 [kJ/mol]       0.05671634 [Eh]
  Total G, Free enthalpy at  298.15 [K]                               -117.80810167 [Eh]

    Psi4 stopped on: Tuesday, 19 April 2022 10:05AM
    Psi4 wall time for execution: 0:11:28.38

*** Psi4 exiting successfully. Buy a developer a beer!
