
    -----------------------------------------------------------------------
          Psi4: An Open-Source Ab Initio Electronic Structure Package
                               Psi4 1.3.2 release

                         Git: Rev {HEAD} ecbda83 


    R. M. Parrish, L. A. Burns, D. G. A. Smith, A. C. Simmonett,
    A. E. DePrince III, E. G. Hohenstein, U. Bozkaya, A. Yu. Sokolov,
    R. Di Remigio, R. M. Richard, J. F. Gonthier, A. M. James,
    H. R. McAlexander, A. Kumar, M. Saitow, X. Wang, B. P. Pritchard,
    P. Verma, H. F. Schaefer III, K. Patkowski, R. A. King, E. F. Valeev,
    F. A. Evangelista, J. M. Turney, T. D. Crawford, and C. D. Sherrill,
    J. Chem. Theory Comput. 13(7) pp 3185--3197 (2017).
    (doi: 10.1021/acs.jctc.7b00174)


                         Additional Contributions by
    P. Kraus, H. Kruse, M. H. Lechner, M. C. Schieber, R. A. Shaw,
    A. Alenaizan, R. Galvelis, Z. L. Glick, S. Lehtola, and J. P. Misiewicz

    -----------------------------------------------------------------------


    Psi4 started on: Wednesday, 20 April 2022 02:02AM

    Process ID: 12915
    Host:       atlantis
    PSIDATADIR: /home/akrom/software/anaconda3/envs/ffpenv/share/psi4
    Memory:     500.0 MiB
    Threads:    1
    
  ==> Input File <==

--------------------------------------------------------------------------
set basis  6-311++G**
molecule {
0 1
   C       -1.22151       -0.69325        0.00000
   C       -1.21114        0.71122        0.00000
   C       -0.01037       -1.40452        0.00000
   C        0.01037        1.40452        0.00000
   C        1.21114       -0.71122        0.00000
   C        1.22151        0.69325        0.00000
   H       -2.17311       -1.23332        0.00000
   H       -2.15464        1.26533        0.00000
   H       -0.01848       -2.49865        0.00000
   H        0.01848        2.49865        0.00000
   H        2.15464       -1.26533        0.00000
   H        2.17311        1.23332        0.00000
}
energy('m06-2x')
frequencies('m06-2x')
--------------------------------------------------------------------------

*** tstart() called on atlantis
*** at Wed Apr 20 02:02:18 2022

   => Loading Basis Set <=

    Name: 6-311++G**
    Role: ORBITAL
    Keyword: BASIS
    atoms 1-6  entry C          line   119 file /home/akrom/software/anaconda3/envs/ffpenv/share/psi4/basis/6-311ppgss.gbs 
    atoms 7-12 entry H          line    42 file /home/akrom/software/anaconda3/envs/ffpenv/share/psi4/basis/6-311ppgss.gbs 


         ---------------------------------------------------------
                                   SCF
               by Justin Turney, Rob Parrish, Andy Simmonett
                          and Daniel G. A. Smith
                              RKS Reference
                        1 Threads,    500 MiB Core
         ---------------------------------------------------------

  ==> Geometry <==

    Molecular point group: c2h
    Full point group: C2h

    Geometry (in Angstrom), charge = 0, multiplicity = 1:

       Center              X                  Y                   Z               Mass       
    ------------   -----------------  -----------------  -----------------  -----------------
         C           -1.221510000000    -0.693250000000     0.000000000000    12.000000000000
         C           -1.211140000000     0.711220000000     0.000000000000    12.000000000000
         C           -0.010370000000    -1.404520000000     0.000000000000    12.000000000000
         C            0.010370000000     1.404520000000     0.000000000000    12.000000000000
         C            1.211140000000    -0.711220000000     0.000000000000    12.000000000000
         C            1.221510000000     0.693250000000     0.000000000000    12.000000000000
         H           -2.173110000000    -1.233320000000     0.000000000000     1.007825032230
         H           -2.154640000000     1.265330000000     0.000000000000     1.007825032230
         H           -0.018480000000    -2.498650000000     0.000000000000     1.007825032230
         H            0.018480000000     2.498650000000     0.000000000000     1.007825032230
         H            2.154640000000    -1.265330000000     0.000000000000     1.007825032230
         H            2.173110000000     1.233320000000     0.000000000000     1.007825032230

  Running in c2h symmetry.

  Rotational constants: A =      0.18753  B =      0.18752  C =      0.09376 [cm^-1]
  Rotational constants: A =   5621.92707  B =   5621.82252  C =   2810.93740 [MHz]
  Nuclear repulsion =  202.013308935380167

  Charge       = 0
  Multiplicity = 1
  Electrons    = 42
  Nalpha       = 21
  Nbeta        = 21

  ==> Algorithm <==

  SCF Algorithm Type is DF.
  DIIS enabled.
  MOM disabled.
  Fractional occupation disabled.
  Guess Type is SAD.
  Energy threshold   = 1.00e-06
  Density threshold  = 1.00e-06
  Integral threshold = 0.00e+00

  ==> Primary Basis <==

  Basis Set: 6-311++G**
    Blend: 6-311++G**
    Number of shells: 90
    Number of basis function: 174
    Number of Cartesian functions: 180
    Spherical Harmonics?: true
    Max angular momentum: 2

  ==> DFT Potential <==

   => Composite Functional: M06-2X <= 

    Hybrid M06-2X Meta-GGA XC Functional

    Y. Zhao and D. G. Truhlar,  Theor. Chem. Acc., 120, 215, 2008


    Deriv               =              1
    GGA                 =           TRUE
    Meta                =           TRUE

    Exchange Hybrid     =           TRUE
    MP2 Hybrid          =          FALSE

   => Exchange Functionals <=

    1.0000   XC_HYB_MGGA_X_M06_2X

   => Exact (HF) Exchange <=

    0.5400               HF 

   => Correlation Functionals <=

    1.0000   XC_MGGA_C_M06_2X

   => Molecular Quadrature <=

    Radial Scheme          =       TREUTLER
    Pruning Scheme         =           FLAT
    Nuclear Scheme         =       TREUTLER

    BS radius alpha        =              1
    Pruning alpha          =              1
    Radial Points          =             75
    Spherical Points       =            302
    Total Points           =         271800
    Total Blocks           =           2142
    Max Points             =            256
    Max Functions          =            174

   => Loading Basis Set <=

    Name: (6-311++G** AUX)
    Role: JKFIT
    Keyword: DF_BASIS_SCF
    atoms 1-6  entry C          line   162 file /home/akrom/software/anaconda3/envs/ffpenv/share/psi4/basis/aug-cc-pvtz-jkfit.gbs 
    atoms 7-12 entry H          line    70 file /home/akrom/software/anaconda3/envs/ffpenv/share/psi4/basis/aug-cc-pvtz-jkfit.gbs 

  ==> Pre-Iterations <==

   -------------------------------------------------------
    Irrep   Nso     Nmo     Nalpha   Nbeta   Ndocc  Nsocc
   -------------------------------------------------------
     Ag        66      66       0       0       0       0
     Bg        21      21       0       0       0       0
     Au        21      21       0       0       0       0
     Bu        66      66       0       0       0       0
   -------------------------------------------------------
    Total     174     174      21      21      21       0
   -------------------------------------------------------

  ==> Integral Setup <==

  DFHelper Memory: AOs need 0.213 GiB; user supplied 0.213 GiB. Using in-core AOs.

  ==> MemDFJK: Density-Fitted J/K Matrices <==

    J tasked:                   Yes
    K tasked:                   Yes
    wK tasked:                   No
    OpenMP threads:               1
    Memory [MiB]:               217
    Algorithm:                 Core
    Schwarz Cutoff:           1E-12
    Mask sparsity (%):       1.2815
    Fitting Condition:        1E-10

   => Auxiliary Basis Set <=

  Basis Set: (6-311++G** AUX)
    Blend: AUG-CC-PVTZ-JKFIT
    Number of shells: 264
    Number of basis function: 900
    Number of Cartesian functions: 1116
    Spherical Harmonics?: true
    Max angular momentum: 4

  Cached 5.9% of DFT collocation blocks in 0.160 [GiB].

  Minimum eigenvalue in the overlap matrix is 1.1393482713E-06.
  Using Symmetric Orthogonalization.

  SCF Guess: Superposition of Atomic Densities via on-the-fly atomic UHF.

  ==> Iterations <==

                           Total Energy        Delta E     RMS |[F,P]|

   @DF-RKS iter SAD:  -231.61311338850973   -2.31613e+02   0.00000e+00 
   @DF-RKS iter   1:  -231.84934009485178   -2.36227e-01   8.17420e-03 DIIS
   @DF-RKS iter   2:  -231.90141073775612   -5.20706e-02   7.61447e-03 DIIS
   @DF-RKS iter   3:  -232.19581034703737   -2.94400e-01   5.19939e-04 DIIS
   @DF-RKS iter   4:  -232.19696663874248   -1.15629e-03   7.98259e-05 DIIS
   @DF-RKS iter   5:  -232.19700174371786   -3.51050e-05   8.37516e-06 DIIS
   @DF-RKS iter   6:  -232.19700221451527   -4.70797e-07   8.84950e-07 DIIS
  Energy and wave function converged.


  ==> Post-Iterations <==

    Orbital Energies [Eh]
    ---------------------

    Doubly Occupied:                                                      

       1Ag   -10.550612     1Bu   -10.550282     2Bu   -10.550277  
       2Ag   -10.549532     3Ag   -10.549526     3Bu   -10.549165  
       4Ag    -0.955997     4Bu    -0.841399     5Bu    -0.841392  
       5Ag    -0.685370     6Ag    -0.685359     7Ag    -0.598261  
       6Bu    -0.535064     7Bu    -0.512244     8Bu    -0.488538  
       9Bu    -0.488525     1Au    -0.436574     8Ag    -0.404574  
       9Ag    -0.404564     1Bg    -0.307992     2Bg    -0.307983  

    Virtual:                                                              

      10Ag    -0.000355    10Bu     0.012868    11Bu     0.012870  
       2Au     0.015062     3Au     0.015069    11Ag     0.033233  
      12Ag     0.033236    12Bu     0.060816     4Au     0.072406  
      13Ag     0.091229     3Bg     0.097590     4Bg     0.097594  
      13Bu     0.103853    14Ag     0.127740    15Ag     0.127745  
      16Ag     0.131967    14Bu     0.135179    15Bu     0.135182  
       5Au     0.144136     6Au     0.144147     5Bg     0.147425  
      17Ag     0.160627    18Ag     0.160630    16Bu     0.163470  
      17Bu     0.163475    18Bu     0.166249    19Bu     0.195530  
      20Bu     0.195533     6Bg     0.224237    19Ag     0.228419  
      20Ag     0.228433    21Ag     0.243628    22Ag     0.255278  
      21Bu     0.276264    22Bu     0.302310    23Bu     0.302320  
      23Ag     0.315763    24Ag     0.315769    24Bu     0.339862  
      25Bu     0.383657    26Bu     0.383671    25Ag     0.383876  
      26Ag     0.383884    27Bu     0.480364    27Ag     0.493789  
       7Au     0.561547    28Bu     0.573593    29Bu     0.584811  
      30Bu     0.584831    28Ag     0.592086    29Ag     0.597172  
      30Ag     0.597193     7Bg     0.609356     8Bg     0.609362  
      31Ag     0.644268     8Au     0.655975     9Au     0.655981  
       9Bg     0.714610    32Ag     0.765372    33Ag     0.765395  
      31Bu     0.771378    32Bu     0.771389    34Ag     0.818480  
      33Bu     0.856786    34Bu     0.867627    35Bu     0.867670  
      36Bu     0.906608    35Ag     0.915261    36Ag     0.916191  
      37Ag     0.916202    37Bu     0.940428    38Bu     0.940459  
      10Au     0.993558    38Ag     1.047881    39Ag     1.047943  
      10Bg     1.061609    11Bg     1.130996    12Bg     1.131015  
      11Au     1.191036    12Au     1.191083    39Bu     1.343687  
      40Ag     1.345369    40Bu     1.494805    41Bu     1.548608  
      42Bu     1.548646    41Ag     1.551919    13Bg     1.607084  
      13Au     1.607443    14Au     1.607469    42Ag     1.673138  
      43Ag     1.673177    43Bu     1.692849    44Bu     1.692874  
      15Au     1.746063    14Bg     1.801695    15Bg     1.801740  
      44Ag     1.844228    45Ag     1.844304    45Bu     1.870772  
      16Bg     1.954352    17Bg     1.954354    46Bu     1.971720  
      47Bu     1.971751    46Ag     2.000227    48Bu     2.011413  
      47Ag     2.044034    48Ag     2.044061    16Au     2.096589  
      17Au     2.096619    18Bg     2.332258    18Au     2.350762  
      49Ag     2.418035    50Ag     2.422541    51Ag     2.422579  
      49Bu     2.485313    50Bu     2.485355    51Bu     2.617589  
      52Bu     2.617635    53Bu     2.667514    52Ag     2.703033  
      19Au     2.713097    54Bu     2.737503    55Bu     2.737528  
      53Ag     2.764629    54Ag     2.764674    56Bu     2.809857  
      19Bg     2.849087    20Bg     2.849100    55Ag     2.897222  
      20Au     2.948528    21Au     2.948530    56Ag     2.960361  
      57Ag     2.960480    21Bg     3.127600    57Bu     3.151287  
      58Ag     3.380036    59Ag     3.380081    58Bu     3.515141  
      59Bu     3.515171    60Ag     3.529939    60Bu     3.653921  
      61Ag     4.019868    62Ag     4.019905    61Bu     4.104787  
      62Bu     4.178830    63Bu     4.178870    63Ag     4.841334  
      64Ag    23.664174    64Bu    24.023153    65Bu    24.023236  
      65Ag    24.129859    66Ag    24.129952    66Bu    24.232623  

    Final Occupation by Irrep:
             Ag    Bg    Au    Bu 
    DOCC [     9,    2,    1,    9 ]

  @DF-RKS Final Energy:  -232.19700221451527

   => Energetics <=

    Nuclear Repulsion Energy =            202.0133089353801665
    One-Electron Energy =                -711.0785183880730074
    Two-Electron Energy =                 293.5946843635917958
    DFT Exchange-Correlation Energy =     -16.7264771254142559
    Empirical Dispersion Energy =           0.0000000000000000
    VV10 Nonlocal Energy =                  0.0000000000000000
    Total Energy =                       -232.1970022145152939

Computation Completed


Properties will be evaluated at   0.000000,   0.000000,   0.000000 [a0]

Properties computed using the SCF density matrix

  Nuclear Dipole Moment: [e a0]
     X:    -0.0000      Y:    -0.0000      Z:     0.0000

  Electronic Dipole Moment: [e a0]
     X:     0.0000      Y:     0.0000      Z:     0.0000

  Dipole Moment: [e a0]
     X:    -0.0000      Y:    -0.0000      Z:     0.0000     Total:     0.0000

  Dipole Moment: [D]
     X:    -0.0000      Y:    -0.0000      Z:     0.0000     Total:     0.0000


*** tstop() called on atlantis at Wed Apr 20 02:02:42 2022
Module time:
	user time   =      24.81 seconds =       0.41 minutes
	system time =       0.16 seconds =       0.00 minutes
	total time  =         24 seconds =       0.40 minutes
Total time:
	user time   =      24.81 seconds =       0.41 minutes
	system time =       0.16 seconds =       0.00 minutes
	total time  =         24 seconds =       0.40 minutes
gradient() will perform analytic gradient computation.

*** tstart() called on atlantis
*** at Wed Apr 20 02:02:42 2022

   => Loading Basis Set <=

    Name: 6-311++G**
    Role: ORBITAL
    Keyword: BASIS
    atoms 1-6  entry C          line   119 file /home/akrom/software/anaconda3/envs/ffpenv/share/psi4/basis/6-311ppgss.gbs 
    atoms 7-12 entry H          line    42 file /home/akrom/software/anaconda3/envs/ffpenv/share/psi4/basis/6-311ppgss.gbs 


         ---------------------------------------------------------
                                   SCF
               by Justin Turney, Rob Parrish, Andy Simmonett
                          and Daniel G. A. Smith
                              RKS Reference
                        1 Threads,    500 MiB Core
         ---------------------------------------------------------

  ==> Geometry <==

    Molecular point group: c2h
    Full point group: C2h

    Geometry (in Angstrom), charge = 0, multiplicity = 1:

       Center              X                  Y                   Z               Mass       
    ------------   -----------------  -----------------  -----------------  -----------------
         C           -1.221510000000    -0.693250000000     0.000000000000    12.000000000000
         C           -1.211140000000     0.711220000000     0.000000000000    12.000000000000
         C           -0.010370000000    -1.404520000000     0.000000000000    12.000000000000
         C            0.010370000000     1.404520000000     0.000000000000    12.000000000000
         C            1.211140000000    -0.711220000000     0.000000000000    12.000000000000
         C            1.221510000000     0.693250000000     0.000000000000    12.000000000000
         H           -2.173110000000    -1.233320000000     0.000000000000     1.007825032230
         H           -2.154640000000     1.265330000000     0.000000000000     1.007825032230
         H           -0.018480000000    -2.498650000000     0.000000000000     1.007825032230
         H            0.018480000000     2.498650000000     0.000000000000     1.007825032230
         H            2.154640000000    -1.265330000000     0.000000000000     1.007825032230
         H            2.173110000000     1.233320000000     0.000000000000     1.007825032230

  Running in c2h symmetry.

  Rotational constants: A =      0.18753  B =      0.18752  C =      0.09376 [cm^-1]
  Rotational constants: A =   5621.92707  B =   5621.82252  C =   2810.93740 [MHz]
  Nuclear repulsion =  202.013308935380167

  Charge       = 0
  Multiplicity = 1
  Electrons    = 42
  Nalpha       = 21
  Nbeta        = 21

  ==> Algorithm <==

  SCF Algorithm Type is DF.
  DIIS enabled.
  MOM disabled.
  Fractional occupation disabled.
  Guess Type is SAD.
  Energy threshold   = 1.00e-08
  Density threshold  = 1.00e-08
  Integral threshold = 0.00e+00

  ==> Primary Basis <==

  Basis Set: 6-311++G**
    Blend: 6-311++G**
    Number of shells: 90
    Number of basis function: 174
    Number of Cartesian functions: 180
    Spherical Harmonics?: true
    Max angular momentum: 2

  ==> DFT Potential <==

   => Composite Functional: M06-2X <= 

    Hybrid M06-2X Meta-GGA XC Functional

    Y. Zhao and D. G. Truhlar,  Theor. Chem. Acc., 120, 215, 2008


    Deriv               =              1
    GGA                 =           TRUE
    Meta                =           TRUE

    Exchange Hybrid     =           TRUE
    MP2 Hybrid          =          FALSE

   => Exchange Functionals <=

    1.0000   XC_HYB_MGGA_X_M06_2X

   => Exact (HF) Exchange <=

    0.5400               HF 

   => Correlation Functionals <=

    1.0000   XC_MGGA_C_M06_2X

   => Molecular Quadrature <=

    Radial Scheme          =       TREUTLER
    Pruning Scheme         =           FLAT
    Nuclear Scheme         =       TREUTLER

    BS radius alpha        =              1
    Pruning alpha          =              1
    Radial Points          =             75
    Spherical Points       =            302
    Total Points           =         271800
    Total Blocks           =           2142
    Max Points             =            256
    Max Functions          =            174

   => Loading Basis Set <=

    Name: (6-311++G** AUX)
    Role: JKFIT
    Keyword: DF_BASIS_SCF
    atoms 1-6  entry C          line   162 file /home/akrom/software/anaconda3/envs/ffpenv/share/psi4/basis/aug-cc-pvtz-jkfit.gbs 
    atoms 7-12 entry H          line    70 file /home/akrom/software/anaconda3/envs/ffpenv/share/psi4/basis/aug-cc-pvtz-jkfit.gbs 

  ==> Pre-Iterations <==

   -------------------------------------------------------
    Irrep   Nso     Nmo     Nalpha   Nbeta   Ndocc  Nsocc
   -------------------------------------------------------
     Ag        66      66       0       0       0       0
     Bg        21      21       0       0       0       0
     Au        21      21       0       0       0       0
     Bu        66      66       0       0       0       0
   -------------------------------------------------------
    Total     174     174      21      21      21       0
   -------------------------------------------------------

  ==> Integral Setup <==

  DFHelper Memory: AOs need 0.213 GiB; user supplied 0.213 GiB. Using in-core AOs.

  ==> MemDFJK: Density-Fitted J/K Matrices <==

    J tasked:                   Yes
    K tasked:                   Yes
    wK tasked:                   No
    OpenMP threads:               1
    Memory [MiB]:               217
    Algorithm:                 Core
    Schwarz Cutoff:           1E-12
    Mask sparsity (%):       1.2815
    Fitting Condition:        1E-10

   => Auxiliary Basis Set <=

  Basis Set: (6-311++G** AUX)
    Blend: AUG-CC-PVTZ-JKFIT
    Number of shells: 264
    Number of basis function: 900
    Number of Cartesian functions: 1116
    Spherical Harmonics?: true
    Max angular momentum: 4

  Cached 5.9% of DFT collocation blocks in 0.160 [GiB].

  Minimum eigenvalue in the overlap matrix is 1.1393482714E-06.
  Using Symmetric Orthogonalization.

  SCF Guess: Superposition of Atomic Densities via on-the-fly atomic UHF.

  ==> Iterations <==

                           Total Energy        Delta E     RMS |[F,P]|

   @DF-RKS iter SAD:  -231.61311338633482   -2.31613e+02   0.00000e+00 
   @DF-RKS iter   1:  -231.84934009240129   -2.36227e-01   8.17420e-03 DIIS
   @DF-RKS iter   2:  -231.90141073527542   -5.20706e-02   7.61447e-03 DIIS
   @DF-RKS iter   3:  -232.19581034459304   -2.94400e-01   5.19939e-04 DIIS
   @DF-RKS iter   4:  -232.19696663629890   -1.15629e-03   7.98259e-05 DIIS
   @DF-RKS iter   5:  -232.19700174127439   -3.51050e-05   8.37516e-06 DIIS
   @DF-RKS iter   6:  -232.19700221207270   -4.70798e-07   8.84950e-07 DIIS
   @DF-RKS iter   7:  -232.19700221957447   -7.50177e-09   1.00993e-07 DIIS
   @DF-RKS iter   8:  -232.19700221965016   -7.56870e-11   6.30707e-08 DIIS
   @DF-RKS iter   9:  -232.19700221966818   -1.80194e-11   7.24198e-09 DIIS
  Energy and wave function converged.


  ==> Post-Iterations <==

    Orbital Energies [Eh]
    ---------------------

    Doubly Occupied:                                                      

       1Ag   -10.550614     1Bu   -10.550284     2Bu   -10.550280  
       2Ag   -10.549534     3Ag   -10.549530     3Bu   -10.549168  
       4Ag    -0.956001     4Bu    -0.841401     5Bu    -0.841395  
       5Ag    -0.685372     6Ag    -0.685361     7Ag    -0.598262  
       6Bu    -0.535065     7Bu    -0.512247     8Bu    -0.488539  
       9Bu    -0.488527     1Au    -0.436576     8Ag    -0.404576  
       9Ag    -0.404566     1Bg    -0.307994     2Bg    -0.307986  

    Virtual:                                                              

      10Ag    -0.000356    10Bu     0.012867    11Bu     0.012869  
       2Au     0.015060     3Au     0.015067    11Ag     0.033232  
      12Ag     0.033234    12Bu     0.060816     4Au     0.072405  
      13Ag     0.091228     3Bg     0.097590     4Bg     0.097593  
      13Bu     0.103853    14Ag     0.127740    15Ag     0.127745  
      16Ag     0.131966    14Bu     0.135179    15Bu     0.135182  
       5Au     0.144134     6Au     0.144146     5Bg     0.147424  
      17Ag     0.160626    18Ag     0.160629    16Bu     0.163470  
      17Bu     0.163475    18Bu     0.166251    19Bu     0.195530  
      20Bu     0.195532     6Bg     0.224235    19Ag     0.228418  
      20Ag     0.228432    21Ag     0.243627    22Ag     0.255276  
      21Bu     0.276269    22Bu     0.302309    23Bu     0.302318  
      23Ag     0.315761    24Ag     0.315768    24Bu     0.339863  
      25Bu     0.383655    26Bu     0.383669    25Ag     0.383875  
      26Ag     0.383882    27Bu     0.480362    27Ag     0.493787  
       7Au     0.561544    28Bu     0.573592    29Bu     0.584810  
      30Bu     0.584830    28Ag     0.592085    29Ag     0.597170  
      30Ag     0.597191     7Bg     0.609354     8Bg     0.609359  
      31Ag     0.644266     8Au     0.655972     9Au     0.655978  
       9Bg     0.714608    32Ag     0.765371    33Ag     0.765393  
      31Bu     0.771376    32Bu     0.771387    34Ag     0.818479  
      33Bu     0.856787    34Bu     0.867626    35Bu     0.867669  
      36Bu     0.906609    35Ag     0.915260    36Ag     0.916190  
      37Ag     0.916201    37Bu     0.940427    38Bu     0.940457  
      10Au     0.993557    38Ag     1.047879    39Ag     1.047942  
      10Bg     1.061606    11Bg     1.130994    12Bg     1.131013  
      11Au     1.191034    12Au     1.191082    39Bu     1.343685  
      40Ag     1.345367    40Bu     1.494803    41Bu     1.548608  
      42Bu     1.548645    41Ag     1.551918    13Bg     1.607083  
      13Au     1.607441    14Au     1.607468    42Ag     1.673136  
      43Ag     1.673175    43Bu     1.692847    44Bu     1.692873  
      15Au     1.746062    14Bg     1.801694    15Bg     1.801739  
      44Ag     1.844229    45Ag     1.844304    45Bu     1.870771  
      16Bg     1.954350    17Bg     1.954352    46Bu     1.971719  
      47Bu     1.971749    46Ag     2.000225    48Bu     2.011413  
      47Ag     2.044032    48Ag     2.044060    16Au     2.096587  
      17Au     2.096617    18Bg     2.332257    18Au     2.350760  
      49Ag     2.418037    50Ag     2.422540    51Ag     2.422579  
      49Bu     2.485314    50Bu     2.485356    51Bu     2.617588  
      52Bu     2.617634    53Bu     2.667514    52Ag     2.703031  
      19Au     2.713094    54Bu     2.737502    55Bu     2.737527  
      53Ag     2.764627    54Ag     2.764672    56Bu     2.809857  
      19Bg     2.849085    20Bg     2.849097    55Ag     2.897221  
      20Au     2.948525    21Au     2.948527    56Ag     2.960360  
      57Ag     2.960479    21Bg     3.127597    57Bu     3.151285  
      58Ag     3.380033    59Ag     3.380079    58Bu     3.515139  
      59Bu     3.515170    60Ag     3.529937    60Bu     3.653919  
      61Ag     4.019866    62Ag     4.019905    61Bu     4.104785  
      62Bu     4.178829    63Bu     4.178869    63Ag     4.841333  
      64Ag    23.664171    64Bu    24.023151    65Bu    24.023233  
      65Ag    24.129857    66Ag    24.129949    66Bu    24.232621  

    Final Occupation by Irrep:
             Ag    Bg    Au    Bu 
    DOCC [     9,    2,    1,    9 ]

  @DF-RKS Final Energy:  -232.19700221966818

   => Energetics <=

    Nuclear Repulsion Energy =            202.0133089353801665
    One-Electron Energy =                -711.0779402470107016
    Two-Electron Energy =                 293.5940915799940854
    DFT Exchange-Correlation Energy =     -16.7264624880317321
    Empirical Dispersion Energy =           0.0000000000000000
    VV10 Nonlocal Energy =                  0.0000000000000000
    Total Energy =                       -232.1970022196681782

Computation Completed


Properties will be evaluated at   0.000000,   0.000000,   0.000000 [a0]

Properties computed using the SCF density matrix

  Nuclear Dipole Moment: [e a0]
     X:    -0.0000      Y:    -0.0000      Z:     0.0000

  Electronic Dipole Moment: [e a0]
     X:     0.0000      Y:     0.0000      Z:     0.0000

  Dipole Moment: [e a0]
     X:    -0.0000      Y:    -0.0000      Z:     0.0000     Total:     0.0000

  Dipole Moment: [D]
     X:    -0.0000      Y:    -0.0000      Z:     0.0000     Total:     0.0000


*** tstop() called on atlantis at Wed Apr 20 02:03:17 2022
Module time:
	user time   =      34.34 seconds =       0.57 minutes
	system time =       0.09 seconds =       0.00 minutes
	total time  =         35 seconds =       0.58 minutes
Total time:
	user time   =      59.16 seconds =       0.99 minutes
	system time =       0.25 seconds =       0.00 minutes
	total time  =         59 seconds =       0.98 minutes

*** tstart() called on atlantis
*** at Wed Apr 20 02:03:17 2022


         ------------------------------------------------------------
                                   SCF GRAD                          
                          Rob Parrish, Justin Turney,                
                       Andy Simmonett, and Alex Sokolov              
         ------------------------------------------------------------

  ==> Geometry <==

    Molecular point group: c2h
    Full point group: C2h

    Geometry (in Angstrom), charge = 0, multiplicity = 1:

       Center              X                  Y                   Z               Mass       
    ------------   -----------------  -----------------  -----------------  -----------------
         C           -1.221510000000    -0.693250000000     0.000000000000    12.000000000000
         C           -1.211140000000     0.711220000000     0.000000000000    12.000000000000
         C           -0.010370000000    -1.404520000000     0.000000000000    12.000000000000
         C            0.010370000000     1.404520000000     0.000000000000    12.000000000000
         C            1.211140000000    -0.711220000000     0.000000000000    12.000000000000
         C            1.221510000000     0.693250000000     0.000000000000    12.000000000000
         H           -2.173110000000    -1.233320000000     0.000000000000     1.007825032230
         H           -2.154640000000     1.265330000000     0.000000000000     1.007825032230
         H           -0.018480000000    -2.498650000000     0.000000000000     1.007825032230
         H            0.018480000000     2.498650000000     0.000000000000     1.007825032230
         H            2.154640000000    -1.265330000000     0.000000000000     1.007825032230
         H            2.173110000000     1.233320000000     0.000000000000     1.007825032230

  Nuclear repulsion =  202.013308935380167

  ==> Basis Set <==

  Basis Set: 6-311++G**
    Blend: 6-311++G**
    Number of shells: 90
    Number of basis function: 174
    Number of Cartesian functions: 180
    Spherical Harmonics?: true
    Max angular momentum: 2

  ==> DFJKGrad: Density-Fitted SCF Gradients <==

    Gradient:                    1
    J tasked:                  Yes
    K tasked:                  Yes
    wK tasked:                  No
    OpenMP threads:              1
    Integrals threads:           1
    Memory [MiB]:              375
    Schwarz Cutoff:          0E+00
    Fitting Condition:       1E-10

   => Auxiliary Basis Set <=

  Basis Set: (6-311++G** AUX)
    Blend: AUG-CC-PVTZ-JKFIT
    Number of shells: 264
    Number of basis function: 900
    Number of Cartesian functions: 1116
    Spherical Harmonics?: true
    Max angular momentum: 4

  ==> DFT Potential <==

   => Composite Functional: M06-2X <= 

    Hybrid M06-2X Meta-GGA XC Functional

    Y. Zhao and D. G. Truhlar,  Theor. Chem. Acc., 120, 215, 2008


    Deriv               =              1
    GGA                 =           TRUE
    Meta                =           TRUE

    Exchange Hybrid     =           TRUE
    MP2 Hybrid          =          FALSE

   => Exchange Functionals <=

    1.0000   XC_HYB_MGGA_X_M06_2X

   => Exact (HF) Exchange <=

    0.5400               HF 

   => Correlation Functionals <=

    1.0000   XC_MGGA_C_M06_2X

   => Molecular Quadrature <=

    Radial Scheme          =       TREUTLER
    Pruning Scheme         =           FLAT
    Nuclear Scheme         =       TREUTLER

    BS radius alpha        =              1
    Pruning alpha          =              1
    Radial Points          =             75
    Spherical Points       =            302
    Total Points           =         271800
    Total Blocks           =           2142
    Max Points             =            256
    Max Functions          =            174


  -Total Gradient:
     Atom            X                  Y                   Z
    ------   -----------------  -----------------  -----------------
       1       -0.004515621659    -0.002542290282     0.000000000000
       2       -0.004491917198     0.002640273320     0.000000000000
       3       -0.000029390690    -0.005239997614     0.000000000000
       4        0.000029390690     0.005239997614     0.000000000000
       5        0.004491917198    -0.002640273320     0.000000000000
       6        0.004515621659     0.002542290282     0.000000000000
       7       -0.006275237879    -0.003579707078    -0.000000000000
       8       -0.006208142980     0.003705982798     0.000000000000
       9       -0.000046651635    -0.007210825504     0.000000000000
      10        0.000046651635     0.007210825504     0.000000000000
      11        0.006208142980    -0.003705982798     0.000000000000
      12        0.006275237879     0.003579707078    -0.000000000000


*** tstop() called on atlantis at Wed Apr 20 02:03:26 2022
Module time:
	user time   =       8.70 seconds =       0.14 minutes
	system time =       0.09 seconds =       0.00 minutes
	total time  =          9 seconds =       0.15 minutes
Total time:
	user time   =      67.86 seconds =       1.13 minutes
	system time =       0.34 seconds =       0.01 minutes
	total time  =         68 seconds =       1.13 minutes

  Based on options and gradient (rms=3.64E-03), recommend projecting translations and projecting rotations.
hessian() will perform frequency computation by finite difference of analytic gradients.

         ----------------------------------------------------------
                                   FINDIF
                     R. A. King and Jonathon Misiewicz
         ---------------------------------------------------------

  Using finite-differences of gradients to determine vibrational frequencies and 
  normal modes.  Resulting frequencies are only valid at stationary points.
    Generating geometries for use with 3-point formula.
    Displacement size will be 5.00e-03.
    Number of atoms is 12.
    Number of irreps is 4.
    Number of SALCs is 30.
    Translations projected? 1. Rotations projected? 1.
    Index of SALCs per irrep:
     1 :  0  1  2  3  4  5  6  7  8  9  10 
     2 :  11  12  13  14 
     3 :  15  16  17  18  19 
     4 :  20  21  22  23  24  25  26  27  28  29 
    Number of SALCs per irrep:
     Irrep 1: 11
     Irrep 2: 4
     Irrep 3: 5
     Irrep 4: 10
    Number of geometries (including reference) is 42.
    Number of displacements per irrep:
      Irrep 1: 22
      Irrep 2: 4
      Irrep 3: 5
      Irrep 4: 10

  //>>>>>>>>>>>>>>>>>>>>>>>>>>>>>>>>>>>//
  //    Loading displacement 1 of 42   //
  //<<<<<<<<<<<<<<<<<<<<<<<<<<<<<<<<<<<//
gradient() will perform analytic gradient computation.

*** tstart() called on atlantis
*** at Wed Apr 20 02:03:26 2022

   => Loading Basis Set <=

    Name: 6-311++G**
    Role: ORBITAL
    Keyword: BASIS
    atoms 1-6  entry C          line   119 file /home/akrom/software/anaconda3/envs/ffpenv/share/psi4/basis/6-311ppgss.gbs 
    atoms 7-12 entry H          line    42 file /home/akrom/software/anaconda3/envs/ffpenv/share/psi4/basis/6-311ppgss.gbs 


         ---------------------------------------------------------
                                   SCF
               by Justin Turney, Rob Parrish, Andy Simmonett
                          and Daniel G. A. Smith
                              RKS Reference
                        1 Threads,    500 MiB Core
         ---------------------------------------------------------

  ==> Geometry <==

    Molecular point group: c2h
    Full point group: C2h

    Geometry (in Angstrom), charge = 0, multiplicity = 1:

       Center              X                  Y                   Z               Mass       
    ------------   -----------------  -----------------  -----------------  -----------------
         C           -1.221510000000    -0.693250000000     0.000000000000    12.000000000000
         C           -1.211140000000     0.711220000000     0.000000000000    12.000000000000
         C           -0.010370000000    -1.404520000000     0.000000000000    12.000000000000
         C            0.010370000000     1.404520000000     0.000000000000    12.000000000000
         C            1.211140000000    -0.711220000000     0.000000000000    12.000000000000
         C            1.221510000000     0.693250000000     0.000000000000    12.000000000000
         H           -2.173110000000    -1.233320000000     0.000000000000     1.007825032230
         H           -2.154640000000     1.265330000000     0.000000000000     1.007825032230
         H           -0.018480000000    -2.498650000000     0.000000000000     1.007825032230
         H            0.018480000000     2.498650000000     0.000000000000     1.007825032230
         H            2.154640000000    -1.265330000000     0.000000000000     1.007825032230
         H            2.173110000000     1.233320000000     0.000000000000     1.007825032230

  Running in c2h symmetry.

  Rotational constants: A =      0.18753  B =      0.18752  C =      0.09376 [cm^-1]
  Rotational constants: A =   5621.92707  B =   5621.82252  C =   2810.93740 [MHz]
  Nuclear repulsion =  202.013308935380167

  Charge       = 0
  Multiplicity = 1
  Electrons    = 42
  Nalpha       = 21
  Nbeta        = 21

  ==> Algorithm <==

  SCF Algorithm Type is DF.
  DIIS enabled.
  MOM disabled.
  Fractional occupation disabled.
  Guess Type is SAD.
  Energy threshold   = 1.00e-08
  Density threshold  = 1.00e-08
  Integral threshold = 0.00e+00

  ==> Primary Basis <==

  Basis Set: 6-311++G**
    Blend: 6-311++G**
    Number of shells: 90
    Number of basis function: 174
    Number of Cartesian functions: 180
    Spherical Harmonics?: true
    Max angular momentum: 2

  ==> DFT Potential <==

   => Composite Functional: M06-2X <= 

    Hybrid M06-2X Meta-GGA XC Functional

    Y. Zhao and D. G. Truhlar,  Theor. Chem. Acc., 120, 215, 2008


    Deriv               =              1
    GGA                 =           TRUE
    Meta                =           TRUE

    Exchange Hybrid     =           TRUE
    MP2 Hybrid          =          FALSE

   => Exchange Functionals <=

    1.0000   XC_HYB_MGGA_X_M06_2X

   => Exact (HF) Exchange <=

    0.5400               HF 

   => Correlation Functionals <=

    1.0000   XC_MGGA_C_M06_2X

   => Molecular Quadrature <=

    Radial Scheme          =       TREUTLER
    Pruning Scheme         =           FLAT
    Nuclear Scheme         =       TREUTLER

    BS radius alpha        =              1
    Pruning alpha          =              1
    Radial Points          =             75
    Spherical Points       =            302
    Total Points           =         271800
    Total Blocks           =           2142
    Max Points             =            256
    Max Functions          =            174

   => Loading Basis Set <=

    Name: (6-311++G** AUX)
    Role: JKFIT
    Keyword: DF_BASIS_SCF
    atoms 1-6  entry C          line   162 file /home/akrom/software/anaconda3/envs/ffpenv/share/psi4/basis/aug-cc-pvtz-jkfit.gbs 
    atoms 7-12 entry H          line    70 file /home/akrom/software/anaconda3/envs/ffpenv/share/psi4/basis/aug-cc-pvtz-jkfit.gbs 

  ==> Pre-Iterations <==

   -------------------------------------------------------
    Irrep   Nso     Nmo     Nalpha   Nbeta   Ndocc  Nsocc
   -------------------------------------------------------
     Ag        66      66       0       0       0       0
     Bg        21      21       0       0       0       0
     Au        21      21       0       0       0       0
     Bu        66      66       0       0       0       0
   -------------------------------------------------------
    Total     174     174      21      21      21       0
   -------------------------------------------------------

  ==> Integral Setup <==

  DFHelper Memory: AOs need 0.213 GiB; user supplied 0.213 GiB. Using in-core AOs.

  ==> MemDFJK: Density-Fitted J/K Matrices <==

    J tasked:                   Yes
    K tasked:                   Yes
    wK tasked:                   No
    OpenMP threads:               1
    Memory [MiB]:               217
    Algorithm:                 Core
    Schwarz Cutoff:           1E-12
    Mask sparsity (%):       1.2815
    Fitting Condition:        1E-10

   => Auxiliary Basis Set <=

  Basis Set: (6-311++G** AUX)
    Blend: AUG-CC-PVTZ-JKFIT
    Number of shells: 264
    Number of basis function: 900
    Number of Cartesian functions: 1116
    Spherical Harmonics?: true
    Max angular momentum: 4

  Cached 5.9% of DFT collocation blocks in 0.160 [GiB].

  Minimum eigenvalue in the overlap matrix is 1.1393482713E-06.
  Using Symmetric Orthogonalization.

  SCF Guess: Superposition of Atomic Densities via on-the-fly atomic UHF.

  ==> Iterations <==

                           Total Energy        Delta E     RMS |[F,P]|

   @DF-RKS iter SAD:  -231.61311339097387   -2.31613e+02   0.00000e+00 
   @DF-RKS iter   1:  -231.84934009733797   -2.36227e-01   8.17420e-03 DIIS
   @DF-RKS iter   2:  -231.90141074021349   -5.20706e-02   7.61447e-03 DIIS
   @DF-RKS iter   3:  -232.19581034952225   -2.94400e-01   5.19939e-04 DIIS
   @DF-RKS iter   4:  -232.19696664122836   -1.15629e-03   7.98259e-05 DIIS
   @DF-RKS iter   5:  -232.19700174620382   -3.51050e-05   8.37516e-06 DIIS
   @DF-RKS iter   6:  -232.19700221700157   -4.70798e-07   8.84950e-07 DIIS
   @DF-RKS iter   7:  -232.19700222450348   -7.50191e-09   1.00993e-07 DIIS
   @DF-RKS iter   8:  -232.19700222457948   -7.59997e-11   6.30705e-08 DIIS
   @DF-RKS iter   9:  -232.19700222459764   -1.81615e-11   7.24199e-09 DIIS
  Energy and wave function converged.


  ==> Post-Iterations <==

    Orbital Energies [Eh]
    ---------------------

    Doubly Occupied:                                                      

       1Ag   -10.550614     1Bu   -10.550284     2Bu   -10.550280  
       2Ag   -10.549534     3Ag   -10.549530     3Bu   -10.549168  
       4Ag    -0.956001     4Bu    -0.841401     5Bu    -0.841395  
       5Ag    -0.685372     6Ag    -0.685361     7Ag    -0.598262  
       6Bu    -0.535065     7Bu    -0.512247     8Bu    -0.488539  
       9Bu    -0.488527     1Au    -0.436576     8Ag    -0.404576  
       9Ag    -0.404566     1Bg    -0.307994     2Bg    -0.307986  

    Virtual:                                                              

      10Ag    -0.000356    10Bu     0.012867    11Bu     0.012869  
       2Au     0.015060     3Au     0.015067    11Ag     0.033232  
      12Ag     0.033234    12Bu     0.060815     4Au     0.072405  
      13Ag     0.091228     3Bg     0.097590     4Bg     0.097593  
      13Bu     0.103853    14Ag     0.127740    15Ag     0.127745  
      16Ag     0.131966    14Bu     0.135179    15Bu     0.135182  
       5Au     0.144134     6Au     0.144146     5Bg     0.147424  
      17Ag     0.160626    18Ag     0.160629    16Bu     0.163470  
      17Bu     0.163475    18Bu     0.166250    19Bu     0.195530  
      20Bu     0.195532     6Bg     0.224235    19Ag     0.228418  
      20Ag     0.228432    21Ag     0.243627    22Ag     0.255276  
      21Bu     0.276266    22Bu     0.302309    23Bu     0.302318  
      23Ag     0.315761    24Ag     0.315768    24Bu     0.339862  
      25Bu     0.383655    26Bu     0.383669    25Ag     0.383875  
      26Ag     0.383882    27Bu     0.480362    27Ag     0.493787  
       7Au     0.561544    28Bu     0.573591    29Bu     0.584810  
      30Bu     0.584830    28Ag     0.592085    29Ag     0.597170  
      30Ag     0.597191     7Bg     0.609354     8Bg     0.609359  
      31Ag     0.644266     8Au     0.655972     9Au     0.655978  
       9Bg     0.714608    32Ag     0.765371    33Ag     0.765393  
      31Bu     0.771376    32Bu     0.771387    34Ag     0.818479  
      33Bu     0.856786    34Bu     0.867626    35Bu     0.867669  
      36Bu     0.906607    35Ag     0.915260    36Ag     0.916190  
      37Ag     0.916201    37Bu     0.940427    38Bu     0.940457  
      10Au     0.993557    38Ag     1.047879    39Ag     1.047942  
      10Bg     1.061606    11Bg     1.130994    12Bg     1.131013  
      11Au     1.191034    12Au     1.191082    39Bu     1.343685  
      40Ag     1.345367    40Bu     1.494803    41Bu     1.548608  
      42Bu     1.548645    41Ag     1.551918    13Bg     1.607083  
      13Au     1.607441    14Au     1.607468    42Ag     1.673136  
      43Ag     1.673175    43Bu     1.692847    44Bu     1.692873  
      15Au     1.746062    14Bg     1.801694    15Bg     1.801739  
      44Ag     1.844229    45Ag     1.844304    45Bu     1.870771  
      16Bg     1.954350    17Bg     1.954352    46Bu     1.971719  
      47Bu     1.971749    46Ag     2.000225    48Bu     2.011413  
      47Ag     2.044032    48Ag     2.044060    16Au     2.096587  
      17Au     2.096617    18Bg     2.332257    18Au     2.350760  
      49Ag     2.418037    50Ag     2.422540    51Ag     2.422579  
      49Bu     2.485314    50Bu     2.485356    51Bu     2.617588  
      52Bu     2.617634    53Bu     2.667514    52Ag     2.703031  
      19Au     2.713094    54Bu     2.737502    55Bu     2.737527  
      53Ag     2.764627    54Ag     2.764672    56Bu     2.809856  
      19Bg     2.849085    20Bg     2.849097    55Ag     2.897221  
      20Au     2.948525    21Au     2.948527    56Ag     2.960360  
      57Ag     2.960479    21Bg     3.127597    57Bu     3.151285  
      58Ag     3.380033    59Ag     3.380079    58Bu     3.515139  
      59Bu     3.515170    60Ag     3.529937    60Bu     3.653919  
      61Ag     4.019866    62Ag     4.019905    61Bu     4.104785  
      62Bu     4.178829    63Bu     4.178869    63Ag     4.841333  
      64Ag    23.664171    64Bu    24.023151    65Bu    24.023233  
      65Ag    24.129857    66Ag    24.129949    66Bu    24.232621  

    Final Occupation by Irrep:
             Ag    Bg    Au    Bu 
    DOCC [     9,    2,    1,    9 ]

  @DF-RKS Final Energy:  -232.19700222459764

   => Energetics <=

    Nuclear Repulsion Energy =            202.0133089353801665
    One-Electron Energy =                -711.0779402484654383
    Two-Electron Energy =                 293.5940915765345949
    DFT Exchange-Correlation Energy =     -16.7264624880469732
    Empirical Dispersion Energy =           0.0000000000000000
    VV10 Nonlocal Energy =                  0.0000000000000000
    Total Energy =                       -232.1970022245976395

Computation Completed


Properties will be evaluated at   0.000000,   0.000000,   0.000000 [a0]

Properties computed using the SCF density matrix

  Nuclear Dipole Moment: [e a0]
     X:    -0.0000      Y:    -0.0000      Z:     0.0000

  Electronic Dipole Moment: [e a0]
     X:     0.0000      Y:     0.0000      Z:     0.0000

  Dipole Moment: [e a0]
     X:    -0.0000      Y:    -0.0000      Z:     0.0000     Total:     0.0000

  Dipole Moment: [D]
     X:    -0.0000      Y:    -0.0000      Z:     0.0000     Total:     0.0000


*** tstop() called on atlantis at Wed Apr 20 02:04:00 2022
Module time:
	user time   =      34.22 seconds =       0.57 minutes
	system time =       0.09 seconds =       0.00 minutes
	total time  =         34 seconds =       0.57 minutes
Total time:
	user time   =     102.36 seconds =       1.71 minutes
	system time =       0.45 seconds =       0.01 minutes
	total time  =        102 seconds =       1.70 minutes

*** tstart() called on atlantis
*** at Wed Apr 20 02:04:00 2022


         ------------------------------------------------------------
                                   SCF GRAD                          
                          Rob Parrish, Justin Turney,                
                       Andy Simmonett, and Alex Sokolov              
         ------------------------------------------------------------

  ==> Geometry <==

    Molecular point group: c2h
    Full point group: C2h

    Geometry (in Angstrom), charge = 0, multiplicity = 1:

       Center              X                  Y                   Z               Mass       
    ------------   -----------------  -----------------  -----------------  -----------------
         C           -1.221510000000    -0.693250000000     0.000000000000    12.000000000000
         C           -1.211140000000     0.711220000000     0.000000000000    12.000000000000
         C           -0.010370000000    -1.404520000000     0.000000000000    12.000000000000
         C            0.010370000000     1.404520000000     0.000000000000    12.000000000000
         C            1.211140000000    -0.711220000000     0.000000000000    12.000000000000
         C            1.221510000000     0.693250000000     0.000000000000    12.000000000000
         H           -2.173110000000    -1.233320000000     0.000000000000     1.007825032230
         H           -2.154640000000     1.265330000000     0.000000000000     1.007825032230
         H           -0.018480000000    -2.498650000000     0.000000000000     1.007825032230
         H            0.018480000000     2.498650000000     0.000000000000     1.007825032230
         H            2.154640000000    -1.265330000000     0.000000000000     1.007825032230
         H            2.173110000000     1.233320000000     0.000000000000     1.007825032230

  Nuclear repulsion =  202.013308935380167

  ==> Basis Set <==

  Basis Set: 6-311++G**
    Blend: 6-311++G**
    Number of shells: 90
    Number of basis function: 174
    Number of Cartesian functions: 180
    Spherical Harmonics?: true
    Max angular momentum: 2

  ==> DFJKGrad: Density-Fitted SCF Gradients <==

    Gradient:                    1
    J tasked:                  Yes
    K tasked:                  Yes
    wK tasked:                  No
    OpenMP threads:              1
    Integrals threads:           1
    Memory [MiB]:              375
    Schwarz Cutoff:          0E+00
    Fitting Condition:       1E-10

   => Auxiliary Basis Set <=

  Basis Set: (6-311++G** AUX)
    Blend: AUG-CC-PVTZ-JKFIT
    Number of shells: 264
    Number of basis function: 900
    Number of Cartesian functions: 1116
    Spherical Harmonics?: true
    Max angular momentum: 4

  ==> DFT Potential <==

   => Composite Functional: M06-2X <= 

    Hybrid M06-2X Meta-GGA XC Functional

    Y. Zhao and D. G. Truhlar,  Theor. Chem. Acc., 120, 215, 2008


    Deriv               =              1
    GGA                 =           TRUE
    Meta                =           TRUE

    Exchange Hybrid     =           TRUE
    MP2 Hybrid          =          FALSE

   => Exchange Functionals <=

    1.0000   XC_HYB_MGGA_X_M06_2X

   => Exact (HF) Exchange <=

    0.5400               HF 

   => Correlation Functionals <=

    1.0000   XC_MGGA_C_M06_2X

   => Molecular Quadrature <=

    Radial Scheme          =       TREUTLER
    Pruning Scheme         =           FLAT
    Nuclear Scheme         =       TREUTLER

    BS radius alpha        =              1
    Pruning alpha          =              1
    Radial Points          =             75
    Spherical Points       =            302
    Total Points           =         271800
    Total Blocks           =           2142
    Max Points             =            256
    Max Functions          =            174


  -Total Gradient:
     Atom            X                  Y                   Z
    ------   -----------------  -----------------  -----------------
       1       -0.004515706901    -0.002542075367     0.000000000000
       2       -0.004491990211     0.002640089220     0.000000000000
       3       -0.000029357171    -0.005239985421     0.000000000000
       4        0.000029357171     0.005239985421     0.000000000000
       5        0.004491990211    -0.002640089220     0.000000000000
       6        0.004515706901     0.002542075367     0.000000000000
       7       -0.006274959998    -0.003579535733     0.000000000000
       8       -0.006207851022     0.003705798137     0.000000000000
       9       -0.000046648693    -0.007210629523     0.000000000000
      10        0.000046648693     0.007210629523     0.000000000000
      11        0.006207851022    -0.003705798137     0.000000000000
      12        0.006274959998     0.003579535733     0.000000000000


*** tstop() called on atlantis at Wed Apr 20 02:04:09 2022
Module time:
	user time   =       8.69 seconds =       0.14 minutes
	system time =       0.09 seconds =       0.00 minutes
	total time  =          9 seconds =       0.15 minutes
Total time:
	user time   =     111.05 seconds =       1.85 minutes
	system time =       0.54 seconds =       0.01 minutes
	total time  =        111 seconds =       1.85 minutes

  //>>>>>>>>>>>>>>>>>>>>>>>>>>>>>>>>>>>//
  //    Loading displacement 2 of 42   //
  //<<<<<<<<<<<<<<<<<<<<<<<<<<<<<<<<<<<//
gradient() will perform analytic gradient computation.

*** tstart() called on atlantis
*** at Wed Apr 20 02:04:09 2022

   => Loading Basis Set <=

    Name: 6-311++G**
    Role: ORBITAL
    Keyword: BASIS
    atoms 1-6  entry C          line   119 file /home/akrom/software/anaconda3/envs/ffpenv/share/psi4/basis/6-311ppgss.gbs 
    atoms 7-12 entry H          line    42 file /home/akrom/software/anaconda3/envs/ffpenv/share/psi4/basis/6-311ppgss.gbs 


         ---------------------------------------------------------
                                   SCF
               by Justin Turney, Rob Parrish, Andy Simmonett
                          and Daniel G. A. Smith
                              RKS Reference
                        1 Threads,    500 MiB Core
         ---------------------------------------------------------

  ==> Geometry <==

    Molecular point group: c2h
    Full point group: C2h

    Geometry (in Angstrom), charge = 0, multiplicity = 1:

       Center              X                  Y                   Z               Mass       
    ------------   -----------------  -----------------  -----------------  -----------------
         C           -1.222032477591    -0.693313109608     0.000000000000    12.000000000000
         C           -1.211176745353     0.711157426160     0.000000000000    12.000000000000
         C           -0.010297435136    -1.404520535769     0.000000000000    12.000000000000
         C            0.010297435136     1.404520535769     0.000000000000    12.000000000000
         C            1.211176745353    -0.711157426160     0.000000000000    12.000000000000
         C            1.222032477591     0.693313109608     0.000000000000    12.000000000000
         H           -2.173046280225    -1.233432274252     0.000000000000     1.007825032230
         H           -2.154705373579     1.265218680005     0.000000000000     1.007825032230
         H           -0.018350906646    -2.498650954774     0.000000000000     1.007825032230
         H            0.018350906646     2.498650954774     0.000000000000     1.007825032230
         H            2.154705373579    -1.265218680005     0.000000000000     1.007825032230
         H            2.173046280225     1.233432274252     0.000000000000     1.007825032230

  Running in c2h symmetry.

  Rotational constants: A =      0.18753  B =      0.18745  C =      0.09375 [cm^-1]
  Rotational constants: A =   5621.97670  B =   5619.72613  C =   2810.42560 [MHz]
  Nuclear repulsion =  201.998047561272216

  Charge       = 0
  Multiplicity = 1
  Electrons    = 42
  Nalpha       = 21
  Nbeta        = 21

  ==> Algorithm <==

  SCF Algorithm Type is DF.
  DIIS enabled.
  MOM disabled.
  Fractional occupation disabled.
  Guess Type is SAD.
  Energy threshold   = 1.00e-08
  Density threshold  = 1.00e-08
  Integral threshold = 0.00e+00

  ==> Primary Basis <==

  Basis Set: 6-311++G**
    Blend: 6-311++G**
    Number of shells: 90
    Number of basis function: 174
    Number of Cartesian functions: 180
    Spherical Harmonics?: true
    Max angular momentum: 2

  ==> DFT Potential <==

   => Composite Functional: M06-2X <= 

    Hybrid M06-2X Meta-GGA XC Functional

    Y. Zhao and D. G. Truhlar,  Theor. Chem. Acc., 120, 215, 2008


    Deriv               =              1
    GGA                 =           TRUE
    Meta                =           TRUE

    Exchange Hybrid     =           TRUE
    MP2 Hybrid          =          FALSE

   => Exchange Functionals <=

    1.0000   XC_HYB_MGGA_X_M06_2X

   => Exact (HF) Exchange <=

    0.5400               HF 

   => Correlation Functionals <=

    1.0000   XC_MGGA_C_M06_2X

   => Molecular Quadrature <=

    Radial Scheme          =       TREUTLER
    Pruning Scheme         =           FLAT
    Nuclear Scheme         =       TREUTLER

    BS radius alpha        =              1
    Pruning alpha          =              1
    Radial Points          =             75
    Spherical Points       =            302
    Total Points           =         271800
    Total Blocks           =           2142
    Max Points             =            256
    Max Functions          =            174

   => Loading Basis Set <=

    Name: (6-311++G** AUX)
    Role: JKFIT
    Keyword: DF_BASIS_SCF
    atoms 1-6  entry C          line   162 file /home/akrom/software/anaconda3/envs/ffpenv/share/psi4/basis/aug-cc-pvtz-jkfit.gbs 
    atoms 7-12 entry H          line    70 file /home/akrom/software/anaconda3/envs/ffpenv/share/psi4/basis/aug-cc-pvtz-jkfit.gbs 

  ==> Pre-Iterations <==

   -------------------------------------------------------
    Irrep   Nso     Nmo     Nalpha   Nbeta   Ndocc  Nsocc
   -------------------------------------------------------
     Ag        66      66       0       0       0       0
     Bg        21      21       0       0       0       0
     Au        21      21       0       0       0       0
     Bu        66      66       0       0       0       0
   -------------------------------------------------------
    Total     174     174      21      21      21       0
   -------------------------------------------------------

  ==> Integral Setup <==

  DFHelper Memory: AOs need 0.213 GiB; user supplied 0.213 GiB. Using in-core AOs.

  ==> MemDFJK: Density-Fitted J/K Matrices <==

    J tasked:                   Yes
    K tasked:                   Yes
    wK tasked:                   No
    OpenMP threads:               1
    Memory [MiB]:               217
    Algorithm:                 Core
    Schwarz Cutoff:           1E-12
    Mask sparsity (%):       1.2815
    Fitting Condition:        1E-10

   => Auxiliary Basis Set <=

  Basis Set: (6-311++G** AUX)
    Blend: AUG-CC-PVTZ-JKFIT
    Number of shells: 264
    Number of basis function: 900
    Number of Cartesian functions: 1116
    Spherical Harmonics?: true
    Max angular momentum: 4

  Cached 5.9% of DFT collocation blocks in 0.154 [GiB].

  Minimum eigenvalue in the overlap matrix is 1.1407641741E-06.
  Using Symmetric Orthogonalization.

  SCF Guess: Superposition of Atomic Densities via on-the-fly atomic UHF.

  ==> Iterations <==

                           Total Energy        Delta E     RMS |[F,P]|

   @DF-RKS iter SAD:  -231.61224048878967   -2.31612e+02   0.00000e+00 
   @DF-RKS iter   1:  -231.84969992969187   -2.37459e-01   8.17106e-03 DIIS
   @DF-RKS iter   2:  -231.90199646708140   -5.22965e-02   7.60811e-03 DIIS
   @DF-RKS iter   3:  -232.19590944290124   -2.93913e-01   5.19870e-04 DIIS
   @DF-RKS iter   4:  -232.19706557414818   -1.15613e-03   7.97742e-05 DIIS
   @DF-RKS iter   5:  -232.19710063955591   -3.50654e-05   8.40199e-06 DIIS
   @DF-RKS iter   6:  -232.19710110883941   -4.69283e-07   1.25775e-06 DIIS
   @DF-RKS iter   7:  -232.19710111524685   -6.40745e-09   1.02300e-06 DIIS
   @DF-RKS iter   8:  -232.19710111996477   -4.71792e-09   9.04289e-08 DIIS
   @DF-RKS iter   9:  -232.19710112001377   -4.89990e-11   3.67171e-09 DIIS
  Energy and wave function converged.


  ==> Post-Iterations <==

    Orbital Energies [Eh]
    ---------------------

    Doubly Occupied:                                                      

       1Ag   -10.550632     1Bu   -10.550311     2Bu   -10.550289  
       2Ag   -10.549562     3Ag   -10.549539     3Bu   -10.549187  
       4Ag    -0.955918     4Bu    -0.841427     5Bu    -0.841315  
       5Ag    -0.685453     6Ag    -0.685295     7Ag    -0.598260  
       6Bu    -0.535160     7Bu    -0.512195     8Bu    -0.488625  
       9Bu    -0.488477     1Au    -0.436509     8Ag    -0.404739  
       9Ag    -0.404445     1Bg    -0.308018     2Bg    -0.307902  

    Virtual:                                                              

      10Ag    -0.000354    10Bu     0.012866    11Bu     0.012871  
       2Au     0.014976     3Au     0.015101    11Ag     0.033230  
      12Ag     0.033233    12Bu     0.060815     4Au     0.072377  
      13Ag     0.091209     3Bg     0.097595     4Bg     0.097602  
      13Bu     0.103854    14Ag     0.127730    15Ag     0.127747  
      16Ag     0.131993    14Bu     0.135183    15Bu     0.135189  
       5Au     0.144131     6Au     0.144147     5Bg     0.147402  
      17Ag     0.160620    18Ag     0.160629    16Bu     0.163479  
      17Bu     0.163491    18Bu     0.166251    19Bu     0.195519  
      20Bu     0.195532     6Bg     0.224179    19Ag     0.228420  
      20Ag     0.228429    21Ag     0.243639    22Ag     0.255273  
      21Bu     0.276270    22Bu     0.302244    23Bu     0.302420  
      23Ag     0.315678    24Ag     0.315771    24Bu     0.339879  
      25Bu     0.383527    26Bu     0.383654    25Ag     0.383840  
      26Ag     0.383926    27Bu     0.480386    27Ag     0.493783  
       7Au     0.561631    28Bu     0.573478    29Bu     0.584796  
      30Bu     0.584871    28Ag     0.591937    29Ag     0.597115  
      30Ag     0.597228     7Bg     0.609363     8Bg     0.609396  
      31Ag     0.644396     8Au     0.655955     9Au     0.656004  
       9Bg     0.714593    32Ag     0.765313    33Ag     0.765449  
      31Bu     0.771257    32Bu     0.771505    34Ag     0.818579  
      33Bu     0.856775    34Bu     0.867524    35Bu     0.867600  
      36Bu     0.906544    35Ag     0.915166    36Ag     0.916188  
      37Ag     0.916223    37Bu     0.940321    38Bu     0.940490  
      10Au     0.993617    38Ag     1.047914    39Ag     1.047990  
      10Bg     1.061582    11Bg     1.130894    12Bg     1.131074  
      11Au     1.190955    12Au     1.191066    39Bu     1.343692  
      40Ag     1.345528    40Bu     1.494750    41Bu     1.548431  
      42Bu     1.548580    41Ag     1.551937    13Bg     1.607077  
      13Au     1.607352    14Au     1.607535    42Ag     1.673020  
      43Ag     1.673192    43Bu     1.692694    44Bu     1.692861  
      15Au     1.746233    14Bg     1.801776    15Bg     1.801951  
      44Ag     1.844018    45Ag     1.844425    45Bu     1.870886  
      16Bg     1.953971    17Bg     1.954488    46Bu     1.971554  
      47Bu     1.971720    46Ag     2.000255    48Bu     2.011456  
      47Ag     2.043858    48Ag     2.044114    16Au     2.096512  
      17Au     2.096856    18Bg     2.332279    18Au     2.350536  
      49Ag     2.418455    50Ag     2.422343    51Ag     2.422584  
      49Bu     2.485263    50Bu     2.485917    51Bu     2.617395  
      52Bu     2.617730    53Bu     2.667332    52Ag     2.703155  
      19Au     2.713091    54Bu     2.737519    55Bu     2.737664  
      53Ag     2.764638    54Ag     2.764794    56Bu     2.809902  
      19Bg     2.849045    20Bg     2.849149    55Ag     2.897192  
      20Au     2.948466    21Au     2.948557    56Ag     2.960412  
      57Ag     2.960877    21Bg     3.127481    57Bu     3.150949  
      58Ag     3.379476    59Ag     3.380140    58Bu     3.514934  
      59Bu     3.515280    60Ag     3.529966    60Bu     3.654118  
      61Ag     4.019861    62Ag     4.020628    61Bu     4.104983  
      62Bu     4.178778    63Bu     4.179346    63Ag     4.841067  
      64Ag    23.664536    64Bu    24.022483    65Bu    24.023591  
      65Ag    24.128941    66Ag    24.130021    66Bu    24.232140  

    Final Occupation by Irrep:
             Ag    Bg    Au    Bu 
    DOCC [     9,    2,    1,    9 ]

  @DF-RKS Final Energy:  -232.19710112001377

   => Energetics <=

    Nuclear Repulsion Energy =            201.9980475612722159
    One-Electron Energy =                -711.0476524470068398
    Two-Electron Energy =                 293.5789672505297858
    DFT Exchange-Correlation Energy =     -16.7264634848088960
    Empirical Dispersion Energy =           0.0000000000000000
    VV10 Nonlocal Energy =                  0.0000000000000000
    Total Energy =                       -232.1971011200137696

Computation Completed


Properties will be evaluated at   0.000000,   0.000000,   0.000000 [a0]

Properties computed using the SCF density matrix

  Nuclear Dipole Moment: [e a0]
     X:     0.0000      Y:     0.0000      Z:     0.0000

  Electronic Dipole Moment: [e a0]
     X:     0.0000      Y:     0.0000      Z:     0.0000

  Dipole Moment: [e a0]
     X:     0.0000      Y:     0.0000      Z:     0.0000     Total:     0.0000

  Dipole Moment: [D]
     X:     0.0000      Y:     0.0000      Z:     0.0000     Total:     0.0000


*** tstop() called on atlantis at Wed Apr 20 02:04:44 2022
Module time:
	user time   =      34.32 seconds =       0.57 minutes
	system time =       0.10 seconds =       0.00 minutes
	total time  =         35 seconds =       0.58 minutes
Total time:
	user time   =     145.37 seconds =       2.42 minutes
	system time =       0.64 seconds =       0.01 minutes
	total time  =        146 seconds =       2.43 minutes

*** tstart() called on atlantis
*** at Wed Apr 20 02:04:44 2022


         ------------------------------------------------------------
                                   SCF GRAD                          
                          Rob Parrish, Justin Turney,                
                       Andy Simmonett, and Alex Sokolov              
         ------------------------------------------------------------

  ==> Geometry <==

    Molecular point group: c2h
    Full point group: C2h

    Geometry (in Angstrom), charge = 0, multiplicity = 1:

       Center              X                  Y                   Z               Mass       
    ------------   -----------------  -----------------  -----------------  -----------------
         C           -1.222032477591    -0.693313109608     0.000000000000    12.000000000000
         C           -1.211176745353     0.711157426160     0.000000000000    12.000000000000
         C           -0.010297435136    -1.404520535769     0.000000000000    12.000000000000
         C            0.010297435136     1.404520535769     0.000000000000    12.000000000000
         C            1.211176745353    -0.711157426160     0.000000000000    12.000000000000
         C            1.222032477591     0.693313109608     0.000000000000    12.000000000000
         H           -2.173046280225    -1.233432274252     0.000000000000     1.007825032230
         H           -2.154705373579     1.265218680005     0.000000000000     1.007825032230
         H           -0.018350906646    -2.498650954774     0.000000000000     1.007825032230
         H            0.018350906646     2.498650954774     0.000000000000     1.007825032230
         H            2.154705373579    -1.265218680005     0.000000000000     1.007825032230
         H            2.173046280225     1.233432274252     0.000000000000     1.007825032230

  Nuclear repulsion =  201.998047561272216

  ==> Basis Set <==

  Basis Set: 6-311++G**
    Blend: 6-311++G**
    Number of shells: 90
    Number of basis function: 174
    Number of Cartesian functions: 180
    Spherical Harmonics?: true
    Max angular momentum: 2

  ==> DFJKGrad: Density-Fitted SCF Gradients <==

    Gradient:                    1
    J tasked:                  Yes
    K tasked:                  Yes
    wK tasked:                  No
    OpenMP threads:              1
    Integrals threads:           1
    Memory [MiB]:              375
    Schwarz Cutoff:          0E+00
    Fitting Condition:       1E-10

   => Auxiliary Basis Set <=

  Basis Set: (6-311++G** AUX)
    Blend: AUG-CC-PVTZ-JKFIT
    Number of shells: 264
    Number of basis function: 900
    Number of Cartesian functions: 1116
    Spherical Harmonics?: true
    Max angular momentum: 4

  ==> DFT Potential <==

   => Composite Functional: M06-2X <= 

    Hybrid M06-2X Meta-GGA XC Functional

    Y. Zhao and D. G. Truhlar,  Theor. Chem. Acc., 120, 215, 2008


    Deriv               =              1
    GGA                 =           TRUE
    Meta                =           TRUE

    Exchange Hybrid     =           TRUE
    MP2 Hybrid          =          FALSE

   => Exchange Functionals <=

    1.0000   XC_HYB_MGGA_X_M06_2X

   => Exact (HF) Exchange <=

    0.5400               HF 

   => Correlation Functionals <=

    1.0000   XC_MGGA_C_M06_2X

   => Molecular Quadrature <=

    Radial Scheme          =       TREUTLER
    Pruning Scheme         =           FLAT
    Nuclear Scheme         =       TREUTLER

    BS radius alpha        =              1
    Pruning alpha          =              1
    Radial Points          =             75
    Spherical Points       =            302
    Total Points           =         271800
    Total Blocks           =           2142
    Max Points             =            256
    Max Functions          =            174


  -Total Gradient:
     Atom            X                  Y                   Z
    ------   -----------------  -----------------  -----------------
       1       -0.005309002227    -0.002606687949     0.000000000000
       2       -0.004474287242     0.002649640609     0.000000000000
       3        0.000238902463    -0.005436426743     0.000000000000
       4       -0.000238902463     0.005436426743     0.000000000000
       5        0.004474287242    -0.002649640609     0.000000000000
       6        0.005309002227     0.002606687949     0.000000000000
       7       -0.006022712227    -0.003451335991     0.000000000000
       8       -0.006254328638     0.003639095567     0.000000000000
       9       -0.000070690054    -0.007232362174     0.000000000000
      10        0.000070690054     0.007232362174     0.000000000000
      11        0.006254328638    -0.003639095567     0.000000000000
      12        0.006022712227     0.003451335991     0.000000000000


*** tstop() called on atlantis at Wed Apr 20 02:04:52 2022
Module time:
	user time   =       8.67 seconds =       0.14 minutes
	system time =       0.11 seconds =       0.00 minutes
	total time  =          8 seconds =       0.13 minutes
Total time:
	user time   =     154.04 seconds =       2.57 minutes
	system time =       0.75 seconds =       0.01 minutes
	total time  =        154 seconds =       2.57 minutes

  //>>>>>>>>>>>>>>>>>>>>>>>>>>>>>>>>>>>//
  //    Loading displacement 3 of 42   //
  //<<<<<<<<<<<<<<<<<<<<<<<<<<<<<<<<<<<//
gradient() will perform analytic gradient computation.

*** tstart() called on atlantis
*** at Wed Apr 20 02:04:52 2022

   => Loading Basis Set <=

    Name: 6-311++G**
    Role: ORBITAL
    Keyword: BASIS
    atoms 1-6  entry C          line   119 file /home/akrom/software/anaconda3/envs/ffpenv/share/psi4/basis/6-311ppgss.gbs 
    atoms 7-12 entry H          line    42 file /home/akrom/software/anaconda3/envs/ffpenv/share/psi4/basis/6-311ppgss.gbs 


         ---------------------------------------------------------
                                   SCF
               by Justin Turney, Rob Parrish, Andy Simmonett
                          and Daniel G. A. Smith
                              RKS Reference
                        1 Threads,    500 MiB Core
         ---------------------------------------------------------

  ==> Geometry <==

    Molecular point group: c2h
    Full point group: C2h

    Geometry (in Angstrom), charge = 0, multiplicity = 1:

       Center              X                  Y                   Z               Mass       
    ------------   -----------------  -----------------  -----------------  -----------------
         C           -1.220987522409    -0.693186890392     0.000000000000    12.000000000000
         C           -1.211103254647     0.711282573840     0.000000000000    12.000000000000
         C           -0.010442564864    -1.404519464231     0.000000000000    12.000000000000
         C            0.010442564864     1.404519464231     0.000000000000    12.000000000000
         C            1.211103254647    -0.711282573840     0.000000000000    12.000000000000
         C            1.220987522409     0.693186890392     0.000000000000    12.000000000000
         H           -2.173173719775    -1.233207725748     0.000000000000     1.007825032230
         H           -2.154574626421     1.265441319995     0.000000000000     1.007825032230
         H           -0.018609093354    -2.498649045226     0.000000000000     1.007825032230
         H            0.018609093354     2.498649045226     0.000000000000     1.007825032230
         H            2.154574626421    -1.265441319995     0.000000000000     1.007825032230
         H            2.173173719775     1.233207725748     0.000000000000     1.007825032230

  Running in c2h symmetry.

  Rotational constants: A =      0.18760  B =      0.18752  C =      0.09378 [cm^-1]
  Rotational constants: A =   5624.12726  B =   5621.66993  C =   2811.44916 [MHz]
  Nuclear repulsion =  202.028576396706484

  Charge       = 0
  Multiplicity = 1
  Electrons    = 42
  Nalpha       = 21
  Nbeta        = 21

  ==> Algorithm <==

  SCF Algorithm Type is DF.
  DIIS enabled.
  MOM disabled.
  Fractional occupation disabled.
  Guess Type is SAD.
  Energy threshold   = 1.00e-08
  Density threshold  = 1.00e-08
  Integral threshold = 0.00e+00

  ==> Primary Basis <==

  Basis Set: 6-311++G**
    Blend: 6-311++G**
    Number of shells: 90
    Number of basis function: 174
    Number of Cartesian functions: 180
    Spherical Harmonics?: true
    Max angular momentum: 2

  ==> DFT Potential <==

   => Composite Functional: M06-2X <= 

    Hybrid M06-2X Meta-GGA XC Functional

    Y. Zhao and D. G. Truhlar,  Theor. Chem. Acc., 120, 215, 2008


    Deriv               =              1
    GGA                 =           TRUE
    Meta                =           TRUE

    Exchange Hybrid     =           TRUE
    MP2 Hybrid          =          FALSE

   => Exchange Functionals <=

    1.0000   XC_HYB_MGGA_X_M06_2X

   => Exact (HF) Exchange <=

    0.5400               HF 

   => Correlation Functionals <=

    1.0000   XC_MGGA_C_M06_2X

   => Molecular Quadrature <=

    Radial Scheme          =       TREUTLER
    Pruning Scheme         =           FLAT
    Nuclear Scheme         =       TREUTLER

    BS radius alpha        =              1
    Pruning alpha          =              1
    Radial Points          =             75
    Spherical Points       =            302
    Total Points           =         271800
    Total Blocks           =           2140
    Max Points             =            256
    Max Functions          =            174

   => Loading Basis Set <=

    Name: (6-311++G** AUX)
    Role: JKFIT
    Keyword: DF_BASIS_SCF
    atoms 1-6  entry C          line   162 file /home/akrom/software/anaconda3/envs/ffpenv/share/psi4/basis/aug-cc-pvtz-jkfit.gbs 
    atoms 7-12 entry H          line    70 file /home/akrom/software/anaconda3/envs/ffpenv/share/psi4/basis/aug-cc-pvtz-jkfit.gbs 

  ==> Pre-Iterations <==

   -------------------------------------------------------
    Irrep   Nso     Nmo     Nalpha   Nbeta   Ndocc  Nsocc
   -------------------------------------------------------
     Ag        66      66       0       0       0       0
     Bg        21      21       0       0       0       0
     Au        21      21       0       0       0       0
     Bu        66      66       0       0       0       0
   -------------------------------------------------------
    Total     174     174      21      21      21       0
   -------------------------------------------------------

  ==> Integral Setup <==

  DFHelper Memory: AOs need 0.213 GiB; user supplied 0.213 GiB. Using in-core AOs.

  ==> MemDFJK: Density-Fitted J/K Matrices <==

    J tasked:                   Yes
    K tasked:                   Yes
    wK tasked:                   No
    OpenMP threads:               1
    Memory [MiB]:               217
    Algorithm:                 Core
    Schwarz Cutoff:           1E-12
    Mask sparsity (%):       1.2683
    Fitting Condition:        1E-10

   => Auxiliary Basis Set <=

  Basis Set: (6-311++G** AUX)
    Blend: AUG-CC-PVTZ-JKFIT
    Number of shells: 264
    Number of basis function: 900
    Number of Cartesian functions: 1116
    Spherical Harmonics?: true
    Max angular momentum: 4

  Cached 5.9% of DFT collocation blocks in 0.162 [GiB].

  Minimum eigenvalue in the overlap matrix is 1.1379379023E-06.
  Using Symmetric Orthogonalization.

  SCF Guess: Superposition of Atomic Densities via on-the-fly atomic UHF.

  ==> Iterations <==

                           Total Energy        Delta E     RMS |[F,P]|

   @DF-RKS iter SAD:  -231.61422120491741   -2.31614e+02   0.00000e+00 
   @DF-RKS iter   1:  -231.84919726700122   -2.34976e-01   8.17746e-03 DIIS
   @DF-RKS iter   2:  -231.90114998744144   -5.19527e-02   7.61937e-03 DIIS
   @DF-RKS iter   3:  -232.19593074929691   -2.94781e-01   5.20139e-04 DIIS
   @DF-RKS iter   4:  -232.19708796089060   -1.15721e-03   7.98774e-05 DIIS
   @DF-RKS iter   5:  -232.19712309713864   -3.51362e-05   8.42690e-06 DIIS
   @DF-RKS iter   6:  -232.19712356759510   -4.70456e-07   1.33448e-06 DIIS
   @DF-RKS iter   7:  -232.19712357409978   -6.50468e-09   1.10632e-06 DIIS
   @DF-RKS iter   8:  -232.19712357962663   -5.52686e-09   8.49301e-08 DIIS
   @DF-RKS iter   9:  -232.19712357967146   -4.48210e-11   3.67911e-09 DIIS
  Energy and wave function converged.


  ==> Post-Iterations <==

    Orbital Energies [Eh]
    ---------------------

    Doubly Occupied:                                                      

       1Ag   -10.550583     1Bu   -10.550262     2Bu   -10.550238  
       2Ag   -10.549512     3Ag   -10.549486     3Bu   -10.549135  
       4Ag    -0.956082     4Bu    -0.841484     5Bu    -0.841370  
       5Ag    -0.685424     6Ag    -0.685287     7Ag    -0.598268  
       6Bu    -0.534972     7Bu    -0.512299     8Bu    -0.488603  
       9Bu    -0.488447     1Au    -0.436629     8Ag    -0.404675  
       9Ag    -0.404407     1Bg    -0.308064     2Bg    -0.307959  

    Virtual:                                                              

      10Ag    -0.000364    10Bu     0.012864    11Bu     0.012869  
       2Au     0.015033     3Au     0.015175    11Ag     0.033234  
      12Ag     0.033236    12Bu     0.060815     4Au     0.072358  
      13Ag     0.091180     3Bg     0.097581     4Bg     0.097597  
      13Bu     0.103852    14Ag     0.127740    15Ag     0.127755  
      16Ag     0.131942    14Bu     0.135169    15Bu     0.135179  
       5Au     0.144129     6Au     0.144169     5Bg     0.147451  
      17Ag     0.160624    18Ag     0.160634    16Bu     0.163470  
      17Bu     0.163481    18Bu     0.166252    19Bu     0.195526  
      20Bu     0.195543     6Bg     0.224305    19Ag     0.228413  
      20Ag     0.228444    21Ag     0.243600    22Ag     0.255279  
      21Bu     0.276285    22Bu     0.302220    23Bu     0.302359  
      23Ag     0.315778    24Ag     0.315868    24Bu     0.339857  
      25Bu     0.383646    26Bu     0.383810    25Ag     0.383842  
      26Ag     0.383938    27Bu     0.480337    27Ag     0.493804  
       7Au     0.561598    28Bu     0.573731    29Bu     0.584751  
      30Bu     0.584804    28Ag     0.592207    29Ag     0.597136  
      30Ag     0.597274     7Bg     0.609286     8Bg     0.609361  
      31Ag     0.644404     8Au     0.655971     9Au     0.655997  
       9Bg     0.714633    32Ag     0.765340    33Ag     0.765524  
      31Bu     0.771310    32Bu     0.771522    34Ag     0.818463  
      33Bu     0.856859    34Bu     0.867517    35Bu     0.867613  
      36Bu     0.906664    35Ag     0.915410    36Ag     0.916179  
      37Ag     0.916224    37Bu     0.940361    38Bu     0.940455  
      10Au     0.993518    38Ag     1.047895    39Ag     1.047904  
      10Bg     1.061667    11Bg     1.130924    12Bg     1.131191  
      11Au     1.191034    12Au     1.191272    39Bu     1.343711  
      40Ag     1.345209    40Bu     1.494907    41Bu     1.548579  
      42Bu     1.548732    41Ag     1.552152    13Bg     1.607161  
      13Au     1.607445    14Au     1.607621    42Ag     1.673168  
[...]
      5   C               -0.32  0.14  0.00    0.00 -0.00  0.20   -0.00  0.00 -0.03   
      6   C                0.01  0.17 -0.00   -0.00 -0.00 -0.20    0.00  0.00 -0.04   
      7   H               -0.20  0.15  0.00    0.00 -0.00  0.36   -0.00 -0.00  0.41   
      8   H                0.27 -0.21  0.00   -0.00 -0.00 -0.35   -0.00 -0.00  0.41   
      9   H                0.21 -0.24  0.00   -0.00  0.00 -0.36    0.00  0.00  0.41   
     10   H               -0.21  0.24 -0.00    0.00  0.00  0.36    0.00  0.00  0.41   
     11   H               -0.27  0.21  0.00    0.00  0.00  0.35   -0.00  0.00  0.41   
     12   H                0.20 -0.15 -0.00   -0.00 -0.00 -0.36    0.00 -0.00  0.41   

  Vibration                       13                  14                  15          
  Freq [cm^-1]                 915.8962            917.7248            994.9214       
  Irrep                           Bg                  Bg                  Ag          
  Reduced mass [u]              1.2479              1.2479              4.5590        
  Force const [mDyne/A]         0.6168              0.6192              2.6589        
  Turning point v=0 [a0]        0.3246              0.3242              0.1629        
  RMS dev v=0 [a0 u^1/2]        0.2564              0.2561              0.2460        
  Char temp [K]               1317.7707           1320.4017           1431.4703       
  ----------------------------------------------------------------------------------
      1   C                0.00  0.00 -0.08    0.00  0.00 -0.02    0.19  0.14  0.00   
      2   C                0.00  0.00 -0.02    0.00  0.00 -0.08    0.19 -0.12 -0.00   
      3   C                0.00  0.00 -0.06    0.00 -0.00  0.06    0.03  0.24  0.00   
      4   C                0.00 -0.00  0.06    0.00 -0.00 -0.06   -0.03 -0.24 -0.00   
      5   C               -0.00 -0.00  0.02   -0.00 -0.00  0.08   -0.19  0.12 -0.00   
      6   C               -0.00  0.00  0.08   -0.00  0.00  0.02   -0.19 -0.14 -0.00   
      7   H                0.00 -0.00  0.56    0.00 -0.00  0.13    0.07  0.40 -0.00   
      8   H                0.00  0.00  0.16    0.00  0.00  0.55    0.19 -0.16  0.00   
      9   H                0.00  0.00  0.39    0.00  0.00 -0.42    0.22  0.25 -0.00   
     10   H                0.00 -0.00 -0.39    0.00 -0.00  0.42   -0.22 -0.25 -0.00   
     11   H               -0.00 -0.00 -0.16   -0.00 -0.00 -0.55   -0.19  0.16  0.00   
     12   H               -0.00  0.00 -0.56   -0.00  0.00 -0.13   -0.07 -0.40  0.00   

  Vibration                       16                  17                  18          
  Freq [cm^-1]                1011.0510           1030.2769           1031.7469       
  Irrep                           Bu                  Au                  Au          
  Reduced mass [u]              6.5155              1.3498              1.3465        
  Force const [mDyne/A]         3.9241              0.8442              0.8445        
  Turning point v=0 [a0]        0.1352              0.2942              0.2944        
  RMS dev v=0 [a0 u^1/2]        0.2440              0.2417              0.2416        
  Char temp [K]               1454.6773           1482.3390           1484.4540       
  ----------------------------------------------------------------------------------
      1   C               -0.25 -0.14 -0.00    0.00  0.00 -0.10    0.00 -0.00  0.02   
      2   C                0.25 -0.15 -0.00    0.00  0.00  0.03   -0.00  0.00 -0.10   
      3   C                0.00  0.29  0.00    0.00 -0.00  0.07    0.00 -0.00  0.07   
      4   C                0.00  0.29  0.00    0.00 -0.00  0.07    0.00 -0.00  0.07   
      5   C                0.25 -0.15 -0.00   -0.00  0.00  0.03   -0.00  0.00 -0.10   
      6   C               -0.25 -0.14 -0.00   -0.00  0.00 -0.10   -0.00  0.00  0.02   
      7   H               -0.25 -0.14  0.00    0.00 -0.00  0.55    0.00 -0.00 -0.13   
      8   H                0.25 -0.14  0.00    0.00  0.00 -0.16    0.00  0.00  0.55   
      9   H                0.00  0.29 -0.00    0.00 -0.00 -0.40    0.00 -0.00 -0.41   
     10   H                0.00  0.29 -0.00    0.00 -0.00 -0.40    0.00 -0.00 -0.41   
     11   H                0.25 -0.14  0.00    0.00  0.00 -0.16   -0.00  0.00  0.55   
     12   H               -0.25 -0.14 -0.00   -0.00  0.00  0.55   -0.00  0.00 -0.13   

  Vibration                       19                  20                  21          
  Freq [cm^-1]                1058.5372           1058.6211           1058.8324       
  Irrep                           Bu                  Bu                  Bg          
  Reduced mass [u]              1.7819              1.7781              1.2547        
  Force const [mDyne/A]         1.1763              1.1741              0.8288        
  Turning point v=0 [a0]        0.2527              0.2529              0.3010        
  RMS dev v=0 [a0 u^1/2]        0.2385              0.2385              0.2384        
  Char temp [K]               1522.9993           1523.1201           1523.4241       
  ----------------------------------------------------------------------------------
      1   C               -0.02 -0.10  0.00   -0.11 -0.01 -0.00    0.00 -0.00 -0.06   
      2   C               -0.11  0.06 -0.00    0.05  0.08  0.00   -0.00  0.00  0.06   
      3   C                0.08  0.06 -0.00    0.04 -0.11  0.00    0.00  0.00  0.06   
      4   C                0.08  0.06  0.00    0.04 -0.11 -0.00    0.00  0.00 -0.06   
      5   C               -0.11  0.06  0.00    0.05  0.08 -0.00   -0.00  0.00 -0.06   
      6   C               -0.02 -0.10 -0.00   -0.11 -0.01  0.00    0.00 -0.00  0.06   
      7   H                0.17 -0.44 -0.00   -0.23  0.18  0.00    0.00 -0.00  0.40   
      8   H               -0.11  0.07  0.00    0.28  0.47 -0.00   -0.00  0.00 -0.41   
      9   H                0.47  0.06  0.00    0.26 -0.12 -0.00    0.00  0.00 -0.40   
     10   H                0.47  0.06 -0.00    0.26 -0.12  0.00    0.00  0.00  0.40   
     11   H               -0.11  0.07 -0.00    0.28  0.47  0.00   -0.00  0.00  0.41   
     12   H                0.17 -0.44  0.00   -0.23  0.18 -0.00    0.00 -0.00 -0.40   

  Vibration                       22                  23                  24          
  Freq [cm^-1]                1106.8548           1153.6946           1222.4035       
  Irrep                           Ag                  Bu                  Ag          
  Reduced mass [u]              1.2904              1.5309              1.1556        
  Force const [mDyne/A]         0.9314              1.2005              1.0174        
  Turning point v=0 [a0]        0.2903              0.2611              0.2919        
  RMS dev v=0 [a0 u^1/2]        0.2332              0.2284              0.2219        
  Char temp [K]               1592.5176           1659.9096           1758.7664       
  ----------------------------------------------------------------------------------
      1   C               -0.07  0.05 -0.00   -0.05  0.08  0.00   -0.00 -0.01  0.00   
      2   C               -0.05 -0.01 -0.00   -0.04 -0.08  0.00    0.02  0.04 -0.00   
      3   C                0.05 -0.03  0.00    0.09 -0.00 -0.00    0.07 -0.01 -0.00   
      4   C               -0.05  0.03  0.00    0.09 -0.00 -0.00   -0.07  0.01  0.00   
      5   C                0.05  0.01  0.00   -0.04 -0.08 -0.00   -0.02 -0.04 -0.00   
      6   C                0.07 -0.05  0.00   -0.05  0.08 -0.00    0.00  0.01 -0.00   
      7   H               -0.32  0.49  0.00   -0.20  0.35 -0.00    0.00 -0.03 -0.00   
      8   H               -0.13 -0.15  0.00   -0.20 -0.34 -0.00    0.30  0.53 -0.00   
      9   H                0.33 -0.04 -0.00    0.40 -0.00  0.00    0.35 -0.01 -0.00   
     10   H               -0.33  0.04 -0.00    0.40 -0.00  0.00   -0.35  0.01  0.00   
     11   H                0.13  0.15 -0.00   -0.20 -0.34  0.00   -0.30 -0.53  0.00   
     12   H                0.32 -0.49 -0.00   -0.20  0.35  0.00   -0.00  0.03  0.00   

  Vibration                       25                  26                  27          
  Freq [cm^-1]                1284.0550           1393.2805           1507.6786       
  Irrep                           Bu                  Ag                  Bu          
  Reduced mass [u]              2.3676              1.2482              1.9113        
  Force const [mDyne/A]         2.3000              1.4277              2.5597        
  Turning point v=0 [a0]        0.1990              0.2631              0.2044        
  RMS dev v=0 [a0 u^1/2]        0.2165              0.2079              0.1998        
  Char temp [K]               1847.4693           2004.6204           2169.2138       
  ----------------------------------------------------------------------------------
      1   C               -0.07  0.12 -0.00   -0.03  0.06  0.00    0.02  0.11  0.00   
      2   C               -0.07 -0.12 -0.00    0.04  0.06  0.00    0.04 -0.09 -0.00   
      3   C                0.14 -0.00  0.00   -0.04 -0.00 -0.00   -0.14 -0.01 -0.00   
      4   C                0.14 -0.00 -0.00    0.04  0.00 -0.00   -0.14 -0.01  0.00   
      5   C               -0.07 -0.12  0.00   -0.04 -0.06 -0.00    0.04 -0.09 -0.00   
      6   C               -0.07  0.12  0.00    0.03 -0.06 -0.00    0.02  0.11  0.00   
      7   H                0.19 -0.33  0.00    0.20 -0.34 -0.00    0.24 -0.24  0.00   
      8   H                0.19  0.33  0.00   -0.15 -0.25 -0.00    0.20  0.14  0.00   
      9   H               -0.38  0.00 -0.00    0.50 -0.01  0.00    0.54 -0.02  0.00   
     10   H               -0.38  0.00 -0.00   -0.50  0.01  0.00    0.54 -0.02 -0.00   
     11   H                0.19  0.33 -0.00    0.15  0.25  0.00    0.20  0.14 -0.00   
     12   H                0.19 -0.33 -0.00   -0.20  0.34  0.00    0.24 -0.24 -0.00   

  Vibration                       28                  29                  30          
  Freq [cm^-1]                1507.8212           1615.3221           1643.6567       
  Irrep                           Bu                  Ag                  Ag          
  Reduced mass [u]              1.9131              5.0291              4.1972        
  Force const [mDyne/A]         2.5627              7.7314              6.6808        
  Turning point v=0 [a0]        0.2043              0.1217              0.1321        
  RMS dev v=0 [a0 u^1/2]        0.1998              0.1930              0.1914        
  Char temp [K]               2169.4190           2324.0888           2364.8560       
  ----------------------------------------------------------------------------------
      1   C                0.10 -0.07 -0.00   -0.05 -0.18 -0.00   -0.17  0.19  0.00   
      2   C               -0.10 -0.09 -0.00    0.17  0.27  0.00    0.10 -0.10 -0.00   
      3   C               -0.02  0.09  0.00    0.19  0.12 -0.00    0.23 -0.07  0.00   
      4   C               -0.02  0.09 -0.00   -0.19 -0.12 -0.00   -0.23  0.07  0.00   
      5   C               -0.10 -0.09 -0.00   -0.17 -0.27  0.00   -0.10  0.10 -0.00   
      6   C                0.10 -0.07 -0.00    0.05  0.18 -0.00    0.17 -0.19 -0.00   
      7   H               -0.16  0.41 -0.00   -0.24  0.12 -0.00    0.13 -0.36 -0.00   
      8   H                0.21  0.45 -0.00   -0.21 -0.38 -0.00    0.14 -0.07  0.00   
      9   H                0.06  0.11 -0.00   -0.20  0.14  0.00   -0.42 -0.08 -0.00   
     10   H                0.06  0.11  0.00    0.20 -0.14  0.00    0.42  0.08 -0.00   
     11   H                0.21  0.45  0.00    0.21  0.38  0.00   -0.14  0.07  0.00   
     12   H               -0.16  0.41  0.00    0.24 -0.12  0.00   -0.13  0.36  0.00   

  Vibration                       31                  32                  33          
  Freq [cm^-1]                3102.3674           3111.9925           3112.2822       
  Irrep                           Bu                  Ag                  Ag          
  Reduced mass [u]              1.0845              1.0889              1.0881        
  Force const [mDyne/A]         6.1498              6.2130              6.2097        
  Turning point v=0 [a0]        0.1892              0.1885              0.1886        
  RMS dev v=0 [a0 u^1/2]        0.1393              0.1391              0.1391        
  Char temp [K]               4463.6160           4477.4643           4477.8812       
  ----------------------------------------------------------------------------------
      1   C                0.03  0.02 -0.00   -0.04 -0.02 -0.00    0.02  0.01 -0.00   
      2   C               -0.03  0.02  0.00    0.00  0.00  0.00   -0.04  0.03 -0.00   
      3   C               -0.00 -0.03  0.00    0.00  0.04  0.00   -0.00  0.03  0.00   
      4   C               -0.00 -0.03  0.00   -0.00 -0.04  0.00    0.00 -0.03  0.00   
      5   C               -0.03  0.02 -0.00   -0.00 -0.00  0.00    0.04 -0.03  0.00   
      6   C                0.03  0.02  0.00    0.04  0.02  0.00   -0.02 -0.01  0.00   
      7   H               -0.35 -0.20  0.00    0.48  0.27  0.00   -0.20 -0.11  0.00   
      8   H                0.35 -0.21  0.00   -0.02  0.01  0.00    0.51 -0.30  0.00   
      9   H                0.00  0.41 -0.00   -0.01 -0.44 -0.00   -0.00 -0.31 -0.00   
     10   H                0.00  0.41 -0.00    0.01  0.44 -0.00    0.00  0.31 -0.00   
     11   H                0.35 -0.21 -0.00    0.02 -0.01 -0.00   -0.51  0.30 -0.00   
     12   H               -0.35 -0.20  0.00   -0.48 -0.27 -0.00    0.20  0.11 -0.00   

  Vibration                       34                  35                  36          
  Freq [cm^-1]                3126.9835           3127.6443           3136.8065       
  Irrep                           Bu                  Bu                  Ag          
  Reduced mass [u]              1.0958              1.0957              1.0994        
  Force const [mDyne/A]         6.3129              6.3151              6.3738        
  Turning point v=0 [a0]        0.1875              0.1874              0.1868        
  RMS dev v=0 [a0 u^1/2]        0.1388              0.1387              0.1385        
  Char temp [K]               4499.0330           4499.9837           4513.1661       
  ----------------------------------------------------------------------------------
      1   C               -0.03 -0.02 -0.00   -0.03 -0.01 -0.00   -0.03 -0.02 -0.00   
      2   C               -0.04  0.03 -0.00    0.02 -0.01  0.00   -0.03  0.02  0.00   
      3   C                0.00  0.01 -0.00    0.00 -0.05  0.00   -0.00 -0.04 -0.00   
      4   C                0.00  0.01 -0.00    0.00 -0.05  0.00    0.00  0.04 -0.00   
      5   C               -0.04  0.03  0.00    0.02 -0.01 -0.00    0.03 -0.02 -0.00   
      6   C               -0.03 -0.02  0.00   -0.03 -0.01 -0.00    0.03  0.02  0.00   
      7   H                0.39  0.22  0.00    0.32  0.18 -0.00    0.33  0.18  0.00   
      8   H                0.46 -0.27  0.00   -0.18  0.10 -0.00    0.34 -0.20  0.00   
      9   H               -0.01 -0.09 -0.00    0.00  0.57  0.00    0.00  0.45  0.00   
     10   H               -0.01 -0.09 -0.00    0.00  0.57 -0.00   -0.00 -0.45  0.00   
     11   H                0.46 -0.27 -0.00   -0.18  0.10  0.00   -0.34  0.20 -0.00   
     12   H                0.39  0.22 -0.00    0.32  0.18  0.00   -0.33 -0.18  0.00   

  ==> Thermochemistry Components <==

  Entropy, S
    Electronic S            0.000 [cal/(mol K)]        0.000 [J/(mol K)]       0.00000000 [mEh/K] (multiplicity = 1)
    Translational S        38.979 [cal/(mol K)]      163.089 [J/(mol K)]       0.06211726 [mEh/K] (mol. weight = 78.0470 [u], P = 101325.00 [Pa])
    Rotational S           24.318 [cal/(mol K)]      101.746 [J/(mol K)]       0.03875307 [mEh/K] (symmetry no. = 2)
    Vibrational S           4.102 [cal/(mol K)]       17.162 [J/(mol K)]       0.00653674 [mEh/K]
  Total S                  67.399 [cal/(mol K)]      281.997 [J/(mol K)]       0.10740707 [mEh/K]
  Correction S              0.000 [cal/(mol K)]        0.000 [J/(mol K)]       0.00000000 [mEh/K]

  Constant volume heat capacity, Cv
    Electronic Cv           0.000 [cal/(mol K)]        0.000 [J/(mol K)]       0.00000000 [mEh/K]
    Translational Cv        2.981 [cal/(mol K)]       12.472 [J/(mol K)]       0.00475022 [mEh/K]
    Rotational Cv           2.981 [cal/(mol K)]       12.472 [J/(mol K)]       0.00475022 [mEh/K]
    Vibrational Cv         10.822 [cal/(mol K)]       45.278 [J/(mol K)]       0.01724537 [mEh/K]
  Total Cv                 16.783 [cal/(mol K)]       70.221 [J/(mol K)]       0.02674580 [mEh/K]
  Correction Cv             0.000 [cal/(mol K)]        0.000 [J/(mol K)]       0.00000000 [mEh/K]

  Constant pressure heat capacity, Cp
    Electronic Cp           0.000 [cal/(mol K)]        0.000 [J/(mol K)]       0.00000000 [mEh/K]
    Translational Cp        4.968 [cal/(mol K)]       20.786 [J/(mol K)]       0.00791703 [mEh/K]
    Rotational Cp           2.981 [cal/(mol K)]       12.472 [J/(mol K)]       0.00475022 [mEh/K]
    Vibrational Cp         10.822 [cal/(mol K)]       45.278 [J/(mol K)]       0.01724537 [mEh/K]
  Total Cp                 18.770 [cal/(mol K)]       78.536 [J/(mol K)]       0.02991261 [mEh/K]
  Correction Cp             0.000 [cal/(mol K)]        0.000 [J/(mol K)]       0.00000000 [mEh/K]

  ==> Thermochemistry Energy Analysis <==

  Raw electronic energy, E0
  Total E0, Electronic energy at well bottom at 0 [K]                 -232.19700222 [Eh]

  Zero-point energy, ZPE_vib = Sum_i nu_i / 2
    Electronic ZPE          0.000 [kcal/mol]        0.000 [kJ/mol]       0.00000000 [Eh]
    Translational ZPE       0.000 [kcal/mol]        0.000 [kJ/mol]       0.00000000 [Eh]
    Rotational ZPE          0.000 [kcal/mol]        0.000 [kJ/mol]       0.00000000 [Eh]
    Vibrational ZPE        62.650 [kcal/mol]      262.126 [kJ/mol]       0.09983846 [Eh]       21912.010 [cm^-1]
  Correction ZPE           62.650 [kcal/mol]      262.126 [kJ/mol]       0.09983846 [Eh]       21912.010 [cm^-1]
  Total ZPE, Electronic energy at 0 [K]                               -232.09716376 [Eh]

  Thermal Energy, E (includes ZPE)
    Electronic E            0.000 [kcal/mol]        0.000 [kJ/mol]       0.00000000 [Eh]
    Translational E         0.889 [kcal/mol]        3.718 [kJ/mol]       0.00141628 [Eh]
    Rotational E            0.889 [kcal/mol]        3.718 [kJ/mol]       0.00141628 [Eh]
    Vibrational E          63.571 [kcal/mol]      265.980 [kJ/mol]       0.10130642 [Eh]
  Correction E             65.348 [kcal/mol]      273.417 [kJ/mol]       0.10413897 [Eh]
  Total E, Electronic energy at  298.15 [K]                           -232.09286325 [Eh]

  Enthalpy, H_trans = E_trans + k_B * T
    Electronic H            0.000 [kcal/mol]        0.000 [kJ/mol]       0.00000000 [Eh]
    Translational H         1.481 [kcal/mol]        6.197 [kJ/mol]       0.00236046 [Eh]
    Rotational H            0.889 [kcal/mol]        3.718 [kJ/mol]       0.00141628 [Eh]
    Vibrational H          63.571 [kcal/mol]      265.980 [kJ/mol]       0.10130642 [Eh]
  Correction H             65.941 [kcal/mol]      275.896 [kJ/mol]       0.10508316 [Eh]
  Total H, Enthalpy at  298.15 [K]                                    -232.09191907 [Eh]

  Gibbs free energy, G = H - T * S
    Electronic G            0.000 [kcal/mol]        0.000 [kJ/mol]       0.00000000 [Eh]
    Translational G       -10.140 [kcal/mol]      -42.428 [kJ/mol]      -0.01615980 [Eh]
    Rotational G           -6.362 [kcal/mol]      -26.617 [kJ/mol]      -0.01013795 [Eh]
    Vibrational G          62.348 [kcal/mol]      260.863 [kJ/mol]       0.09935749 [Eh]
  Correction G             45.846 [kcal/mol]      191.818 [kJ/mol]       0.07305974 [Eh]
  Total G, Free enthalpy at  298.15 [K]                               -232.12394249 [Eh]

    Psi4 stopped on: Wednesday, 20 April 2022 02:34AM
    Psi4 wall time for execution: 0:31:53.12

*** Psi4 exiting successfully. Buy a developer a beer!
