
    -----------------------------------------------------------------------
          Psi4: An Open-Source Ab Initio Electronic Structure Package
                               Psi4 1.3.2 release

                         Git: Rev {HEAD} ecbda83 


    R. M. Parrish, L. A. Burns, D. G. A. Smith, A. C. Simmonett,
    A. E. DePrince III, E. G. Hohenstein, U. Bozkaya, A. Yu. Sokolov,
    R. Di Remigio, R. M. Richard, J. F. Gonthier, A. M. James,
    H. R. McAlexander, A. Kumar, M. Saitow, X. Wang, B. P. Pritchard,
    P. Verma, H. F. Schaefer III, K. Patkowski, R. A. King, E. F. Valeev,
    F. A. Evangelista, J. M. Turney, T. D. Crawford, and C. D. Sherrill,
    J. Chem. Theory Comput. 13(7) pp 3185--3197 (2017).
    (doi: 10.1021/acs.jctc.7b00174)


                         Additional Contributions by
    P. Kraus, H. Kruse, M. H. Lechner, M. C. Schieber, R. A. Shaw,
    A. Alenaizan, R. Galvelis, Z. L. Glick, S. Lehtola, and J. P. Misiewicz

    -----------------------------------------------------------------------


    Psi4 started on: Tuesday, 19 April 2022 02:29PM

    Process ID: 2259
    Host:       atlantis
    PSIDATADIR: /home/akrom/software/anaconda3/envs/ffpenv/share/psi4
    Memory:     500.0 MiB
    Threads:    1
    
  ==> Input File <==

--------------------------------------------------------------------------
set basis  6-31G
molecule {
0 1
   C        0.32153        0.81326        0.00000
   C       -0.86505       -0.12817        0.00000
   C        0.54353       -0.68508        0.00000
   H        0.53795        1.36069       -0.92039
   H        0.53795        1.36069        0.92039
   H       -1.44742       -0.21449        0.92034
   H       -1.44742       -0.21449       -0.92034
   H        0.90937       -1.14629       -0.92037
   H        0.90937       -1.14629        0.92037
}
energy('B3LYP')
frequencies('B3LYP')
--------------------------------------------------------------------------

*** tstart() called on atlantis
*** at Tue Apr 19 14:29:01 2022

   => Loading Basis Set <=

    Name: 6-31G
    Role: ORBITAL
    Keyword: BASIS
    atoms 1-3 entry C          line    87 file /home/akrom/software/anaconda3/envs/ffpenv/share/psi4/basis/6-31g.gbs 
    atoms 4-9 entry H          line    26 file /home/akrom/software/anaconda3/envs/ffpenv/share/psi4/basis/6-31g.gbs 


         ---------------------------------------------------------
                                   SCF
               by Justin Turney, Rob Parrish, Andy Simmonett
                          and Daniel G. A. Smith
                              RKS Reference
                        1 Threads,    500 MiB Core
         ---------------------------------------------------------

  ==> Geometry <==

    Molecular point group: cs
    Full point group: Cs

    Geometry (in Angstrom), charge = 0, multiplicity = 1:

       Center              X                  Y                   Z               Mass       
    ------------   -----------------  -----------------  -----------------  -----------------
         C            0.321531939855     0.813261460475     0.000000000000    12.000000000000
         C           -0.865048060145    -0.128168539525     0.000000000000    12.000000000000
         C            0.543531939855    -0.685078539525     0.000000000000    12.000000000000
         H            0.537951939855     1.360691460475    -0.920390000000     1.007825032230
         H            0.537951939855     1.360691460475     0.920390000000     1.007825032230
         H           -1.447418060145    -0.214488539525     0.920340000000     1.007825032230
         H           -1.447418060145    -0.214488539525    -0.920340000000     1.007825032230
         H            0.909371939855    -1.146288539525    -0.920370000000     1.007825032230
         H            0.909371939855    -1.146288539525     0.920370000000     1.007825032230

  Running in cs symmetry.

  Rotational constants: A =      0.66472  B =      0.66470  C =      0.41647 [cm^-1]
  Rotational constants: A =  19927.70596  B =  19927.20236  C =  12485.44714 [MHz]
  Nuclear repulsion =   75.281464809014025

  Charge       = 0
  Multiplicity = 1
  Electrons    = 24
  Nalpha       = 12
  Nbeta        = 12

  ==> Algorithm <==

  SCF Algorithm Type is DF.
  DIIS enabled.
  MOM disabled.
  Fractional occupation disabled.
  Guess Type is SAD.
  Energy threshold   = 1.00e-06
  Density threshold  = 1.00e-06
  Integral threshold = 0.00e+00

  ==> Primary Basis <==

  Basis Set: 6-31G
    Blend: 6-31G
    Number of shells: 27
    Number of basis function: 39
    Number of Cartesian functions: 39
    Spherical Harmonics?: false
    Max angular momentum: 1

  ==> DFT Potential <==

   => Composite Functional: B3LYP <= 

    B3LYP Hyb-GGA Exchange-Correlation Functional

    P. J. Stephens, F. J. Devlin, C. F. Chabalowski, and M. J. Frisch, J. Phys. Chem. 98, 11623 (1994)

    Deriv               =              1
    GGA                 =           TRUE
    Meta                =          FALSE

    Exchange Hybrid     =           TRUE
    MP2 Hybrid          =          FALSE

   => Exchange Functionals <=

    0.0800   Slater exchange
    0.7200         Becke 88

   => Exact (HF) Exchange <=

    0.2000               HF 

   => Correlation Functionals <=

    0.1900   Vosko, Wilk & Nusair (VWN5_RPA)
    0.8100   Lee, Yang & Parr

   => Molecular Quadrature <=

    Radial Scheme          =       TREUTLER
    Pruning Scheme         =           FLAT
    Nuclear Scheme         =       TREUTLER

    BS radius alpha        =              1
    Pruning alpha          =              1
    Radial Points          =             75
    Spherical Points       =            302
    Total Points           =         198448
    Total Blocks           =           1570
    Max Points             =            256
    Max Functions          =             39

   => Loading Basis Set <=

    Name: (6-31G AUX)
    Role: JKFIT
    Keyword: DF_BASIS_SCF
    atoms 1-3 entry C          line   121 file /home/akrom/software/anaconda3/envs/ffpenv/share/psi4/basis/cc-pvdz-jkfit.gbs 
    atoms 4-9 entry H          line    51 file /home/akrom/software/anaconda3/envs/ffpenv/share/psi4/basis/cc-pvdz-jkfit.gbs 

  ==> Pre-Iterations <==

   -------------------------------------------------------
    Irrep   Nso     Nmo     Nalpha   Nbeta   Ndocc  Nsocc
   -------------------------------------------------------
     A'        27      27       0       0       0       0
     A"        12      12       0       0       0       0
   -------------------------------------------------------
    Total      39      39      12      12      12       0
   -------------------------------------------------------

  ==> Integral Setup <==

  DFHelper Memory: AOs need 0.006 GiB; user supplied 0.156 GiB. Using in-core AOs.

  ==> MemDFJK: Density-Fitted J/K Matrices <==

    J tasked:                   Yes
    K tasked:                   Yes
    wK tasked:                   No
    OpenMP threads:               1
    Memory [MiB]:               160
    Algorithm:                 Core
    Schwarz Cutoff:           1E-12
    Mask sparsity (%):       0.0000
    Fitting Condition:        1E-10

   => Auxiliary Basis Set <=

  Basis Set: (6-31G AUX)
    Blend: CC-PVDZ-JKFIT
    Number of shells: 126
    Number of basis function: 393
    Number of Cartesian functions: 393
    Spherical Harmonics?: false
    Max angular momentum: 3

  Cached 100.0% of DFT collocation blocks in 0.210 [GiB].

  Minimum eigenvalue in the overlap matrix is 9.9475880981E-03.
  Using Symmetric Orthogonalization.

  SCF Guess: Superposition of Atomic Densities via on-the-fly atomic UHF.

  ==> Iterations <==

                           Total Energy        Delta E     RMS |[F,P]|

   @DF-RKS iter SAD:  -117.48492082968150   -1.17485e+02   0.00000e+00 
   @DF-RKS iter   1:  -117.62522432428980   -1.40303e-01   2.19162e-02 DIIS
   @DF-RKS iter   2:  -117.54141243025748    8.38119e-02   2.55161e-02 DIIS
   @DF-RKS iter   3:  -117.86346901956597   -3.22057e-01   3.52223e-04 DIIS
   @DF-RKS iter   4:  -117.86354625866976   -7.72391e-05   5.20333e-05 DIIS
   @DF-RKS iter   5:  -117.86354772073373   -1.46206e-06   4.88907e-06 DIIS
   @DF-RKS iter   6:  -117.86354773333454   -1.26008e-08   1.30316e-07 DIIS
  Energy and wave function converged.


  ==> Post-Iterations <==

    Orbital Energies [Eh]
    ---------------------

    Doubly Occupied:                                                      

       1Ap   -10.179201     2Ap   -10.178985     3Ap   -10.178980  
       4Ap    -0.849212     5Ap    -0.590953     6Ap    -0.590948  
       1App   -0.491034     7Ap    -0.460722     2App   -0.360203  
       3App   -0.360190     8Ap    -0.290190     9Ap    -0.290184  

    Virtual:                                                              

      10Ap     0.102651     4App    0.109437    11Ap     0.152636  
      12Ap     0.153982    13Ap     0.153989     5App    0.228665  
       6App    0.228670    14Ap     0.256770    15Ap     0.256781  
      16Ap     0.508893     7App    0.580416    17Ap     0.584848  
      18Ap     0.584866    19Ap     0.639168    20Ap     0.639182  
      21Ap     0.704315    22Ap     0.772064     8App    0.804433  
       9App    0.804473    10App    0.924714    23Ap     0.962754  
      24Ap     0.962762    11App    1.016052    12App    1.016111  
      25Ap     1.025738    26Ap     1.307531    27Ap     1.307534  

    Final Occupation by Irrep:
             Ap   App 
    DOCC [     9,    3 ]

  @DF-RKS Final Energy:  -117.86354773333454

   => Energetics <=

    Nuclear Repulsion Energy =             75.2814648090140253
    One-Electron Energy =                -305.8733980313314760
    Two-Electron Energy =                 127.7141583458247283
    DFT Exchange-Correlation Energy =     -14.9857728568418143
    Empirical Dispersion Energy =           0.0000000000000000
    VV10 Nonlocal Energy =                  0.0000000000000000
    Total Energy =                       -117.8635477333345278

Computation Completed


Properties will be evaluated at   0.000000,   0.000000,   0.000000 [a0]

Properties computed using the SCF density matrix

  Nuclear Dipole Moment: [e a0]
     X:    -0.0002      Y:    -0.0002      Z:     0.0000

  Electronic Dipole Moment: [e a0]
     X:     0.0001      Y:     0.0001      Z:     0.0000

  Dipole Moment: [e a0]
     X:    -0.0000      Y:    -0.0000      Z:     0.0000     Total:     0.0000

  Dipole Moment: [D]
     X:    -0.0001      Y:    -0.0001      Z:     0.0000     Total:     0.0001


*** tstop() called on atlantis at Tue Apr 19 14:29:04 2022
Module time:
	user time   =       2.48 seconds =       0.04 minutes
	system time =       0.07 seconds =       0.00 minutes
	total time  =          3 seconds =       0.05 minutes
Total time:
	user time   =       2.48 seconds =       0.04 minutes
	system time =       0.07 seconds =       0.00 minutes
	total time  =          3 seconds =       0.05 minutes
gradient() will perform analytic gradient computation.

*** tstart() called on atlantis
*** at Tue Apr 19 14:29:04 2022

   => Loading Basis Set <=

    Name: 6-31G
    Role: ORBITAL
    Keyword: BASIS
    atoms 1-3 entry C          line    87 file /home/akrom/software/anaconda3/envs/ffpenv/share/psi4/basis/6-31g.gbs 
    atoms 4-9 entry H          line    26 file /home/akrom/software/anaconda3/envs/ffpenv/share/psi4/basis/6-31g.gbs 


         ---------------------------------------------------------
                                   SCF
               by Justin Turney, Rob Parrish, Andy Simmonett
                          and Daniel G. A. Smith
                              RKS Reference
                        1 Threads,    500 MiB Core
         ---------------------------------------------------------

  ==> Geometry <==

    Molecular point group: cs
    Full point group: Cs

    Geometry (in Angstrom), charge = 0, multiplicity = 1:

       Center              X                  Y                   Z               Mass       
    ------------   -----------------  -----------------  -----------------  -----------------
         C            0.321531939855     0.813261460475     0.000000000000    12.000000000000
         C           -0.865048060145    -0.128168539525     0.000000000000    12.000000000000
         C            0.543531939855    -0.685078539525     0.000000000000    12.000000000000
         H            0.537951939855     1.360691460475    -0.920390000000     1.007825032230
         H            0.537951939855     1.360691460475     0.920390000000     1.007825032230
         H           -1.447418060145    -0.214488539525     0.920340000000     1.007825032230
         H           -1.447418060145    -0.214488539525    -0.920340000000     1.007825032230
         H            0.909371939855    -1.146288539525    -0.920370000000     1.007825032230
         H            0.909371939855    -1.146288539525     0.920370000000     1.007825032230

  Running in cs symmetry.

  Rotational constants: A =      0.66472  B =      0.66470  C =      0.41647 [cm^-1]
  Rotational constants: A =  19927.70596  B =  19927.20236  C =  12485.44714 [MHz]
  Nuclear repulsion =   75.281464809014025

  Charge       = 0
  Multiplicity = 1
  Electrons    = 24
  Nalpha       = 12
  Nbeta        = 12

  ==> Algorithm <==

  SCF Algorithm Type is DF.
  DIIS enabled.
  MOM disabled.
  Fractional occupation disabled.
  Guess Type is SAD.
  Energy threshold   = 1.00e-08
  Density threshold  = 1.00e-08
  Integral threshold = 0.00e+00

  ==> Primary Basis <==

  Basis Set: 6-31G
    Blend: 6-31G
    Number of shells: 27
    Number of basis function: 39
    Number of Cartesian functions: 39
    Spherical Harmonics?: false
    Max angular momentum: 1

  ==> DFT Potential <==

   => Composite Functional: B3LYP <= 

    B3LYP Hyb-GGA Exchange-Correlation Functional

    P. J. Stephens, F. J. Devlin, C. F. Chabalowski, and M. J. Frisch, J. Phys. Chem. 98, 11623 (1994)

    Deriv               =              1
    GGA                 =           TRUE
    Meta                =          FALSE

    Exchange Hybrid     =           TRUE
    MP2 Hybrid          =          FALSE

   => Exchange Functionals <=

    0.0800   Slater exchange
    0.7200         Becke 88

   => Exact (HF) Exchange <=

    0.2000               HF 

   => Correlation Functionals <=

    0.1900   Vosko, Wilk & Nusair (VWN5_RPA)
    0.8100   Lee, Yang & Parr

   => Molecular Quadrature <=

    Radial Scheme          =       TREUTLER
    Pruning Scheme         =           FLAT
    Nuclear Scheme         =       TREUTLER

    BS radius alpha        =              1
    Pruning alpha          =              1
    Radial Points          =             75
    Spherical Points       =            302
    Total Points           =         198448
    Total Blocks           =           1570
    Max Points             =            256
    Max Functions          =             39

   => Loading Basis Set <=

    Name: (6-31G AUX)
    Role: JKFIT
    Keyword: DF_BASIS_SCF
    atoms 1-3 entry C          line   121 file /home/akrom/software/anaconda3/envs/ffpenv/share/psi4/basis/cc-pvdz-jkfit.gbs 
    atoms 4-9 entry H          line    51 file /home/akrom/software/anaconda3/envs/ffpenv/share/psi4/basis/cc-pvdz-jkfit.gbs 

  ==> Pre-Iterations <==

   -------------------------------------------------------
    Irrep   Nso     Nmo     Nalpha   Nbeta   Ndocc  Nsocc
   -------------------------------------------------------
     A'        27      27       0       0       0       0
     A"        12      12       0       0       0       0
   -------------------------------------------------------
    Total      39      39      12      12      12       0
   -------------------------------------------------------

  ==> Integral Setup <==

  DFHelper Memory: AOs need 0.006 GiB; user supplied 0.156 GiB. Using in-core AOs.

  ==> MemDFJK: Density-Fitted J/K Matrices <==

    J tasked:                   Yes
    K tasked:                   Yes
    wK tasked:                   No
    OpenMP threads:               1
    Memory [MiB]:               160
    Algorithm:                 Core
    Schwarz Cutoff:           1E-12
    Mask sparsity (%):       0.0000
    Fitting Condition:        1E-10

   => Auxiliary Basis Set <=

  Basis Set: (6-31G AUX)
    Blend: CC-PVDZ-JKFIT
    Number of shells: 126
    Number of basis function: 393
    Number of Cartesian functions: 393
    Spherical Harmonics?: false
    Max angular momentum: 3

  Cached 100.0% of DFT collocation blocks in 0.210 [GiB].

  Minimum eigenvalue in the overlap matrix is 9.9475880981E-03.
  Using Symmetric Orthogonalization.

  SCF Guess: Superposition of Atomic Densities via on-the-fly atomic UHF.

  ==> Iterations <==

                           Total Energy        Delta E     RMS |[F,P]|

   @DF-RKS iter SAD:  -117.48492082962295   -1.17485e+02   0.00000e+00 
   @DF-RKS iter   1:  -117.62522432422720   -1.40303e-01   2.19162e-02 DIIS
   @DF-RKS iter   2:  -117.54141243019238    8.38119e-02   2.55161e-02 DIIS
   @DF-RKS iter   3:  -117.86346901950192   -3.22057e-01   3.52223e-04 DIIS
   @DF-RKS iter   4:  -117.86354625860579   -7.72391e-05   5.20333e-05 DIIS
   @DF-RKS iter   5:  -117.86354772066984   -1.46206e-06   4.88907e-06 DIIS
   @DF-RKS iter   6:  -117.86354773327034   -1.26005e-08   1.30316e-07 DIIS
   @DF-RKS iter   7:  -117.86354773328183   -1.14966e-11   6.04279e-08 DIIS
   @DF-RKS iter   8:  -117.86354773328333   -1.49214e-12   2.13554e-08 DIIS
   @DF-RKS iter   9:  -117.86354773328335   -2.84217e-14   1.82099e-10 DIIS
  Energy and wave function converged.


  ==> Post-Iterations <==

    Orbital Energies [Eh]
    ---------------------

    Doubly Occupied:                                                      

       1Ap   -10.179201     2Ap   -10.178985     3Ap   -10.178981  
       4Ap    -0.849212     5Ap    -0.590953     6Ap    -0.590948  
       1App   -0.491034     7Ap    -0.460722     2App   -0.360203  
       3App   -0.360190     8Ap    -0.290190     9Ap    -0.290184  

    Virtual:                                                              

      10Ap     0.102651     4App    0.109437    11Ap     0.152636  
      12Ap     0.153982    13Ap     0.153989     5App    0.228665  
       6App    0.228670    14Ap     0.256770    15Ap     0.256781  
      16Ap     0.508893     7App    0.580415    17Ap     0.584848  
      18Ap     0.584867    19Ap     0.639168    20Ap     0.639182  
      21Ap     0.704315    22Ap     0.772064     8App    0.804433  
       9App    0.804473    10App    0.924714    23Ap     0.962754  
      24Ap     0.962762    11App    1.016052    12App    1.016111  
      25Ap     1.025738    26Ap     1.307531    27Ap     1.307534  

    Final Occupation by Irrep:
             Ap   App 
    DOCC [     9,    3 ]

  @DF-RKS Final Energy:  -117.86354773328335

   => Energetics <=

    Nuclear Repulsion Energy =             75.2814648090140253
    One-Electron Energy =                -305.8733780036973258
    Two-Electron Energy =                 127.7141367497824263
    DFT Exchange-Correlation Energy =     -14.9857712883824963
    Empirical Dispersion Energy =           0.0000000000000000
    VV10 Nonlocal Energy =                  0.0000000000000000
    Total Energy =                       -117.8635477332833545

Computation Completed


Properties will be evaluated at   0.000000,   0.000000,   0.000000 [a0]

Properties computed using the SCF density matrix

  Nuclear Dipole Moment: [e a0]
     X:    -0.0002      Y:    -0.0002      Z:     0.0000

  Electronic Dipole Moment: [e a0]
     X:     0.0002      Y:     0.0001      Z:     0.0000

  Dipole Moment: [e a0]
     X:    -0.0000      Y:    -0.0000      Z:     0.0000     Total:     0.0000

  Dipole Moment: [D]
     X:    -0.0001      Y:    -0.0001      Z:     0.0000     Total:     0.0001


*** tstop() called on atlantis at Tue Apr 19 14:29:07 2022
Module time:
	user time   =       3.24 seconds =       0.05 minutes
	system time =       0.02 seconds =       0.00 minutes
	total time  =          3 seconds =       0.05 minutes
Total time:
	user time   =       5.72 seconds =       0.10 minutes
	system time =       0.09 seconds =       0.00 minutes
	total time  =          6 seconds =       0.10 minutes

*** tstart() called on atlantis
*** at Tue Apr 19 14:29:07 2022


         ------------------------------------------------------------
                                   SCF GRAD                          
                          Rob Parrish, Justin Turney,                
                       Andy Simmonett, and Alex Sokolov              
         ------------------------------------------------------------

  ==> Geometry <==

    Molecular point group: cs
    Full point group: Cs

    Geometry (in Angstrom), charge = 0, multiplicity = 1:

       Center              X                  Y                   Z               Mass       
    ------------   -----------------  -----------------  -----------------  -----------------
         C            0.321531939855     0.813261460475     0.000000000000    12.000000000000
         C           -0.865048060145    -0.128168539525     0.000000000000    12.000000000000
         C            0.543531939855    -0.685078539525     0.000000000000    12.000000000000
         H            0.537951939855     1.360691460475    -0.920390000000     1.007825032230
         H            0.537951939855     1.360691460475     0.920390000000     1.007825032230
         H           -1.447418060145    -0.214488539525     0.920340000000     1.007825032230
         H           -1.447418060145    -0.214488539525    -0.920340000000     1.007825032230
         H            0.909371939855    -1.146288539525    -0.920370000000     1.007825032230
         H            0.909371939855    -1.146288539525     0.920370000000     1.007825032230

  Nuclear repulsion =   75.281464809014025

  ==> Basis Set <==

  Basis Set: 6-31G
    Blend: 6-31G
    Number of shells: 27
    Number of basis function: 39
    Number of Cartesian functions: 39
    Spherical Harmonics?: false
    Max angular momentum: 1

  ==> DFJKGrad: Density-Fitted SCF Gradients <==

    Gradient:                    1
    J tasked:                  Yes
    K tasked:                  Yes
    wK tasked:                  No
    OpenMP threads:              1
    Integrals threads:           1
    Memory [MiB]:              375
    Schwarz Cutoff:          0E+00
    Fitting Condition:       1E-10

   => Auxiliary Basis Set <=

  Basis Set: (6-31G AUX)
    Blend: CC-PVDZ-JKFIT
    Number of shells: 126
    Number of basis function: 393
    Number of Cartesian functions: 393
    Spherical Harmonics?: false
    Max angular momentum: 3

  ==> DFT Potential <==

   => Composite Functional: B3LYP <= 

    B3LYP Hyb-GGA Exchange-Correlation Functional

    P. J. Stephens, F. J. Devlin, C. F. Chabalowski, and M. J. Frisch, J. Phys. Chem. 98, 11623 (1994)

    Deriv               =              1
    GGA                 =           TRUE
    Meta                =          FALSE

    Exchange Hybrid     =           TRUE
    MP2 Hybrid          =          FALSE

   => Exchange Functionals <=

    0.0800   Slater exchange
    0.7200         Becke 88

   => Exact (HF) Exchange <=

    0.2000               HF 

   => Correlation Functionals <=

    0.1900   Vosko, Wilk & Nusair (VWN5_RPA)
    0.8100   Lee, Yang & Parr

   => Molecular Quadrature <=

    Radial Scheme          =       TREUTLER
    Pruning Scheme         =           FLAT
    Nuclear Scheme         =       TREUTLER

    BS radius alpha        =              1
    Pruning alpha          =              1
    Radial Points          =             75
    Spherical Points       =            302
    Total Points           =         198448
    Total Blocks           =           1570
    Max Points             =            256
    Max Functions          =             39


  -Total Gradient:
     Atom            X                  Y                   Z
    ------   -----------------  -----------------  -----------------
       1       -0.002516340459    -0.006351694521     0.000000000000
       2        0.006789037347     0.001010107178     0.000000000000
       3       -0.004248838215     0.005367418075     0.000000000000
       4        0.000367245015     0.000933122910    -0.005423680487
       5        0.000367245015     0.000933122910     0.005423680487
       6       -0.001000763042    -0.000151959244     0.005414036873
       7       -0.001000763042    -0.000151959244    -0.005414036873
       8        0.000621428772    -0.000791651238    -0.005420000042
       9        0.000621428772    -0.000791651238     0.005420000042


*** tstop() called on atlantis at Tue Apr 19 14:29:08 2022
Module time:
	user time   =       0.71 seconds =       0.01 minutes
	system time =       0.00 seconds =       0.00 minutes
	total time  =          1 seconds =       0.02 minutes
Total time:
	user time   =       6.43 seconds =       0.11 minutes
	system time =       0.09 seconds =       0.00 minutes
	total time  =          7 seconds =       0.12 minutes

  Based on options and gradient (rms=3.46E-03), recommend projecting translations and projecting rotations.
hessian() will perform frequency computation by finite difference of analytic gradients.

         ----------------------------------------------------------
                                   FINDIF
                     R. A. King and Jonathon Misiewicz
         ---------------------------------------------------------

  Using finite-differences of gradients to determine vibrational frequencies and 
  normal modes.  Resulting frequencies are only valid at stationary points.
    Generating geometries for use with 3-point formula.
    Displacement size will be 5.00e-03.
    Number of atoms is 9.
    Number of irreps is 2.
    Number of SALCs is 21.
    Translations projected? 1. Rotations projected? 1.
    Index of SALCs per irrep:
     1 :  0  1  2  3  4  5  6  7  8  9  10  11 
     2 :  12  13  14  15  16  17  18  19  20 
    Number of SALCs per irrep:
     Irrep 1: 12
     Irrep 2: 9
    Number of geometries (including reference) is 34.
    Number of displacements per irrep:
      Irrep 1: 24
      Irrep 2: 9

  //>>>>>>>>>>>>>>>>>>>>>>>>>>>>>>>>>>>//
  //    Loading displacement 1 of 34   //
  //<<<<<<<<<<<<<<<<<<<<<<<<<<<<<<<<<<<//
gradient() will perform analytic gradient computation.

*** tstart() called on atlantis
*** at Tue Apr 19 14:29:08 2022

   => Loading Basis Set <=

    Name: 6-31G
    Role: ORBITAL
    Keyword: BASIS
    atoms 1-3 entry C          line    87 file /home/akrom/software/anaconda3/envs/ffpenv/share/psi4/basis/6-31g.gbs 
    atoms 4-9 entry H          line    26 file /home/akrom/software/anaconda3/envs/ffpenv/share/psi4/basis/6-31g.gbs 


         ---------------------------------------------------------
                                   SCF
               by Justin Turney, Rob Parrish, Andy Simmonett
                          and Daniel G. A. Smith
                              RKS Reference
                        1 Threads,    500 MiB Core
         ---------------------------------------------------------

  ==> Geometry <==

    Molecular point group: cs
    Full point group: Cs

    Geometry (in Angstrom), charge = 0, multiplicity = 1:

       Center              X                  Y                   Z               Mass       
    ------------   -----------------  -----------------  -----------------  -----------------
         C            0.321531939855     0.813261460475     0.000000000000    12.000000000000
         C           -0.865048060145    -0.128168539525     0.000000000000    12.000000000000
         C            0.543531939855    -0.685078539525     0.000000000000    12.000000000000
         H            0.537951939855     1.360691460475    -0.920390000000     1.007825032230
         H            0.537951939855     1.360691460475     0.920390000000     1.007825032230
         H           -1.447418060145    -0.214488539525     0.920340000000     1.007825032230
         H           -1.447418060145    -0.214488539525    -0.920340000000     1.007825032230
         H            0.909371939855    -1.146288539525    -0.920370000000     1.007825032230
         H            0.909371939855    -1.146288539525     0.920370000000     1.007825032230

  Running in cs symmetry.

  Rotational constants: A =      0.66472  B =      0.66470  C =      0.41647 [cm^-1]
  Rotational constants: A =  19927.70596  B =  19927.20236  C =  12485.44714 [MHz]
  Nuclear repulsion =   75.281464809014025

  Charge       = 0
  Multiplicity = 1
  Electrons    = 24
  Nalpha       = 12
  Nbeta        = 12

  ==> Algorithm <==

  SCF Algorithm Type is DF.
  DIIS enabled.
  MOM disabled.
  Fractional occupation disabled.
  Guess Type is SAD.
  Energy threshold   = 1.00e-08
  Density threshold  = 1.00e-08
  Integral threshold = 0.00e+00

  ==> Primary Basis <==

  Basis Set: 6-31G
    Blend: 6-31G
    Number of shells: 27
    Number of basis function: 39
    Number of Cartesian functions: 39
    Spherical Harmonics?: false
    Max angular momentum: 1

  ==> DFT Potential <==

   => Composite Functional: B3LYP <= 

    B3LYP Hyb-GGA Exchange-Correlation Functional

    P. J. Stephens, F. J. Devlin, C. F. Chabalowski, and M. J. Frisch, J. Phys. Chem. 98, 11623 (1994)

    Deriv               =              1
    GGA                 =           TRUE
    Meta                =          FALSE

    Exchange Hybrid     =           TRUE
    MP2 Hybrid          =          FALSE

   => Exchange Functionals <=

    0.0800   Slater exchange
    0.7200         Becke 88

   => Exact (HF) Exchange <=

    0.2000               HF 

   => Correlation Functionals <=

    0.1900   Vosko, Wilk & Nusair (VWN5_RPA)
    0.8100   Lee, Yang & Parr

   => Molecular Quadrature <=

    Radial Scheme          =       TREUTLER
    Pruning Scheme         =           FLAT
    Nuclear Scheme         =       TREUTLER

    BS radius alpha        =              1
    Pruning alpha          =              1
    Radial Points          =             75
    Spherical Points       =            302
    Total Points           =         198448
    Total Blocks           =           1570
    Max Points             =            256
    Max Functions          =             39

   => Loading Basis Set <=

    Name: (6-31G AUX)
    Role: JKFIT
    Keyword: DF_BASIS_SCF
    atoms 1-3 entry C          line   121 file /home/akrom/software/anaconda3/envs/ffpenv/share/psi4/basis/cc-pvdz-jkfit.gbs 
    atoms 4-9 entry H          line    51 file /home/akrom/software/anaconda3/envs/ffpenv/share/psi4/basis/cc-pvdz-jkfit.gbs 

  ==> Pre-Iterations <==

   -------------------------------------------------------
    Irrep   Nso     Nmo     Nalpha   Nbeta   Ndocc  Nsocc
   -------------------------------------------------------
     A'        27      27       0       0       0       0
     A"        12      12       0       0       0       0
   -------------------------------------------------------
    Total      39      39      12      12      12       0
   -------------------------------------------------------

  ==> Integral Setup <==

  DFHelper Memory: AOs need 0.006 GiB; user supplied 0.156 GiB. Using in-core AOs.

  ==> MemDFJK: Density-Fitted J/K Matrices <==

    J tasked:                   Yes
    K tasked:                   Yes
    wK tasked:                   No
    OpenMP threads:               1
    Memory [MiB]:               160
    Algorithm:                 Core
    Schwarz Cutoff:           1E-12
    Mask sparsity (%):       0.0000
    Fitting Condition:        1E-10

   => Auxiliary Basis Set <=

  Basis Set: (6-31G AUX)
    Blend: CC-PVDZ-JKFIT
    Number of shells: 126
    Number of basis function: 393
    Number of Cartesian functions: 393
    Spherical Harmonics?: false
    Max angular momentum: 3

  Cached 100.0% of DFT collocation blocks in 0.210 [GiB].

  Minimum eigenvalue in the overlap matrix is 9.9475880981E-03.
  Using Symmetric Orthogonalization.

  SCF Guess: Superposition of Atomic Densities via on-the-fly atomic UHF.

  ==> Iterations <==

                           Total Energy        Delta E     RMS |[F,P]|

   @DF-RKS iter SAD:  -117.48492082962341   -1.17485e+02   0.00000e+00 
   @DF-RKS iter   1:  -117.62522432422752   -1.40303e-01   2.19162e-02 DIIS
   @DF-RKS iter   2:  -117.54141243019292    8.38119e-02   2.55161e-02 DIIS
   @DF-RKS iter   3:  -117.86346901950238   -3.22057e-01   3.52223e-04 DIIS
   @DF-RKS iter   4:  -117.86354625860636   -7.72391e-05   5.20333e-05 DIIS
   @DF-RKS iter   5:  -117.86354772066998   -1.46206e-06   4.88907e-06 DIIS
   @DF-RKS iter   6:  -117.86354773327095   -1.26010e-08   1.30316e-07 DIIS
   @DF-RKS iter   7:  -117.86354773328206   -1.11129e-11   6.04279e-08 DIIS
   @DF-RKS iter   8:  -117.86354773328388   -1.81899e-12   2.13554e-08 DIIS
   @DF-RKS iter   9:  -117.86354773328384    4.26326e-14   1.82099e-10 DIIS
  Energy and wave function converged.


  ==> Post-Iterations <==

    Orbital Energies [Eh]
    ---------------------

    Doubly Occupied:                                                      

       1Ap   -10.179201     2Ap   -10.178985     3Ap   -10.178981  
       4Ap    -0.849212     5Ap    -0.590953     6Ap    -0.590948  
       1App   -0.491034     7Ap    -0.460722     2App   -0.360203  
       3App   -0.360190     8Ap    -0.290190     9Ap    -0.290184  

    Virtual:                                                              

      10Ap     0.102651     4App    0.109437    11Ap     0.152636  
      12Ap     0.153982    13Ap     0.153989     5App    0.228665  
       6App    0.228670    14Ap     0.256770    15Ap     0.256781  
      16Ap     0.508893     7App    0.580415    17Ap     0.584848  
      18Ap     0.584867    19Ap     0.639168    20Ap     0.639182  
      21Ap     0.704315    22Ap     0.772064     8App    0.804433  
       9App    0.804473    10App    0.924714    23Ap     0.962754  
      24Ap     0.962762    11App    1.016052    12App    1.016111  
      25Ap     1.025738    26Ap     1.307531    27Ap     1.307534  

    Final Occupation by Irrep:
             Ap   App 
    DOCC [     9,    3 ]

  @DF-RKS Final Energy:  -117.86354773328384

   => Energetics <=

    Nuclear Repulsion Energy =             75.2814648090140253
    One-Electron Energy =                -305.8733780036965300
    Two-Electron Energy =                 127.7141367497811189
    DFT Exchange-Correlation Energy =     -14.9857712883824679
    Empirical Dispersion Energy =           0.0000000000000000
    VV10 Nonlocal Energy =                  0.0000000000000000
    Total Energy =                       -117.8635477332838377

Computation Completed


Properties will be evaluated at   0.000000,   0.000000,   0.000000 [a0]

Properties computed using the SCF density matrix

  Nuclear Dipole Moment: [e a0]
     X:    -0.0002      Y:    -0.0002      Z:     0.0000

  Electronic Dipole Moment: [e a0]
     X:     0.0002      Y:     0.0001      Z:     0.0000

  Dipole Moment: [e a0]
     X:    -0.0000      Y:    -0.0000      Z:     0.0000     Total:     0.0000

  Dipole Moment: [D]
     X:    -0.0001      Y:    -0.0001      Z:     0.0000     Total:     0.0001


*** tstop() called on atlantis at Tue Apr 19 14:29:11 2022
Module time:
	user time   =       3.21 seconds =       0.05 minutes
	system time =       0.05 seconds =       0.00 minutes
	total time  =          3 seconds =       0.05 minutes
Total time:
	user time   =       9.91 seconds =       0.17 minutes
	system time =       0.16 seconds =       0.00 minutes
	total time  =         10 seconds =       0.17 minutes

*** tstart() called on atlantis
*** at Tue Apr 19 14:29:11 2022


         ------------------------------------------------------------
                                   SCF GRAD                          
                          Rob Parrish, Justin Turney,                
                       Andy Simmonett, and Alex Sokolov              
         ------------------------------------------------------------

  ==> Geometry <==

    Molecular point group: cs
    Full point group: Cs

    Geometry (in Angstrom), charge = 0, multiplicity = 1:

       Center              X                  Y                   Z               Mass       
    ------------   -----------------  -----------------  -----------------  -----------------
         C            0.321531939855     0.813261460475     0.000000000000    12.000000000000
         C           -0.865048060145    -0.128168539525     0.000000000000    12.000000000000
         C            0.543531939855    -0.685078539525     0.000000000000    12.000000000000
         H            0.537951939855     1.360691460475    -0.920390000000     1.007825032230
         H            0.537951939855     1.360691460475     0.920390000000     1.007825032230
         H           -1.447418060145    -0.214488539525     0.920340000000     1.007825032230
         H           -1.447418060145    -0.214488539525    -0.920340000000     1.007825032230
         H            0.909371939855    -1.146288539525    -0.920370000000     1.007825032230
         H            0.909371939855    -1.146288539525     0.920370000000     1.007825032230

  Nuclear repulsion =   75.281464809014025

  ==> Basis Set <==

  Basis Set: 6-31G
    Blend: 6-31G
    Number of shells: 27
    Number of basis function: 39
    Number of Cartesian functions: 39
    Spherical Harmonics?: false
    Max angular momentum: 1

  ==> DFJKGrad: Density-Fitted SCF Gradients <==

    Gradient:                    1
    J tasked:                  Yes
    K tasked:                  Yes
    wK tasked:                  No
    OpenMP threads:              1
    Integrals threads:           1
    Memory [MiB]:              375
    Schwarz Cutoff:          0E+00
    Fitting Condition:       1E-10

   => Auxiliary Basis Set <=

  Basis Set: (6-31G AUX)
    Blend: CC-PVDZ-JKFIT
    Number of shells: 126
    Number of basis function: 393
    Number of Cartesian functions: 393
    Spherical Harmonics?: false
    Max angular momentum: 3

  ==> DFT Potential <==

   => Composite Functional: B3LYP <= 

    B3LYP Hyb-GGA Exchange-Correlation Functional

    P. J. Stephens, F. J. Devlin, C. F. Chabalowski, and M. J. Frisch, J. Phys. Chem. 98, 11623 (1994)

    Deriv               =              1
    GGA                 =           TRUE
    Meta                =          FALSE

    Exchange Hybrid     =           TRUE
    MP2 Hybrid          =          FALSE

   => Exchange Functionals <=

    0.0800   Slater exchange
    0.7200         Becke 88

   => Exact (HF) Exchange <=

    0.2000               HF 

   => Correlation Functionals <=

    0.1900   Vosko, Wilk & Nusair (VWN5_RPA)
    0.8100   Lee, Yang & Parr

   => Molecular Quadrature <=

    Radial Scheme          =       TREUTLER
    Pruning Scheme         =           FLAT
    Nuclear Scheme         =       TREUTLER

    BS radius alpha        =              1
    Pruning alpha          =              1
    Radial Points          =             75
    Spherical Points       =            302
    Total Points           =         198448
    Total Blocks           =           1570
    Max Points             =            256
    Max Functions          =             39


  -Total Gradient:
     Atom            X                  Y                   Z
    ------   -----------------  -----------------  -----------------
       1       -0.002516341098    -0.006351694654     0.000000000000
       2        0.006789037514     0.001010107134     0.000000000000
       3       -0.004248838717     0.005367417709     0.000000000000
       4        0.000367245137     0.000933123142    -0.005423680854
       5        0.000367245137     0.000933123142     0.005423680854
       6       -0.001000762729    -0.000151959194     0.005414036422
       7       -0.001000762729    -0.000151959194    -0.005414036422
       8        0.000621428825    -0.000791651249    -0.005420000105
       9        0.000621428825    -0.000791651249     0.005420000105


*** tstop() called on atlantis at Tue Apr 19 14:29:12 2022
Module time:
	user time   =       0.69 seconds =       0.01 minutes
	system time =       0.00 seconds =       0.00 minutes
	total time  =          1 seconds =       0.02 minutes
Total time:
	user time   =      10.60 seconds =       0.18 minutes
	system time =       0.16 seconds =       0.00 minutes
	total time  =         11 seconds =       0.18 minutes

  //>>>>>>>>>>>>>>>>>>>>>>>>>>>>>>>>>>>//
  //    Loading displacement 2 of 34   //
  //<<<<<<<<<<<<<<<<<<<<<<<<<<<<<<<<<<<//
gradient() will perform analytic gradient computation.

*** tstart() called on atlantis
*** at Tue Apr 19 14:29:12 2022

   => Loading Basis Set <=

    Name: 6-31G
    Role: ORBITAL
    Keyword: BASIS
    atoms 1-3 entry C          line    87 file /home/akrom/software/anaconda3/envs/ffpenv/share/psi4/basis/6-31g.gbs 
    atoms 4-9 entry H          line    26 file /home/akrom/software/anaconda3/envs/ffpenv/share/psi4/basis/6-31g.gbs 


         ---------------------------------------------------------
                                   SCF
               by Justin Turney, Rob Parrish, Andy Simmonett
                          and Daniel G. A. Smith
                              RKS Reference
                        1 Threads,    500 MiB Core
         ---------------------------------------------------------

  ==> Geometry <==

    Molecular point group: cs
    Full point group: Cs

    Geometry (in Angstrom), charge = 0, multiplicity = 1:

       Center              X                  Y                   Z               Mass       
    ------------   -----------------  -----------------  -----------------  -----------------
         C            0.320981935461     0.813179232929     0.000000000000    12.000000000000
         C           -0.864778117207    -0.127947314912     0.000000000000    12.000000000000
         C            0.543659460418    -0.685217540638     0.000000000000    12.000000000000
         H            0.538602639069     1.360553886373    -0.920390000000     1.007825032230
         H            0.538602639069     1.360553886373     0.920390000000     1.007825032230
         H           -1.447170192407    -0.214118381478     0.920340000000     1.007825032230
         H           -1.447170192407    -0.214118381478    -0.920340000000     1.007825032230
         H            0.909381512053    -1.146521099385    -0.920370000000     1.007825032230
         H            0.909381512053    -1.146521099385     0.920370000000     1.007825032230

  Running in cs symmetry.

  Rotational constants: A =      0.66511  B =      0.66452  C =      0.41655 [cm^-1]
  Rotational constants: A =  19939.46144  B =  19921.88173  C =  12487.97026 [MHz]
  Nuclear repulsion =   75.286659304380962

  Charge       = 0
  Multiplicity = 1
  Electrons    = 24
  Nalpha       = 12
  Nbeta        = 12

  ==> Algorithm <==

  SCF Algorithm Type is DF.
  DIIS enabled.
  MOM disabled.
  Fractional occupation disabled.
  Guess Type is SAD.
  Energy threshold   = 1.00e-08
  Density threshold  = 1.00e-08
  Integral threshold = 0.00e+00

  ==> Primary Basis <==

  Basis Set: 6-31G
    Blend: 6-31G
    Number of shells: 27
    Number of basis function: 39
    Number of Cartesian functions: 39
    Spherical Harmonics?: false
    Max angular momentum: 1

  ==> DFT Potential <==

   => Composite Functional: B3LYP <= 

    B3LYP Hyb-GGA Exchange-Correlation Functional

    P. J. Stephens, F. J. Devlin, C. F. Chabalowski, and M. J. Frisch, J. Phys. Chem. 98, 11623 (1994)

    Deriv               =              1
    GGA                 =           TRUE
    Meta                =          FALSE

    Exchange Hybrid     =           TRUE
    MP2 Hybrid          =          FALSE

   => Exchange Functionals <=

    0.0800   Slater exchange
    0.7200         Becke 88

   => Exact (HF) Exchange <=

    0.2000               HF 

   => Correlation Functionals <=

    0.1900   Vosko, Wilk & Nusair (VWN5_RPA)
    0.8100   Lee, Yang & Parr

   => Molecular Quadrature <=

    Radial Scheme          =       TREUTLER
    Pruning Scheme         =           FLAT
    Nuclear Scheme         =       TREUTLER

    BS radius alpha        =              1
    Pruning alpha          =              1
    Radial Points          =             75
    Spherical Points       =            302
    Total Points           =         198412
    Total Blocks           =           1546
    Max Points             =            256
    Max Functions          =             39

   => Loading Basis Set <=

    Name: (6-31G AUX)
    Role: JKFIT
    Keyword: DF_BASIS_SCF
    atoms 1-3 entry C          line   121 file /home/akrom/software/anaconda3/envs/ffpenv/share/psi4/basis/cc-pvdz-jkfit.gbs 
    atoms 4-9 entry H          line    51 file /home/akrom/software/anaconda3/envs/ffpenv/share/psi4/basis/cc-pvdz-jkfit.gbs 

  ==> Pre-Iterations <==

   -------------------------------------------------------
    Irrep   Nso     Nmo     Nalpha   Nbeta   Ndocc  Nsocc
   -------------------------------------------------------
     A'        27      27       0       0       0       0
     A"        12      12       0       0       0       0
   -------------------------------------------------------
    Total      39      39      12      12      12       0
   -------------------------------------------------------

  ==> Integral Setup <==

  DFHelper Memory: AOs need 0.006 GiB; user supplied 0.156 GiB. Using in-core AOs.

  ==> MemDFJK: Density-Fitted J/K Matrices <==

    J tasked:                   Yes
    K tasked:                   Yes
    wK tasked:                   No
    OpenMP threads:               1
    Memory [MiB]:               160
    Algorithm:                 Core
    Schwarz Cutoff:           1E-12
    Mask sparsity (%):       0.0000
    Fitting Condition:        1E-10

   => Auxiliary Basis Set <=

  Basis Set: (6-31G AUX)
    Blend: CC-PVDZ-JKFIT
    Number of shells: 126
    Number of basis function: 393
    Number of Cartesian functions: 393
    Spherical Harmonics?: false
    Max angular momentum: 3

  Cached 100.0% of DFT collocation blocks in 0.210 [GiB].

  Minimum eigenvalue in the overlap matrix is 9.9349217114E-03.
  Using Symmetric Orthogonalization.

  SCF Guess: Superposition of Atomic Densities via on-the-fly atomic UHF.

  ==> Iterations <==

                           Total Energy        Delta E     RMS |[F,P]|

   @DF-RKS iter SAD:  -117.48542864220450   -1.17485e+02   0.00000e+00 
   @DF-RKS iter   1:  -117.62511578789558   -1.39687e-01   2.19213e-02 DIIS
   @DF-RKS iter   2:  -117.54114521545020    8.39706e-02   2.55265e-02 DIIS
   @DF-RKS iter   3:  -117.86346608847478   -3.22321e-01   3.52306e-04 DIIS
   @DF-RKS iter   4:  -117.86354336148590   -7.72730e-05   5.21270e-05 DIIS
   @DF-RKS iter   5:  -117.86354482352979   -1.46204e-06   5.82935e-06 DIIS
   @DF-RKS iter   6:  -117.86354483404885   -1.05191e-08   3.82666e-06 DIIS
   @DF-RKS iter   7:  -117.86354484073267   -6.68382e-09   2.11583e-07 DIIS
   @DF-RKS iter   8:  -117.86354484075464   -2.19700e-11   4.64919e-09 DIIS
  Energy and wave function converged.


  ==> Post-Iterations <==

    Orbital Energies [Eh]
    ---------------------

    Doubly Occupied:                                                      

       1Ap   -10.179195     2Ap   -10.178985     3Ap   -10.178964  
       4Ap    -0.849317     5Ap    -0.590971     6Ap    -0.590897  
       1App   -0.491044     7Ap    -0.460769     2App   -0.360202  
       3App   -0.360097     8Ap    -0.290415     9Ap    -0.290027  

    Virtual:                                                              

      10Ap     0.102646     4App    0.109382    11Ap     0.152714  
      12Ap     0.153978    13Ap     0.153998     5App    0.228628  
       6App    0.228695    14Ap     0.256673    15Ap     0.257006  
      16Ap     0.508841     7App    0.580455    17Ap     0.584742  
      18Ap     0.584897    19Ap     0.639098    20Ap     0.639565  
      21Ap     0.704359    22Ap     0.771985     8App    0.804228  
       9App    0.804619    10App    0.924609    23Ap     0.962643  
      24Ap     0.962764    11App    1.015737    12App    1.016300  
      25Ap     1.025650    26Ap     1.307579    27Ap     1.307652  

    Final Occupation by Irrep:
             Ap   App 
    DOCC [     9,    3 ]

  @DF-RKS Final Energy:  -117.86354484075464

   => Energetics <=

    Nuclear Repulsion Energy =             75.2866593043809615
    One-Electron Energy =                -305.8835537248611445
    Two-Electron Energy =                 127.7191926393259251
    DFT Exchange-Correlation Energy =     -14.9858430596004055
    Empirical Dispersion Energy =           0.0000000000000000
    VV10 Nonlocal Energy =                  0.0000000000000000
    Total Energy =                       -117.8635448407546562

Computation Completed


Properties will be evaluated at   0.000000,   0.000000,   0.000000 [a0]

Properties computed using the SCF density matrix

  Nuclear Dipole Moment: [e a0]
     X:     0.0015      Y:    -0.0002      Z:     0.0000

  Electronic Dipole Moment: [e a0]
     X:    -0.0016      Y:     0.0003      Z:     0.0000

  Dipole Moment: [e a0]
     X:    -0.0001      Y:     0.0001      Z:     0.0000     Total:     0.0002

  Dipole Moment: [D]
     X:    -0.0003      Y:     0.0003      Z:     0.0000     Total:     0.0004


*** tstop() called on atlantis at Tue Apr 19 14:29:15 2022
Module time:
	user time   =       2.94 seconds =       0.05 minutes
	system time =       0.04 seconds =       0.00 minutes
	total time  =          3 seconds =       0.05 minutes
Total time:
	user time   =      13.55 seconds =       0.23 minutes
	system time =       0.20 seconds =       0.00 minutes
	total time  =         14 seconds =       0.23 minutes

*** tstart() called on atlantis
*** at Tue Apr 19 14:29:15 2022


         ------------------------------------------------------------
                                   SCF GRAD                          
                          Rob Parrish, Justin Turney,                
                       Andy Simmonett, and Alex Sokolov              
         ------------------------------------------------------------

  ==> Geometry <==

    Molecular point group: cs
    Full point group: Cs

    Geometry (in Angstrom), charge = 0, multiplicity = 1:

       Center              X                  Y                   Z               Mass       
    ------------   -----------------  -----------------  -----------------  -----------------
         C            0.320981935461     0.813179232929     0.000000000000    12.000000000000
         C           -0.864778117207    -0.127947314912     0.000000000000    12.000000000000
         C            0.543659460418    -0.685217540638     0.000000000000    12.000000000000
         H            0.538602639069     1.360553886373    -0.920390000000     1.007825032230
         H            0.538602639069     1.360553886373     0.920390000000     1.007825032230
         H           -1.447170192407    -0.214118381478     0.920340000000     1.007825032230
         H           -1.447170192407    -0.214118381478    -0.920340000000     1.007825032230
         H            0.909381512053    -1.146521099385    -0.920370000000     1.007825032230
         H            0.909381512053    -1.146521099385     0.920370000000     1.007825032230

  Nuclear repulsion =   75.286659304380962

  ==> Basis Set <==

  Basis Set: 6-31G
    Blend: 6-31G
    Number of shells: 27
    Number of basis function: 39
    Number of Cartesian functions: 39
    Spherical Harmonics?: false
    Max angular momentum: 1

  ==> DFJKGrad: Density-Fitted SCF Gradients <==

    Gradient:                    1
    J tasked:                  Yes
    K tasked:                  Yes
    wK tasked:                  No
    OpenMP threads:              1
    Integrals threads:           1
    Memory [MiB]:              375
    Schwarz Cutoff:          0E+00
    Fitting Condition:       1E-10

   => Auxiliary Basis Set <=

  Basis Set: (6-31G AUX)
    Blend: CC-PVDZ-JKFIT
    Number of shells: 126
    Number of basis function: 393
    Number of Cartesian functions: 393
    Spherical Harmonics?: false
    Max angular momentum: 3

  ==> DFT Potential <==

   => Composite Functional: B3LYP <= 

    B3LYP Hyb-GGA Exchange-Correlation Functional

    P. J. Stephens, F. J. Devlin, C. F. Chabalowski, and M. J. Frisch, J. Phys. Chem. 98, 11623 (1994)

    Deriv               =              1
    GGA                 =           TRUE
    Meta                =          FALSE

    Exchange Hybrid     =           TRUE
    MP2 Hybrid          =          FALSE

   => Exchange Functionals <=

    0.0800   Slater exchange
    0.7200         Becke 88

   => Exact (HF) Exchange <=

    0.2000               HF 

   => Correlation Functionals <=

    0.1900   Vosko, Wilk & Nusair (VWN5_RPA)
    0.8100   Lee, Yang & Parr

   => Molecular Quadrature <=

    Radial Scheme          =       TREUTLER
    Pruning Scheme         =           FLAT
    Nuclear Scheme         =       TREUTLER

    BS radius alpha        =              1
    Pruning alpha          =              1
    Radial Points          =             75
    Spherical Points       =            302
    Total Points           =         198412
    Total Blocks           =           1546
    Max Points             =            256
    Max Functions          =             39


  -Total Gradient:
     Atom            X                  Y                   Z
    ------   -----------------  -----------------  -----------------
       1       -0.003084951589    -0.006627877104     0.000000000000
       2        0.007058037150     0.001153634090     0.000000000000
       3       -0.004200200100     0.005363550075     0.000000000000
       4        0.000471420102     0.000992316720    -0.005515380411
       5        0.000471420102     0.000992316720     0.005515380411
       6       -0.000980553191    -0.000124916631     0.005420205858
       7       -0.000980553191    -0.000124916631    -0.005420205858
       8        0.000620507194    -0.000814768268    -0.005416707675
       9        0.000620507194    -0.000814768268     0.005416707675


*** tstop() called on atlantis at Tue Apr 19 14:29:16 2022
Module time:
	user time   =       0.69 seconds =       0.01 minutes
	system time =       0.01 seconds =       0.00 minutes
	total time  =          1 seconds =       0.02 minutes
Total time:
	user time   =      14.24 seconds =       0.24 minutes
	system time =       0.21 seconds =       0.00 minutes
	total time  =         15 seconds =       0.25 minutes

  //>>>>>>>>>>>>>>>>>>>>>>>>>>>>>>>>>>>//
  //    Loading displacement 3 of 34   //
  //<<<<<<<<<<<<<<<<<<<<<<<<<<<<<<<<<<<//
gradient() will perform analytic gradient computation.

*** tstart() called on atlantis
*** at Tue Apr 19 14:29:16 2022

   => Loading Basis Set <=

    Name: 6-31G
    Role: ORBITAL
    Keyword: BASIS
    atoms 1-3 entry C          line    87 file /home/akrom/software/anaconda3/envs/ffpenv/share/psi4/basis/6-31g.gbs 
    atoms 4-9 entry H          line    26 file /home/akrom/software/anaconda3/envs/ffpenv/share/psi4/basis/6-31g.gbs 


         ---------------------------------------------------------
                                   SCF
               by Justin Turney, Rob Parrish, Andy Simmonett
                          and Daniel G. A. Smith
                              RKS Reference
                        1 Threads,    500 MiB Core
         ---------------------------------------------------------

  ==> Geometry <==

    Molecular point group: cs
    Full point group: Cs

    Geometry (in Angstrom), charge = 0, multiplicity = 1:

       Center              X                  Y                   Z               Mass       
    ------------   -----------------  -----------------  -----------------  -----------------
         C            0.322081944250     0.813343688021     0.000000000000    12.000000000000
         C           -0.865318003082    -0.128389764139     0.000000000000    12.000000000000
         C            0.543404419293    -0.684939538412     0.000000000000    12.000000000000
         H            0.537301240642     1.360829034576    -0.920390000000     1.007825032230
         H            0.537301240642     1.360829034576     0.920390000000     1.007825032230
         H           -1.447665927882    -0.214858697572     0.920340000000     1.007825032230
         H           -1.447665927882    -0.214858697572    -0.920340000000     1.007825032230
         H            0.909362367658    -1.146055979665    -0.920370000000     1.007825032230
         H            0.909362367658    -1.146055979665     0.920370000000     1.007825032230

  Running in cs symmetry.

  Rotational constants: A =      0.66489  B =      0.66431  C =      0.41639 [cm^-1]
  Rotational constants: A =  19932.94970  B =  19915.53021  C =  12482.92073 [MHz]
  Nuclear repulsion =   75.276267816162189

  Charge       = 0
  Multiplicity = 1
  Electrons    = 24
  Nalpha       = 12
  Nbeta        = 12

  ==> Algorithm <==

  SCF Algorithm Type is DF.
  DIIS enabled.
  MOM disabled.
  Fractional occupation disabled.
  Guess Type is SAD.
  Energy threshold   = 1.00e-08
  Density threshold  = 1.00e-08
  Integral threshold = 0.00e+00

  ==> Primary Basis <==

  Basis Set: 6-31G
    Blend: 6-31G
    Number of shells: 27
    Number of basis function: 39
    Number of Cartesian functions: 39
    Spherical Harmonics?: false
    Max angular momentum: 1

  ==> DFT Potential <==

   => Composite Functional: B3LYP <= 

    B3LYP Hyb-GGA Exchange-Correlation Functional

    P. J. Stephens, F. J. Devlin, C. F. Chabalowski, and M. J. Frisch, J. Phys. Chem. 98, 11623 (1994)

    Deriv               =              1
    GGA                 =           TRUE
    Meta                =          FALSE

    Exchange Hybrid     =           TRUE
    MP2 Hybrid          =          FALSE

   => Exchange Functionals <=

    0.0800   Slater exchange
    0.7200         Becke 88

   => Exact (HF) Exchange <=

    0.2000               HF 

   => Correlation Functionals <=

    0.1900   Vosko, Wilk & Nusair (VWN5_RPA)
    0.8100   Lee, Yang & Parr

   => Molecular Quadrature <=

    Radial Scheme          =       TREUTLER
    Pruning Scheme         =           FLAT
    Nuclear Scheme         =       TREUTLER

    BS radius alpha        =              1
    Pruning alpha          =              1
    Radial Points          =             75
    Spherical Points       =            302
    Total Points           =         198423
    Total Blocks           =           1548
    Max Points             =            256
    Max Functions          =             39

   => Loading Basis Set <=

    Name: (6-31G AUX)
    Role: JKFIT
    Keyword: DF_BASIS_SCF
    atoms 1-3 entry C          line   121 file /home/akrom/software/anaconda3/envs/ffpenv/share/psi4/basis/cc-pvdz-jkfit.gbs 
    atoms 4-9 entry H          line    51 file /home/akrom/software/anaconda3/envs/ffpenv/share/psi4/basis/cc-pvdz-jkfit.gbs 

  ==> Pre-Iterations <==

   -------------------------------------------------------
    Irrep   Nso     Nmo     Nalpha   Nbeta   Ndocc  Nsocc
   -------------------------------------------------------
     A'        27      27       0       0       0       0
     A"        12      12       0       0       0       0
   -------------------------------------------------------
    Total      39      39      12      12      12       0
   -------------------------------------------------------

  ==> Integral Setup <==

  DFHelper Memory: AOs need 0.006 GiB; user supplied 0.156 GiB. Using in-core AOs.

  ==> MemDFJK: Density-Fitted J/K Matrices <==

    J tasked:                   Yes
    K tasked:                   Yes
    wK tasked:                   No
    OpenMP threads:               1
    Memory [MiB]:               160
    Algorithm:                 Core
    Schwarz Cutoff:           1E-12
    Mask sparsity (%):       0.0000
    Fitting Condition:        1E-10

   => Auxiliary Basis Set <=

  Basis Set: (6-31G AUX)
    Blend: CC-PVDZ-JKFIT
    Number of shells: 126
    Number of basis function: 393
    Number of Cartesian functions: 393
    Spherical Harmonics?: false
    Max angular momentum: 3

  Cached 100.0% of DFT collocation blocks in 0.210 [GiB].

  Minimum eigenvalue in the overlap matrix is 9.9459059171E-03.
  Using Symmetric Orthogonalization.

  SCF Guess: Superposition of Atomic Densities via on-the-fly atomic UHF.

  ==> Iterations <==

                           Total Energy        Delta E     RMS |[F,P]|

   @DF-RKS iter SAD:  -117.48444414721541   -1.17484e+02   0.00000e+00 
   @DF-RKS iter   1:  -117.62534217835687   -1.40898e-01   2.19110e-02 DIIS
   @DF-RKS iter   2:  -117.54169126771237    8.36509e-02   2.55055e-02 DIIS
   @DF-RKS iter   3:  -117.86347831286406   -3.21787e-01   3.52133e-04 DIIS
   @DF-RKS iter   4:  -117.86355550656283   -7.71937e-05   5.20733e-05 DIIS
   @DF-RKS iter   5:  -117.86355696606887   -1.45951e-06   5.77391e-06 DIIS
   @DF-RKS iter   6:  -117.86355697663063   -1.05618e-08   3.72765e-06 DIIS
   @DF-RKS iter   7:  -117.86355698297081   -6.34017e-09   2.16095e-07 DIIS
   @DF-RKS iter   8:  -117.86355698299352   -2.27089e-11   4.65156e-09 DIIS
  Energy and wave function converged.


  ==> Post-Iterations <==

    Orbital Energies [Eh]
    ---------------------

    Doubly Occupied:                                                      

       1Ap   -10.179212     2Ap   -10.179001     3Ap   -10.178982  
       4Ap    -0.849108     5Ap    -0.591008     6Ap    -0.590928  
       1App   -0.491027     7Ap    -0.460674     2App   -0.360301  
       3App   -0.360185     8Ap    -0.290346     9Ap    -0.289960  

    Virtual:                                                              

      10Ap     0.102655     4App    0.109490    11Ap     0.152551  
      12Ap     0.153975    13Ap     0.153993     5App    0.228641  
       6App    0.228702    14Ap     0.256551    15Ap     0.256873  
      16Ap     0.508940     7App    0.580350    17Ap     0.584803  
      18Ap     0.584971    19Ap     0.638790    20Ap     0.639248  
      21Ap     0.704272    22Ap     0.772128     8App    0.804255  
       9App    0.804683    10App    0.924811    23Ap     0.962755  
      24Ap     0.962865    11App    1.015822    12App    1.016456  
      25Ap     1.025823    26Ap     1.307406    27Ap     1.307492  

    Final Occupation by Irrep:
             Ap   App 
    DOCC [     9,    3 ]

  @DF-RKS Final Energy:  -117.86355698299352

   => Energetics <=

    Nuclear Repulsion Energy =             75.2762678161621892
    One-Electron Energy =                -305.8631883539969749
    Two-Electron Energy =                 127.7090642580895832
    DFT Exchange-Correlation Energy =     -14.9857007032483320
    Empirical Dispersion Energy =           0.0000000000000000
    VV10 Nonlocal Energy =                  0.0000000000000000
    Total Energy =                       -117.8635569829935150

Computation Completed


Properties will be evaluated at   0.000000,   0.000000,   0.000000 [a0]

Properties computed using the SCF density matrix

  Nuclear Dipole Moment: [e a0]
     X:    -0.0019      Y:    -0.0002      Z:     0.0000

  Electronic Dipole Moment: [e a0]
     X:     0.0019      Y:    -0.0000      Z:     0.0000

  Dipole Moment: [e a0]
     X:     0.0000      Y:    -0.0002      Z:     0.0000     Total:     0.0002

  Dipole Moment: [D]
     X:     0.0001      Y:    -0.0005      Z:     0.0000     Total:     0.0005


*** tstop() called on atlantis at Tue Apr 19 14:29:19 2022
Module time:
	user time   =       2.96 seconds =       0.05 minutes
	system time =       0.00 seconds =       0.00 minutes
	total time  =          3 seconds =       0.05 minutes
Total time:
	user time   =      17.21 seconds =       0.29 minutes
	system time =       0.21 seconds =       0.00 minutes
	total time  =         18 seconds =       0.30 minutes

*** tstart() called on atlantis
*** at Tue Apr 19 14:29:19 2022


         ------------------------------------------------------------
                                   SCF GRAD                          
                          Rob Parrish, Justin Turney,                
                       Andy Simmonett, and Alex Sokolov              
         ------------------------------------------------------------

  ==> Geometry <==

    Molecular point group: cs
    Full point group: Cs

    Geometry (in Angstrom), charge = 0, multiplicity = 1:

       Center              X                  Y                   Z               Mass       
    ------------   -----------------  -----------------  -----------------  -----------------
         C            0.322081944250     0.813343688021     0.000000000000    12.000000000000
         C           -0.865318003082    -0.128389764139     0.000000000000    12.000000000000
         C            0.543404419293    -0.684939538412     0.000000000000    12.000000000000
         H            0.537301240642     1.360829034576    -0.920390000000     1.007825032230
         H            0.537301240642     1.360829034576     0.920390000000     1.007825032230
         H           -1.447665927882    -0.214858697572     0.920340000000     1.007825032230
         H           -1.447665927882    -0.214858697572    -0.920340000000     1.007825032230
         H            0.909362367658    -1.146055979665    -0.920370000000     1.007825032230
         H            0.909362367658    -1.146055979665     0.920370000000     1.007825032230

  Nuclear repulsion =   75.276267816162189

  ==> Basis Set <==

  Basis Set: 6-31G
    Blend: 6-31G
    Number of shells: 27
    Number of basis function: 39
    Number of Cartesian functions: 39
    Spherical Harmonics?: false
    Max angular momentum: 1

  ==> DFJKGrad: Density-Fitted SCF Gradients <==

    Gradient:                    1
    J tasked:                  Yes
    K tasked:                  Yes
    wK tasked:                  No
    OpenMP threads:              1
    Integrals threads:           1
    Memory [MiB]:              375
    Schwarz Cutoff:          0E+00
    Fitting Condition:       1E-10

   => Auxiliary Basis Set <=

  Basis Set: (6-31G AUX)
    Blend: CC-PVDZ-JKFIT
    Number of shells: 126
    Number of basis function: 393
    Number of Cartesian functions: 393
    Spherical Harmonics?: false
    Max angular momentum: 3

  ==> DFT Potential <==

   => Composite Functional: B3LYP <= 

    B3LYP Hyb-GGA Exchange-Correlation Functional

    P. J. Stephens, F. J. Devlin, C. F. Chabalowski, and M. J. Frisch, J. Phys. Chem. 98, 11623 (1994)

    Deriv               =              1
    GGA                 =           TRUE
    Meta                =          FALSE

    Exchange Hybrid     =           TRUE
    MP2 Hybrid          =          FALSE

   => Exchange Functionals <=

    0.0800   Slater exchange
    0.7200         Becke 88

   => Exact (HF) Exchange <=

    0.2000               HF 

   => Correlation Functionals <=

    0.1900   Vosko, Wilk & Nusair (VWN5_RPA)
    0.8100   Lee, Yang & Parr

   => Molecular Quadrature <=

    Radial Scheme          =       TREUTLER
    Pruning Scheme         =           FLAT
    Nuclear Scheme         =       TREUTLER

    BS radius alpha        =              1
    Pruning alpha          =              1
    Radial Points          =             75
    Spherical Points       =            302
    Total Points           =         198423
    Total Blocks           =           1548
    Max Points             =            256
    Max Functions          =             39


  -Total Gradient:
     Atom            X                  Y                   Z
    ------   -----------------  -----------------  -----------------
       1       -0.001938656790    -0.006092972355     0.000000000000
       2        0.006492705261     0.000872005992     0.000000000000
       3       -0.004285239735     0.005366379340     0.000000000000
       4        0.000264248118     0.000873765204    -0.005333117497
       5        0.000264248118     0.000873765204     0.005333117497
       6       -0.001021103006    -0.000177334345     0.005406510567
       7       -0.001021103006    -0.000177334345    -0.005406510567
       8        0.000620599059    -0.000771112168    -0.005421353453
       9        0.000620599059    -0.000771112168     0.005421353453


*** tstop() called on atlantis at Tue Apr 19 14:29:19 2022
Module time:
	user time   =       0.70 seconds =       0.01 minutes
	system time =       0.00 seconds =       0.00 minutes
	total time  =          0 seconds =       0.00 minutes
Total time:
	user time   =      17.91 seconds =       0.30 minutes
	system time =       0.21 seconds =       0.00 minutes
	total time  =         18 seconds =       0.30 minutes

  //>>>>>>>>>>>>>>>>>>>>>>>>>>>>>>>>>>>//
  //    Loading displacement 4 of 34   //
  //<<<<<<<<<<<<<<<<<<<<<<<<<<<<<<<<<<<//
gradient() will perform analytic gradient computation.

*** tstart() called on atlantis
*** at Tue Apr 19 14:29:19 2022

   => Loading Basis Set <=

    Name: 6-31G
    Role: ORBITAL
    Keyword: BASIS
    atoms 1-3 entry C          line    87 file /home/akrom/software/anaconda3/envs/ffpenv/share/psi4/basis/6-31g.gbs 
    atoms 4-9 entry H          line    26 file /home/akrom/software/anaconda3/envs/ffpenv/share/psi4/basis/6-31g.gbs 


         ---------------------------------------------------------
                                   SCF
               by Justin Turney, Rob Parrish, Andy Simmonett
                          and Daniel G. A. Smith
                              RKS Reference
                        1 Threads,    500 MiB Core
         ---------------------------------------------------------

  ==> Geometry <==

    Molecular point group: cs
    Full point group: Cs

    Geometry (in Angstrom), charge = 0, multiplicity = 1:

       Center              X                  Y                   Z               Mass       
    ------------   -----------------  -----------------  -----------------  -----------------
         C            0.321531939855     0.812635159068     0.000000000000    12.000000000000
         C           -0.865072120902    -0.128008550426     0.000000000000    12.000000000000
         C            0.543576026536    -0.684746186637     0.000000000000    12.000000000000
         H            0.537745691682     1.361023130555    -0.920390000000     1.007825032230
         H            0.537745691682     1.361023130555     0.920390000000     1.007825032230
         H           -1.447431558178    -0.214399813329     0.920340000000     1.007825032230
         H           -1.447431558178    -0.214399813329    -0.920340000000     1.007825032230
         H            0.909472463446    -1.145911419873    -0.920370000000     1.007825032230
         H            0.909472463446    -1.145911419873     0.920370000000     1.007825032230

  Running in cs symmetry.

  Rotational constants: A =      0.66518  B =      0.66468  C =      0.41665 [cm^-1]
  Rotational constants: A =  19941.69418  B =  19926.66026  C =  12490.72376 [MHz]
  Nuclear repulsion =   75.292327113354389

  Charge       = 0
  Multiplicity = 1
  Electrons    = 24
  Nalpha       = 12
  Nbeta        = 12

  ==> Algorithm <==

  SCF Algorithm Type is DF.
  DIIS enabled.
  MOM disabled.
  Fractional occupation disabled.
  Guess Type is SAD.
  Energy threshold   = 1.00e-08
  Density threshold  = 1.00e-08
  Integral threshold = 0.00e+00

  ==> Primary Basis <==

  Basis Set: 6-31G
    Blend: 6-31G
    Number of shells: 27
    Number of basis function: 39
    Number of Cartesian functions: 39
    Spherical Harmonics?: false
    Max angular momentum: 1

  ==> DFT Potential <==

   => Composite Functional: B3LYP <= 

    B3LYP Hyb-GGA Exchange-Correlation Functional

    P. J. Stephens, F. J. Devlin, C. F. Chabalowski, and M. J. Frisch, J. Phys. Chem. 98, 11623 (1994)

    Deriv               =              1
    GGA                 =           TRUE
    Meta                =          FALSE

    Exchange Hybrid     =           TRUE
    MP2 Hybrid          =          FALSE

   => Exchange Functionals <=

    0.0800   Slater exchange
    0.7200         Becke 88

   => Exact (HF) Exchange <=

    0.2000               HF 

   => Correlation Functionals <=

    0.1900   Vosko, Wilk & Nusair (VWN5_RPA)
    0.8100   Lee, Yang & Parr

   => Molecular Quadrature <=

    Radial Scheme          =       TREUTLER
    Pruning Scheme         =           FLAT
    Nuclear Scheme         =       TREUTLER

    BS radius alpha        =              1
    Pruning alpha          =              1
    Radial Points          =             75
    Spherical Points       =            302
    Total Points           =         198410
    Total Blocks           =           1567
    Max Points             =            256
    Max Functions          =             39

   => Loading Basis Set <=

    Name: (6-31G AUX)
    Role: JKFIT
    Keyword: DF_BASIS_SCF
    atoms 1-3 entry C          line   121 file /home/akrom/software/anaconda3/envs/ffpenv/share/psi4/basis/cc-pvdz-jkfit.gbs 
    atoms 4-9 entry H          line    51 file /home/akrom/software/anaconda3/envs/ffpenv/share/psi4/basis/cc-pvdz-jkfit.gbs 

  ==> Pre-Iterations <==

   -------------------------------------------------------
    Irrep   Nso     Nmo     Nalpha   Nbeta   Ndocc  Nsocc
   -------------------------------------------------------
     A'        27      27       0       0       0       0
     A"        12      12       0       0       0       0
   -------------------------------------------------------
    Total      39      39      12      12      12       0
   -------------------------------------------------------

  ==> Integral Setup <==

  DFHelper Memory: AOs need 0.006 GiB; user supplied 0.156 GiB. Using in-core AOs.

  ==> MemDFJK: Density-Fitted J/K Matrices <==

    J tasked:                   Yes
    K tasked:                   Yes
    wK tasked:                   No
    OpenMP threads:               1
    Memory [MiB]:               159
    Algorithm:                 Core
    Schwarz Cutoff:           1E-12
    Mask sparsity (%):       0.0000
    Fitting Condition:        1E-10

   => Auxiliary Basis Set <=

  Basis Set: (6-31G AUX)
    Blend: CC-PVDZ-JKFIT
    Number of shells: 126
    Number of basis function: 393
    Number of Cartesian functions: 393
    Spherical Harmonics?: false
    Max angular momentum: 3

  Cached 100.0% of DFT collocation blocks in 0.210 [GiB].

  Minimum eigenvalue in the overlap matrix is 9.9308781333E-03.
  Using Symmetric Orthogonalization.

  SCF Guess: Superposition of Atomic Densities via on-the-fly atomic UHF.

  ==> Iterations <==

                           Total Energy        Delta E     RMS |[F,P]|

   @DF-RKS iter SAD:  -117.48595994666586   -1.17486e+02   0.00000e+00 
   @DF-RKS iter   1:  -117.62499116984580   -1.39031e-01   2.19269e-02 DIIS
   @DF-RKS iter   2:  -117.54084458096955    8.41466e-02   2.55381e-02 DIIS
   @DF-RKS iter   3:  -117.86345835100015   -3.22614e-01   3.52417e-04 DIIS
   @DF-RKS iter   4:  -117.86353567193797   -7.73209e-05   5.22039e-05 DIIS
   @DF-RKS iter   5:  -117.86353713466977   -1.46273e-06   6.38922e-06 DIIS
   @DF-RKS iter   6:  -117.86353714495759   -1.02878e-08   4.68729e-06 DIIS
   @DF-RKS iter   7:  -117.86353715500086   -1.00433e-08   1.73881e-07 DIIS
   @DF-RKS iter   8:  -117.86353715501632   -1.54614e-11   5.08373e-09 DIIS
  Energy and wave function converged.


  ==> Post-Iterations <==

    Orbital Energies [Eh]
    ---------------------

    Doubly Occupied:                                                      

       1Ap   -10.179189     2Ap   -10.178981     3Ap   -10.178947  
       4Ap    -0.849433     5Ap    -0.590985     6Ap    -0.590846  
       1App   -0.491053     7Ap    -0.460822     2App   -0.360197  
       3App   -0.360000     8Ap    -0.290397     9Ap    -0.290121  

    Virtual:                                                              

      10Ap     0.102639     4App    0.109323    11Ap     0.152802  
      12Ap     0.153968    13Ap     0.154012     5App    0.228644  
       6App    0.228671    14Ap     0.256765    15Ap     0.257053  
      16Ap     0.508787     7App    0.580519    17Ap     0.584674  
      18Ap     0.584893    19Ap     0.639287    20Ap     0.639715  
      21Ap     0.704409    22Ap     0.771913     8App    0.804294  
       9App    0.804511    10App    0.924502    23Ap     0.962523  
      24Ap     0.962769    11App    1.015782    12App    1.016130  
      25Ap     1.025557    26Ap     1.307689    27Ap     1.307726  

    Final Occupation by Irrep:
             Ap   App 
    DOCC [     9,    3 ]

  @DF-RKS Final Energy:  -117.86353715501632

   => Energetics <=

    Nuclear Repulsion Energy =             75.2923271133543892
    One-Electron Energy =                -305.8946508831643314
    Two-Electron Energy =                 127.7247078003451151
    DFT Exchange-Correlation Energy =     -14.9859211855514900
    Empirical Dispersion Energy =           0.0000000000000000
    VV10 Nonlocal Energy =                  0.0000000000000000
    Total Energy =                       -117.8635371550163171

Computation Completed


Properties will be evaluated at   0.000000,   0.000000,   0.000000 [a0]

Properties computed using the SCF density matrix

  Nuclear Dipole Moment: [e a0]
     X:    -0.0004      Y:     0.0013      Z:     0.0000

  Electronic Dipole Moment: [e a0]
     X:     0.0005      Y:    -0.0011      Z:     0.0000

  Dipole Moment: [e a0]
     X:     0.0001      Y:     0.0002      Z:     0.0000     Total:     0.0002

  Dipole Moment: [D]
     X:     0.0003      Y:     0.0005      Z:     0.0000     Total:     0.0006


*** tstop() called on atlantis at Tue Apr 19 14:29:22 2022
Module time:
	user time   =       2.98 seconds =       0.05 minutes
	system time =       0.04 seconds =       0.00 minutes
	total time  =          3 seconds =       0.05 minutes
Total time:
	user time   =      20.90 seconds =       0.35 minutes
	system time =       0.25 seconds =       0.00 minutes
	total time  =         21 seconds =       0.35 minutes

*** tstart() called on atlantis
*** at Tue Apr 19 14:29:22 2022


         ------------------------------------------------------------
                                   SCF GRAD                          
                          Rob Parrish, Justin Turney,                
                       Andy Simmonett, and Alex Sokolov              
         ------------------------------------------------------------

  ==> Geometry <==

    Molecular point group: cs
    Full point group: Cs

    Geometry (in Angstrom), charge = 0, multiplicity = 1:

       Center              X                  Y                   Z               Mass       
    ------------   -----------------  -----------------  -----------------  -----------------
         C            0.321531939855     0.812635159068     0.000000000000    12.000000000000
         C           -0.865072120902    -0.128008550426     0.000000000000    12.000000000000
         C            0.543576026536    -0.684746186637     0.000000000000    12.000000000000
         H            0.537745691682     1.361023130555    -0.920390000000     1.007825032230
         H            0.537745691682     1.361023130555     0.920390000000     1.007825032230
         H           -1.447431558178    -0.214399813329     0.920340000000     1.007825032230
         H           -1.447431558178    -0.214399813329    -0.920340000000     1.007825032230
         H            0.909472463446    -1.145911419873    -0.920370000000     1.007825032230
         H            0.909472463446    -1.145911419873     0.920370000000     1.007825032230

[...]
    MP2 Hybrid          =          FALSE

   => Exchange Functionals <=

    0.0800   Slater exchange
    0.7200         Becke 88

   => Exact (HF) Exchange <=

    0.2000               HF 

   => Correlation Functionals <=

    0.1900   Vosko, Wilk & Nusair (VWN5_RPA)
    0.8100   Lee, Yang & Parr

   => Molecular Quadrature <=

    Radial Scheme          =       TREUTLER
    Pruning Scheme         =           FLAT
    Nuclear Scheme         =       TREUTLER

    BS radius alpha        =              1
    Pruning alpha          =              1
    Radial Points          =             75
    Spherical Points       =            302
    Total Points           =         198442
    Total Blocks           =           1549
    Max Points             =            256
    Max Functions          =             39


  -Total Gradient:
     Atom            X                  Y                   Z
    ------   -----------------  -----------------  -----------------
       1       -0.002516799373    -0.006351438196    -0.000000457911
       2        0.006788465626     0.001009991136     0.000427696607
       3       -0.004247709281     0.005364556925    -0.001220627865
       4        0.000364479117     0.000926997627    -0.005424580449
       5        0.000370205318     0.000939170218     0.005422831725
       6       -0.000825380189    -0.000148214240     0.005136723178
       7       -0.001175479554    -0.000155672377    -0.005690705017
       8        0.000250723687    -0.000424670802    -0.004742793150
       9        0.000991314789    -0.001156074750     0.006092076762


*** tstop() called on atlantis at Tue Apr 19 14:31:17 2022
Module time:
	user time   =       0.71 seconds =       0.01 minutes
	system time =       0.00 seconds =       0.00 minutes
	total time  =          0 seconds =       0.00 minutes
Total time:
	user time   =     134.39 seconds =       2.24 minutes
	system time =       1.18 seconds =       0.02 minutes
	total time  =        136 seconds =       2.27 minutes

         ----------------------------------------------------------
                                   FINDIF
                     R. A. King and Jonathon Misiewicz
         ---------------------------------------------------------

  Computing second-derivative from gradients using projected, 
  symmetry-adapted, cartesian coordinates.

  34 gradients passed in, including the reference geometry.
  Generating complete list of displacements from unique ones.

    Operation 2 takes plus displacements of irrep A" to minus ones.

-------------------------------------------------------------


  ==> Harmonic Vibrational Analysis <==

  non-mass-weighted Hessian:       Symmetric? True   Hermitian? True   Lin Dep Dim?  6 (0)
  projection of translations (True) and rotations (True) removed 6 degrees of freedom (6)
  total projector:                 Symmetric? True   Hermitian? True   Lin Dep Dim?  6 (6)
  mass-weighted Hessian:           Symmetric? True   Hermitian? True   Lin Dep Dim?  6 (0)
  pre-proj  low-frequency mode:    0.0000i [cm^-1]
  pre-proj  low-frequency mode:    0.0000i [cm^-1]
  pre-proj  low-frequency mode:    0.0000i [cm^-1]
  pre-proj  low-frequency mode:    0.0000  [cm^-1]
  pre-proj  low-frequency mode:    0.0000  [cm^-1]
  pre-proj  low-frequency mode:    0.0000  [cm^-1]
  pre-proj  all modes:['0.0000i' '0.0000i' '0.0000i' '0.0000' '0.0000' '0.0000' '816.6093'
 '816.7745' '892.9549' '893.9843' '924.4016' '1121.4231' '1124.3003'
 '1167.9575' '1188.6086' '1236.5098' '1258.6115' '1258.7336' '1526.5252'
 '1526.8056' '1558.0920' '3084.8291' '3085.0771' '3096.4508' '3165.4879'
 '3165.5116' '3190.6334']
  projected mass-weighted Hessian: Symmetric? True   Hermitian? True   Lin Dep Dim?  6 (6)
  post-proj low-frequency mode:    0.0000i [cm^-1] (TR)
  post-proj low-frequency mode:    0.0000i [cm^-1] (TR)
  post-proj low-frequency mode:    0.0000i [cm^-1] (TR)
  post-proj low-frequency mode:    0.0000i [cm^-1] (TR)
  post-proj low-frequency mode:    0.0000  [cm^-1] (TR)
  post-proj low-frequency mode:    0.0000  [cm^-1] (TR)
  post-proj  all modes:['0.0000i' '0.0000i' '0.0000i' '0.0000i' '0.0000' '0.0000' '816.6093'
 '816.7745' '892.9549' '893.9843' '924.4016' '1121.4231' '1124.3003'
 '1167.9575' '1188.6086' '1236.5098' '1258.6115' '1258.7336' '1526.5252'
 '1526.8056' '1558.0920' '3084.8291' '3085.0771' '3096.4508' '3165.4879'
 '3165.5116' '3190.6334']

  Vibration                       7                   8                   9           
  Freq [cm^-1]                 816.6093            816.7745            892.9549       
  Irrep                          App                 App                  Ap          
  Reduced mass [u]              1.0194              1.0195              3.9984        
  Force const [mDyne/A]         0.4005              0.4007              1.8784        
  Turning point v=0 [a0]        0.3803              0.3803              0.1836        
  RMS dev v=0 [a0 u^1/2]        0.2715              0.2715              0.2596        
  Char temp [K]               1174.9190           1175.1567           1284.7632       
  ----------------------------------------------------------------------------------
      1   C               -0.00  0.00  0.03   -0.00  0.00 -0.00   -0.20  0.21  0.00   
      2   C                0.00 -0.00 -0.01    0.00  0.00 -0.02    0.30  0.08  0.00   
      3   C               -0.00 -0.00 -0.01   -0.00 -0.00  0.02   -0.06 -0.29 -0.00   
      4   H               -0.10 -0.30 -0.18    0.42 -0.15  0.01   -0.32  0.24 -0.01   
      5   H                0.10  0.30 -0.18   -0.42  0.15  0.01   -0.32  0.24  0.01   
      6   H                0.22 -0.35  0.10    0.23  0.28  0.15    0.25  0.09 -0.04   
      7   H               -0.22  0.35  0.10   -0.23 -0.28  0.15    0.25  0.09  0.04   
      8   H                0.40  0.14  0.08   -0.01  0.35 -0.16   -0.16 -0.33 -0.02   
      9   H               -0.40 -0.14  0.08    0.01 -0.35 -0.16   -0.16 -0.33  0.02   

  Vibration                       10                  11                  12          
  Freq [cm^-1]                 893.9843            924.4016           1121.4231       
  Irrep                           Ap                 App                  Ap          
  Reduced mass [u]              4.0084              1.0451              1.2378        
  Force const [mDyne/A]         1.8875              0.5262              0.9172        
  Turning point v=0 [a0]        0.1833              0.3530              0.2945        
  RMS dev v=0 [a0 u^1/2]        0.2595              0.2552              0.2317        
  Char temp [K]               1286.2443           1330.0081           1613.4781       
  ----------------------------------------------------------------------------------
      1   C               -0.21 -0.23  0.00   -0.00  0.00 -0.03    0.05  0.00 -0.00   
      2   C               -0.08  0.28  0.00    0.00  0.00 -0.03    0.02 -0.11 -0.00   
      3   C                0.29 -0.09  0.00    0.00 -0.00 -0.03   -0.07 -0.03  0.00   
      4   H               -0.24 -0.16  0.03    0.13  0.33  0.20   -0.21  0.07 -0.02   
      5   H               -0.24 -0.16 -0.03   -0.13 -0.33  0.20   -0.21  0.07  0.02   
      6   H               -0.09  0.40  0.00    0.35  0.05  0.20   -0.09  0.56 -0.00   
      7   H               -0.09  0.40 -0.00   -0.35 -0.05  0.20   -0.09  0.56  0.00   
      8   H                0.33 -0.01 -0.03    0.22 -0.28  0.20    0.28  0.21  0.01   
      9   H                0.33 -0.01  0.03   -0.22  0.28  0.20    0.28  0.21 -0.01   

  Vibration                       13                  14                  15          
  Freq [cm^-1]                1124.3003           1167.9575           1188.6086       
  Irrep                           Ap                  Ap                 App          
  Reduced mass [u]              1.2394              1.4255              1.0078        
  Force const [mDyne/A]         0.9231              1.1457              0.8389        
  Turning point v=0 [a0]        0.2939              0.2689              0.3170        
  RMS dev v=0 [a0 u^1/2]        0.2314              0.2270              0.2250        
  Char temp [K]               1617.6178           1680.4308           1710.1431       
  ----------------------------------------------------------------------------------
      1   C               -0.10  0.05 -0.00    0.10 -0.04 -0.00    0.00  0.00 -0.00   
      2   C                0.02  0.02 -0.00   -0.01  0.11  0.00   -0.00  0.00  0.00   
      3   C               -0.06 -0.07  0.00   -0.09 -0.07  0.00    0.00  0.00 -0.00   
      4   H                0.49 -0.20 -0.01   -0.37  0.14 -0.00   -0.38  0.15  0.00   
      5   H                0.49 -0.20  0.01   -0.37  0.14  0.00    0.38 -0.15  0.00   
      6   H                0.00 -0.07 -0.02    0.06 -0.40  0.00   -0.06  0.40 -0.00   
      7   H                0.00 -0.07  0.02    0.06 -0.40 -0.00    0.06 -0.40 -0.00   
      8   H                0.35  0.28 -0.01    0.32  0.25 -0.00    0.32  0.25  0.00   
      9   H                0.35  0.28  0.01    0.32  0.25  0.00   -0.32 -0.25  0.00   

  Vibration                       16                  17                  18          
  Freq [cm^-1]                1236.5098           1258.6115           1258.7336       
  Irrep                           Ap                 App                 App          
  Reduced mass [u]              3.0429              1.4601              1.4600        
  Force const [mDyne/A]         2.7411              1.3627              1.3629        
  Turning point v=0 [a0]        0.1789              0.2560              0.2560        
  RMS dev v=0 [a0 u^1/2]        0.2206              0.2187              0.2187        
  Char temp [K]               1779.0623           1810.8618           1811.0374       
  ----------------------------------------------------------------------------------
      1   C               -0.09 -0.23 -0.00    0.00 -0.00  0.16    0.00  0.00 -0.02   
      2   C                0.25  0.03  0.00    0.00  0.00 -0.07   -0.00 -0.00  0.15   
      3   C               -0.15  0.20 -0.00   -0.00 -0.00 -0.10    0.00 -0.00 -0.13   
      4   H               -0.14 -0.34 -0.04   -0.11 -0.39 -0.09    0.37 -0.10  0.01   
      5   H               -0.14 -0.34  0.04    0.11  0.39 -0.09   -0.37  0.10  0.01   
      6   H                0.36  0.06  0.04    0.11  0.37  0.04   -0.39  0.10 -0.09   
      7   H                0.36  0.06 -0.04   -0.11 -0.37  0.04    0.39 -0.10 -0.09   
      8   H               -0.23  0.28 -0.04   -0.09 -0.38  0.05    0.38 -0.12  0.08   
      9   H               -0.23  0.28  0.04    0.09  0.38  0.05   -0.38  0.12  0.08   

  Vibration                       19                  20                  21          
  Freq [cm^-1]                1526.5252           1526.8056           1558.0920       
  Irrep                           Ap                  Ap                  Ap          
  Reduced mass [u]              1.0865              1.0869              1.2498        
  Force const [mDyne/A]         1.4917              1.4928              1.7877        
  Turning point v=0 [a0]        0.2694              0.2694              0.2487        
  RMS dev v=0 [a0 u^1/2]        0.1986              0.1986              0.1966        
  Char temp [K]               2196.3299           2196.7334           2241.7475       
  ----------------------------------------------------------------------------------
      1   C               -0.01  0.02  0.00   -0.03 -0.06 -0.00    0.03  0.08 -0.00   
      2   C               -0.05  0.00  0.00   -0.04 -0.02 -0.00   -0.09 -0.01 -0.00   
      3   C               -0.04  0.05 -0.00    0.00 -0.03  0.00    0.05 -0.07  0.00   
      4   H               -0.02 -0.09 -0.06    0.17  0.43  0.32   -0.12 -0.29 -0.25   
      5   H               -0.02 -0.09  0.06    0.17  0.43 -0.32   -0.12 -0.29  0.25   
      6   H                0.35  0.04  0.25    0.30  0.06  0.22    0.32  0.05  0.25   
      7   H                0.35  0.04 -0.25    0.30  0.06 -0.22    0.32  0.05 -0.25   
      8   H                0.28 -0.35  0.31   -0.08  0.13 -0.11   -0.19  0.24 -0.25   
      9   H                0.28 -0.35 -0.31   -0.08  0.13  0.11   -0.19  0.24  0.25   

  Vibration                       22                  23                  24          
  Freq [cm^-1]                3084.8291           3085.0771           3096.4508       
  Irrep                           Ap                  Ap                  Ap          
  Reduced mass [u]              1.0504              1.0505              1.0648        
  Force const [mDyne/A]         5.8894              5.8910              6.0153        
  Turning point v=0 [a0]        0.1928              0.1927              0.1911        
  RMS dev v=0 [a0 u^1/2]        0.1397              0.1397              0.1394        
  Char temp [K]               4438.3823           4438.7390           4455.1033       
  ----------------------------------------------------------------------------------
      1   C                0.01  0.02  0.00    0.02  0.04 -0.00    0.02  0.04 -0.00   
      2   C                0.05  0.01 -0.00    0.01  0.00 -0.00   -0.04 -0.01  0.00   
      3   C                0.02 -0.03 -0.00   -0.02  0.03  0.00    0.03 -0.03 -0.00   
      4   H               -0.04 -0.09  0.16   -0.10 -0.27  0.47   -0.08 -0.19  0.35   
      5   H               -0.04 -0.09 -0.16   -0.10 -0.27 -0.47   -0.08 -0.19 -0.35   
      6   H               -0.29 -0.04  0.48   -0.06 -0.01  0.09    0.21  0.03 -0.35   
      7   H               -0.29 -0.04 -0.48   -0.06 -0.01 -0.09    0.21  0.03  0.35   
      8   H               -0.12  0.16  0.33    0.14 -0.18 -0.37   -0.13  0.16  0.35   
      9   H               -0.12  0.16 -0.33    0.14 -0.18  0.37   -0.13  0.16 -0.35   

  Vibration                       25                  26                  27          
  Freq [cm^-1]                3165.4879           3165.5116           3190.6334       
  Irrep                          App                 App                 App          
  Reduced mass [u]              1.1169              1.1169              1.1149        
  Force const [mDyne/A]         6.5939              6.5941              6.6873        
  Turning point v=0 [a0]        0.1845              0.1845              0.1840        
  RMS dev v=0 [a0 u^1/2]        0.1379              0.1379              0.1374        
  Char temp [K]               4554.4323           4554.4664           4590.6111       
  ----------------------------------------------------------------------------------
      1   C                0.00  0.00  0.06    0.00 -0.00  0.06   -0.00  0.00 -0.06   
      2   C               -0.00 -0.00 -0.08    0.00  0.00  0.02   -0.00 -0.00 -0.06   
      3   C                0.00 -0.00  0.02   -0.00  0.00 -0.08   -0.00 -0.00 -0.06   
      4   H                0.08  0.20 -0.33    0.09  0.21 -0.35   -0.08 -0.21  0.34   
      5   H               -0.08 -0.20 -0.33   -0.09 -0.21 -0.35    0.08  0.21  0.34   
      6   H               -0.30 -0.04  0.47    0.07  0.01 -0.11   -0.22 -0.03  0.34   
      7   H                0.30  0.04  0.47   -0.07 -0.01 -0.11    0.22  0.03  0.34   
      8   H                0.05 -0.07 -0.14   -0.19  0.23  0.46   -0.14  0.18  0.34   
      9   H               -0.05  0.07 -0.14    0.19 -0.23  0.46    0.14 -0.18  0.34   

  ==> Thermochemistry Components <==

  Entropy, S
    Electronic S            0.000 [cal/(mol K)]        0.000 [J/(mol K)]       0.00000000 [mEh/K] (multiplicity = 1)
    Translational S        37.135 [cal/(mol K)]      155.375 [J/(mol K)]       0.05917914 [mEh/K] (mol. weight = 42.0470 [u], P = 101325.00 [Pa])
    Rotational S           21.699 [cal/(mol K)]       90.789 [J/(mol K)]       0.03457982 [mEh/K] (symmetry no. = 1)
    Vibrational S           1.136 [cal/(mol K)]        4.755 [J/(mol K)]       0.00181093 [mEh/K]
  Total S                  59.971 [cal/(mol K)]      250.919 [J/(mol K)]       0.09556989 [mEh/K]
  Correction S              0.000 [cal/(mol K)]        0.000 [J/(mol K)]       0.00000000 [mEh/K]

  Constant volume heat capacity, Cv
    Electronic Cv           0.000 [cal/(mol K)]        0.000 [J/(mol K)]       0.00000000 [mEh/K]
    Translational Cv        2.981 [cal/(mol K)]       12.472 [J/(mol K)]       0.00475022 [mEh/K]
    Rotational Cv           2.981 [cal/(mol K)]       12.472 [J/(mol K)]       0.00475022 [mEh/K]
    Vibrational Cv          4.414 [cal/(mol K)]       18.466 [J/(mol K)]       0.00703342 [mEh/K]
  Total Cv                 10.375 [cal/(mol K)]       43.410 [J/(mol K)]       0.01653385 [mEh/K]
  Correction Cv             0.000 [cal/(mol K)]        0.000 [J/(mol K)]       0.00000000 [mEh/K]

  Constant pressure heat capacity, Cp
    Electronic Cp           0.000 [cal/(mol K)]        0.000 [J/(mol K)]       0.00000000 [mEh/K]
    Translational Cp        4.968 [cal/(mol K)]       20.786 [J/(mol K)]       0.00791703 [mEh/K]
    Rotational Cp           2.981 [cal/(mol K)]       12.472 [J/(mol K)]       0.00475022 [mEh/K]
    Vibrational Cp          4.414 [cal/(mol K)]       18.466 [J/(mol K)]       0.00703342 [mEh/K]
  Total Cp                 12.362 [cal/(mol K)]       51.724 [J/(mol K)]       0.01970066 [mEh/K]
  Correction Cp             0.000 [cal/(mol K)]        0.000 [J/(mol K)]       0.00000000 [mEh/K]

  ==> Thermochemistry Energy Analysis <==

  Raw electronic energy, E0
  Total E0, Electronic energy at well bottom at 0 [K]                 -117.86354773 [Eh]

  Zero-point energy, ZPE_vib = Sum_i nu_i / 2
    Electronic ZPE          0.000 [kcal/mol]        0.000 [kJ/mol]       0.00000000 [Eh]
    Translational ZPE       0.000 [kcal/mol]        0.000 [kJ/mol]       0.00000000 [Eh]
    Rotational ZPE          0.000 [kcal/mol]        0.000 [kJ/mol]       0.00000000 [Eh]
    Vibrational ZPE        51.608 [kcal/mol]      215.928 [kJ/mol]       0.08224249 [Eh]       18050.141 [cm^-1]
  Correction ZPE           51.608 [kcal/mol]      215.928 [kJ/mol]       0.08224249 [Eh]       18050.141 [cm^-1]
  Total ZPE, Electronic energy at 0 [K]                               -117.78130524 [Eh]

  Thermal Energy, E (includes ZPE)
    Electronic E            0.000 [kcal/mol]        0.000 [kJ/mol]       0.00000000 [Eh]
    Translational E         0.889 [kcal/mol]        3.718 [kJ/mol]       0.00141628 [Eh]
    Rotational E            0.889 [kcal/mol]        3.718 [kJ/mol]       0.00141628 [Eh]
    Vibrational E          51.886 [kcal/mol]      217.091 [kJ/mol]       0.08268561 [Eh]
  Correction E             53.663 [kcal/mol]      224.528 [kJ/mol]       0.08551816 [Eh]
  Total E, Electronic energy at  298.15 [K]                           -117.77802957 [Eh]

  Enthalpy, H_trans = E_trans + k_B * T
    Electronic H            0.000 [kcal/mol]        0.000 [kJ/mol]       0.00000000 [Eh]
    Translational H         1.481 [kcal/mol]        6.197 [kJ/mol]       0.00236046 [Eh]
    Rotational H            0.889 [kcal/mol]        3.718 [kJ/mol]       0.00141628 [Eh]
    Vibrational H          51.886 [kcal/mol]      217.091 [kJ/mol]       0.08268561 [Eh]
  Correction H             54.256 [kcal/mol]      227.007 [kJ/mol]       0.08646235 [Eh]
  Total H, Enthalpy at  298.15 [K]                                    -117.77708539 [Eh]

  Gibbs free energy, G = H - T * S
    Electronic G            0.000 [kcal/mol]        0.000 [kJ/mol]       0.00000000 [Eh]
    Translational G        -9.591 [kcal/mol]      -40.128 [kJ/mol]      -0.01528380 [Eh]
    Rotational G           -5.581 [kcal/mol]      -23.350 [kJ/mol]      -0.00889370 [Eh]
    Vibrational G          51.547 [kcal/mol]      215.673 [kJ/mol]       0.08214568 [Eh]
  Correction G             36.376 [kcal/mol]      152.195 [kJ/mol]       0.05796818 [Eh]
  Total G, Free enthalpy at  298.15 [K]                               -117.80557955 [Eh]

    Psi4 stopped on: Tuesday, 19 April 2022 02:31PM
    Psi4 wall time for execution: 0:02:16.26

*** Psi4 exiting successfully. Buy a developer a beer!
