
    -----------------------------------------------------------------------
          Psi4: An Open-Source Ab Initio Electronic Structure Package
                               Psi4 1.3.2 release

                         Git: Rev {HEAD} ecbda83 


    R. M. Parrish, L. A. Burns, D. G. A. Smith, A. C. Simmonett,
    A. E. DePrince III, E. G. Hohenstein, U. Bozkaya, A. Yu. Sokolov,
    R. Di Remigio, R. M. Richard, J. F. Gonthier, A. M. James,
    H. R. McAlexander, A. Kumar, M. Saitow, X. Wang, B. P. Pritchard,
    P. Verma, H. F. Schaefer III, K. Patkowski, R. A. King, E. F. Valeev,
    F. A. Evangelista, J. M. Turney, T. D. Crawford, and C. D. Sherrill,
    J. Chem. Theory Comput. 13(7) pp 3185--3197 (2017).
    (doi: 10.1021/acs.jctc.7b00174)


                         Additional Contributions by
    P. Kraus, H. Kruse, M. H. Lechner, M. C. Schieber, R. A. Shaw,
    A. Alenaizan, R. Galvelis, Z. L. Glick, S. Lehtola, and J. P. Misiewicz

    -----------------------------------------------------------------------


    Psi4 started on: Tuesday, 19 April 2022 12:35AM

    Process ID: 25586
    Host:       atlantis
    PSIDATADIR: /home/akrom/software/anaconda3/envs/ffpenv/share/psi4
    Memory:     500.0 MiB
    Threads:    1
    
  ==> Input File <==

--------------------------------------------------------------------------
set basis  6-311++G**
molecule {
0 1
   O        0.00000        0.00000        0.49152
   C        0.00000        0.00000       -0.65516
}
energy('B3LYP')
frequencies('B3LYP')
--------------------------------------------------------------------------

*** tstart() called on atlantis
*** at Tue Apr 19 00:35:08 2022

   => Loading Basis Set <=

    Name: 6-311++G**
    Role: ORBITAL
    Keyword: BASIS
    atoms 1 entry O          line   161 file /home/akrom/software/anaconda3/envs/ffpenv/share/psi4/basis/6-311ppgss.gbs 
    atoms 2 entry C          line   119 file /home/akrom/software/anaconda3/envs/ffpenv/share/psi4/basis/6-311ppgss.gbs 


         ---------------------------------------------------------
                                   SCF
               by Justin Turney, Rob Parrish, Andy Simmonett
                          and Daniel G. A. Smith
                              RKS Reference
                        1 Threads,    500 MiB Core
         ---------------------------------------------------------

  ==> Geometry <==

    Molecular point group: c2v
    Full point group: C_inf_v

    Geometry (in Angstrom), charge = 0, multiplicity = 1:

       Center              X                  Y                   Z               Mass       
    ------------   -----------------  -----------------  -----------------  -----------------
         O            0.000000000000     0.000000000000     0.491523556581    15.994914619570
         C            0.000000000000     0.000000000000    -0.655156443419    12.000000000000

  Running in c2v symmetry.

  Rotational constants: A = ************  B =      1.86994  C =      1.86994 [cm^-1]
  Rotational constants: A = ************  B =  56059.43274  C =  56059.43274 [MHz]
  Nuclear repulsion =   22.151346593783796

  Charge       = 0
  Multiplicity = 1
  Electrons    = 14
  Nalpha       = 7
  Nbeta        = 7

  ==> Algorithm <==

  SCF Algorithm Type is DF.
  DIIS enabled.
  MOM disabled.
  Fractional occupation disabled.
  Guess Type is SAD.
  Energy threshold   = 1.00e-06
  Density threshold  = 1.00e-06
  Integral threshold = 0.00e+00

  ==> Primary Basis <==

  Basis Set: 6-311++G**
    Blend: 6-311++G**
    Number of shells: 20
    Number of basis function: 44
    Number of Cartesian functions: 46
    Spherical Harmonics?: true
    Max angular momentum: 2

  ==> DFT Potential <==

   => Composite Functional: B3LYP <= 

    B3LYP Hyb-GGA Exchange-Correlation Functional

    P. J. Stephens, F. J. Devlin, C. F. Chabalowski, and M. J. Frisch, J. Phys. Chem. 98, 11623 (1994)

    Deriv               =              1
    GGA                 =           TRUE
    Meta                =          FALSE

    Exchange Hybrid     =           TRUE
    MP2 Hybrid          =          FALSE

   => Exchange Functionals <=

    0.0800   Slater exchange
    0.7200         Becke 88

   => Exact (HF) Exchange <=

    0.2000               HF 

   => Correlation Functionals <=

    0.1900   Vosko, Wilk & Nusair (VWN5_RPA)
    0.8100   Lee, Yang & Parr

   => Molecular Quadrature <=

    Radial Scheme          =       TREUTLER
    Pruning Scheme         =           FLAT
    Nuclear Scheme         =       TREUTLER

    BS radius alpha        =              1
    Pruning alpha          =              1
    Radial Points          =             75
    Spherical Points       =            302
    Total Points           =          45300
    Total Blocks           =            420
    Max Points             =            256
    Max Functions          =             44

   => Loading Basis Set <=

    Name: (6-311++G** AUX)
    Role: JKFIT
    Keyword: DF_BASIS_SCF
    atoms 1 entry O          line   286 file /home/akrom/software/anaconda3/envs/ffpenv/share/psi4/basis/aug-cc-pvtz-jkfit.gbs 
    atoms 2 entry C          line   162 file /home/akrom/software/anaconda3/envs/ffpenv/share/psi4/basis/aug-cc-pvtz-jkfit.gbs 

  ==> Pre-Iterations <==

   -------------------------------------------------------
    Irrep   Nso     Nmo     Nalpha   Nbeta   Ndocc  Nsocc
   -------------------------------------------------------
     A1        22      22       0       0       0       0
     A2         2       2       0       0       0       0
     B1        10      10       0       0       0       0
     B2        10      10       0       0       0       0
   -------------------------------------------------------
    Total      44      44       7       7       7       0
   -------------------------------------------------------

  ==> Integral Setup <==

  DFHelper Memory: AOs need 0.004 GiB; user supplied 0.313 GiB. Using in-core AOs.

  ==> MemDFJK: Density-Fitted J/K Matrices <==

    J tasked:                   Yes
    K tasked:                   Yes
    wK tasked:                   No
    OpenMP threads:               1
    Memory [MiB]:               320
    Algorithm:                 Core
    Schwarz Cutoff:           1E-12
    Mask sparsity (%):       0.0000
    Fitting Condition:        1E-10

   => Auxiliary Basis Set <=

  Basis Set: (6-311++G** AUX)
    Blend: AUG-CC-PVTZ-JKFIT
    Number of shells: 60
    Number of basis function: 208
    Number of Cartesian functions: 262
    Spherical Harmonics?: true
    Max angular momentum: 4

  Cached 100.0% of DFT collocation blocks in 0.053 [GiB].

  Minimum eigenvalue in the overlap matrix is 3.8889751691E-03.
  Using Symmetric Orthogonalization.

  SCF Guess: Superposition of Atomic Densities via on-the-fly atomic UHF.

  ==> Iterations <==

                           Total Energy        Delta E     RMS |[F,P]|

   @DF-RKS iter SAD:  -112.79042795433088   -1.12790e+02   0.00000e+00 
   @DF-RKS iter   1:  -113.27856338402974   -4.88135e-01   1.73147e-02 DIIS
   @DF-RKS iter   2:  -113.10593026634632    1.72633e-01   3.13613e-02 DIIS
   @DF-RKS iter   3:  -113.33313785605264   -2.27208e-01   7.05822e-03 DIIS
   @DF-RKS iter   4:  -113.34822325769724   -1.50854e-02   3.48990e-04 DIIS
   @DF-RKS iter   5:  -113.34825798809584   -3.47304e-05   9.08552e-05 DIIS
   @DF-RKS iter   6:  -113.34826027056582   -2.28247e-06   1.00731e-05 DIIS
   @DF-RKS iter   7:  -113.34826029656055   -2.59947e-08   2.88364e-07 DIIS
  Energy and wave function converged.


  ==> Post-Iterations <==

    Orbital Energies [Eh]
    ---------------------

    Doubly Occupied:                                                      

       1A1   -19.239546     2A1   -10.303699     3A1    -1.168137  
       4A1    -0.586431     1B2    -0.480443     1B1    -0.480443  
       5A1    -0.389362  

    Virtual:                                                              

       2B1    -0.049225     2B2    -0.049225     6A1     0.027477  
       7A1     0.057793     3B2     0.068660     3B1     0.068660  
       8A1     0.174594     4B1     0.205051     4B2     0.205051  
       9A1     0.259624    10A1     0.385958     5B1     0.520771  
       5B2     0.520771    11A1     0.633451    12A1     0.839046  
      13A1     0.997949     6B1     1.013443     6B2     1.013443  
      14A1     1.252414     1A2     1.252414    15A1     1.376081  
       7B1     1.396052     7B2     1.396052    16A1     2.015513  
       8B1     2.606057     8B2     2.606057     2A2     2.762548  
      17A1     2.762548    18A1     2.991954     9B1     3.320943  
       9B2     3.320943    19A1     3.645718    10B1     4.899181  
      10B2     4.899181    20A1     5.523920    21A1    23.755408  
      22A1    49.810998  

    Final Occupation by Irrep:
             A1    A2    B1    B2 
    DOCC [     5,    0,    1,    1 ]

  @DF-RKS Final Energy:  -113.34826029656055

   => Energetics <=

    Nuclear Repulsion Energy =             22.1513465937837957
    One-Electron Energy =                -197.6299608253275721
    Two-Electron Energy =                  73.3534586727738400
    DFT Exchange-Correlation Energy =     -11.2231047377906084
    Empirical Dispersion Energy =           0.0000000000000000
    VV10 Nonlocal Energy =                  0.0000000000000000
    Total Energy =                       -113.3482602965605537

Computation Completed


Properties will be evaluated at   0.000000,   0.000000,   0.000000 [a0]

Properties computed using the SCF density matrix

  Nuclear Dipole Moment: [e a0]
     X:     0.0000      Y:     0.0000      Z:     0.0024

  Electronic Dipole Moment: [e a0]
     X:     0.0000      Y:     0.0000      Z:    -0.0028

  Dipole Moment: [e a0]
     X:     0.0000      Y:     0.0000      Z:    -0.0004     Total:     0.0004

  Dipole Moment: [D]
     X:     0.0000      Y:     0.0000      Z:    -0.0011     Total:     0.0011


*** tstop() called on atlantis at Tue Apr 19 00:35:09 2022
Module time:
	user time   =       0.87 seconds =       0.01 minutes
	system time =       0.01 seconds =       0.00 minutes
	total time  =          1 seconds =       0.02 minutes
Total time:
	user time   =       0.87 seconds =       0.01 minutes
	system time =       0.01 seconds =       0.00 minutes
	total time  =          1 seconds =       0.02 minutes
gradient() will perform analytic gradient computation.

*** tstart() called on atlantis
*** at Tue Apr 19 00:35:09 2022

   => Loading Basis Set <=

    Name: 6-311++G**
    Role: ORBITAL
    Keyword: BASIS
    atoms 1 entry O          line   161 file /home/akrom/software/anaconda3/envs/ffpenv/share/psi4/basis/6-311ppgss.gbs 
    atoms 2 entry C          line   119 file /home/akrom/software/anaconda3/envs/ffpenv/share/psi4/basis/6-311ppgss.gbs 


         ---------------------------------------------------------
                                   SCF
               by Justin Turney, Rob Parrish, Andy Simmonett
                          and Daniel G. A. Smith
                              RKS Reference
                        1 Threads,    500 MiB Core
         ---------------------------------------------------------

  ==> Geometry <==

    Molecular point group: c2v
    Full point group: C_inf_v

    Geometry (in Angstrom), charge = 0, multiplicity = 1:

       Center              X                  Y                   Z               Mass       
    ------------   -----------------  -----------------  -----------------  -----------------
         O            0.000000000000     0.000000000000     0.491523556581    15.994914619570
         C            0.000000000000     0.000000000000    -0.655156443419    12.000000000000

  Running in c2v symmetry.

  Rotational constants: A = ************  B =      1.86994  C =      1.86994 [cm^-1]
  Rotational constants: A = ************  B =  56059.43274  C =  56059.43274 [MHz]
  Nuclear repulsion =   22.151346593783796

  Charge       = 0
  Multiplicity = 1
  Electrons    = 14
  Nalpha       = 7
  Nbeta        = 7

  ==> Algorithm <==

  SCF Algorithm Type is DF.
  DIIS enabled.
  MOM disabled.
  Fractional occupation disabled.
  Guess Type is SAD.
  Energy threshold   = 1.00e-08
  Density threshold  = 1.00e-08
  Integral threshold = 0.00e+00

  ==> Primary Basis <==

  Basis Set: 6-311++G**
    Blend: 6-311++G**
    Number of shells: 20
    Number of basis function: 44
    Number of Cartesian functions: 46
    Spherical Harmonics?: true
    Max angular momentum: 2

  ==> DFT Potential <==

   => Composite Functional: B3LYP <= 

    B3LYP Hyb-GGA Exchange-Correlation Functional

    P. J. Stephens, F. J. Devlin, C. F. Chabalowski, and M. J. Frisch, J. Phys. Chem. 98, 11623 (1994)

    Deriv               =              1
    GGA                 =           TRUE
    Meta                =          FALSE

    Exchange Hybrid     =           TRUE
    MP2 Hybrid          =          FALSE

   => Exchange Functionals <=

    0.0800   Slater exchange
    0.7200         Becke 88

   => Exact (HF) Exchange <=

    0.2000               HF 

   => Correlation Functionals <=

    0.1900   Vosko, Wilk & Nusair (VWN5_RPA)
    0.8100   Lee, Yang & Parr

   => Molecular Quadrature <=

    Radial Scheme          =       TREUTLER
    Pruning Scheme         =           FLAT
    Nuclear Scheme         =       TREUTLER

    BS radius alpha        =              1
    Pruning alpha          =              1
    Radial Points          =             75
    Spherical Points       =            302
    Total Points           =          45300
    Total Blocks           =            420
    Max Points             =            256
    Max Functions          =             44

   => Loading Basis Set <=

    Name: (6-311++G** AUX)
    Role: JKFIT
    Keyword: DF_BASIS_SCF
    atoms 1 entry O          line   286 file /home/akrom/software/anaconda3/envs/ffpenv/share/psi4/basis/aug-cc-pvtz-jkfit.gbs 
    atoms 2 entry C          line   162 file /home/akrom/software/anaconda3/envs/ffpenv/share/psi4/basis/aug-cc-pvtz-jkfit.gbs 

  ==> Pre-Iterations <==

   -------------------------------------------------------
    Irrep   Nso     Nmo     Nalpha   Nbeta   Ndocc  Nsocc
   -------------------------------------------------------
     A1        22      22       0       0       0       0
     A2         2       2       0       0       0       0
     B1        10      10       0       0       0       0
     B2        10      10       0       0       0       0
   -------------------------------------------------------
    Total      44      44       7       7       7       0
   -------------------------------------------------------

  ==> Integral Setup <==

  DFHelper Memory: AOs need 0.004 GiB; user supplied 0.313 GiB. Using in-core AOs.

  ==> MemDFJK: Density-Fitted J/K Matrices <==

    J tasked:                   Yes
    K tasked:                   Yes
    wK tasked:                   No
    OpenMP threads:               1
    Memory [MiB]:               320
    Algorithm:                 Core
    Schwarz Cutoff:           1E-12
    Mask sparsity (%):       0.0000
    Fitting Condition:        1E-10

   => Auxiliary Basis Set <=

  Basis Set: (6-311++G** AUX)
    Blend: AUG-CC-PVTZ-JKFIT
    Number of shells: 60
    Number of basis function: 208
    Number of Cartesian functions: 262
    Spherical Harmonics?: true
    Max angular momentum: 4

  Cached 100.0% of DFT collocation blocks in 0.053 [GiB].

  Minimum eigenvalue in the overlap matrix is 3.8889751691E-03.
  Using Symmetric Orthogonalization.

  SCF Guess: Superposition of Atomic Densities via on-the-fly atomic UHF.

  ==> Iterations <==

                           Total Energy        Delta E     RMS |[F,P]|

   @DF-RKS iter SAD:  -112.79042795433088   -1.12790e+02   0.00000e+00 
   @DF-RKS iter   1:  -113.27856338402974   -4.88135e-01   1.73147e-02 DIIS
   @DF-RKS iter   2:  -113.10593026634632    1.72633e-01   3.13613e-02 DIIS
   @DF-RKS iter   3:  -113.33313785605264   -2.27208e-01   7.05822e-03 DIIS
   @DF-RKS iter   4:  -113.34822325769724   -1.50854e-02   3.48990e-04 DIIS
   @DF-RKS iter   5:  -113.34825798809584   -3.47304e-05   9.08552e-05 DIIS
   @DF-RKS iter   6:  -113.34826027056582   -2.28247e-06   1.00731e-05 DIIS
   @DF-RKS iter   7:  -113.34826029656055   -2.59947e-08   2.88364e-07 DIIS
   @DF-RKS iter   8:  -113.34826029657923   -1.86731e-11   4.83512e-08 DIIS
   @DF-RKS iter   9:  -113.34826029657988   -6.53699e-13   2.49146e-09 DIIS
  Energy and wave function converged.


  ==> Post-Iterations <==

    Orbital Energies [Eh]
    ---------------------

    Doubly Occupied:                                                      

       1A1   -19.239546     2A1   -10.303699     3A1    -1.168137  
       4A1    -0.586431     1B2    -0.480443     1B1    -0.480443  
       5A1    -0.389362  

    Virtual:                                                              

       2B1    -0.049225     2B2    -0.049225     6A1     0.027477  
       7A1     0.057793     3B2     0.068660     3B1     0.068660  
       8A1     0.174594     4B1     0.205051     4B2     0.205051  
       9A1     0.259624    10A1     0.385958     5B1     0.520771  
       5B2     0.520771    11A1     0.633451    12A1     0.839046  
      13A1     0.997949     6B1     1.013443     6B2     1.013443  
      14A1     1.252413     1A2     1.252414    15A1     1.376081  
       7B1     1.396052     7B2     1.396052    16A1     2.015512  
       8B1     2.606057     8B2     2.606057     2A2     2.762548  
      17A1     2.762549    18A1     2.991954     9B1     3.320943  
       9B2     3.320943    19A1     3.645718    10B1     4.899181  
      10B2     4.899181    20A1     5.523920    21A1    23.755408  
      22A1    49.810999  

    Final Occupation by Irrep:
             A1    A2    B1    B2 
    DOCC [     5,    0,    1,    1 ]

  @DF-RKS Final Energy:  -113.34826029657988

   => Energetics <=

    Nuclear Repulsion Energy =             22.1513465937837957
    One-Electron Energy =                -197.6299419879267418
    Two-Electron Energy =                  73.3534377541824512
    DFT Exchange-Correlation Energy =     -11.2231026566193748
    Empirical Dispersion Energy =           0.0000000000000000
    VV10 Nonlocal Energy =                  0.0000000000000000
    Total Energy =                       -113.3482602965798804

Computation Completed


Properties will be evaluated at   0.000000,   0.000000,   0.000000 [a0]

Properties computed using the SCF density matrix

  Nuclear Dipole Moment: [e a0]
     X:     0.0000      Y:     0.0000      Z:     0.0024

  Electronic Dipole Moment: [e a0]
     X:     0.0000      Y:     0.0000      Z:    -0.0028

  Dipole Moment: [e a0]
     X:     0.0000      Y:     0.0000      Z:    -0.0004     Total:     0.0004

  Dipole Moment: [D]
     X:     0.0000      Y:     0.0000      Z:    -0.0011     Total:     0.0011


*** tstop() called on atlantis at Tue Apr 19 00:35:10 2022
Module time:
	user time   =       1.00 seconds =       0.02 minutes
	system time =       0.01 seconds =       0.00 minutes
	total time  =          1 seconds =       0.02 minutes
Total time:
	user time   =       1.87 seconds =       0.03 minutes
	system time =       0.02 seconds =       0.00 minutes
	total time  =          2 seconds =       0.03 minutes

*** tstart() called on atlantis
*** at Tue Apr 19 00:35:10 2022


         ------------------------------------------------------------
                                   SCF GRAD                          
                          Rob Parrish, Justin Turney,                
                       Andy Simmonett, and Alex Sokolov              
         ------------------------------------------------------------

  ==> Geometry <==

    Molecular point group: c2v
    Full point group: C_inf_v

    Geometry (in Angstrom), charge = 0, multiplicity = 1:

       Center              X                  Y                   Z               Mass       
    ------------   -----------------  -----------------  -----------------  -----------------
         O            0.000000000000     0.000000000000     0.491523556581    15.994914619570
         C            0.000000000000     0.000000000000    -0.655156443419    12.000000000000

  Nuclear repulsion =   22.151346593783796

  ==> Basis Set <==

  Basis Set: 6-311++G**
    Blend: 6-311++G**
    Number of shells: 20
    Number of basis function: 44
    Number of Cartesian functions: 46
    Spherical Harmonics?: true
    Max angular momentum: 2

  ==> DFJKGrad: Density-Fitted SCF Gradients <==

    Gradient:                    1
    J tasked:                  Yes
    K tasked:                  Yes
    wK tasked:                  No
    OpenMP threads:              1
    Integrals threads:           1
    Memory [MiB]:              375
    Schwarz Cutoff:          0E+00
    Fitting Condition:       1E-10

   => Auxiliary Basis Set <=

  Basis Set: (6-311++G** AUX)
    Blend: AUG-CC-PVTZ-JKFIT
    Number of shells: 60
    Number of basis function: 208
    Number of Cartesian functions: 262
    Spherical Harmonics?: true
    Max angular momentum: 4

  ==> DFT Potential <==

   => Composite Functional: B3LYP <= 

    B3LYP Hyb-GGA Exchange-Correlation Functional

    P. J. Stephens, F. J. Devlin, C. F. Chabalowski, and M. J. Frisch, J. Phys. Chem. 98, 11623 (1994)

    Deriv               =              1
    GGA                 =           TRUE
    Meta                =          FALSE

    Exchange Hybrid     =           TRUE
    MP2 Hybrid          =          FALSE

   => Exchange Functionals <=

    0.0800   Slater exchange
    0.7200         Becke 88

   => Exact (HF) Exchange <=

    0.2000               HF 

   => Correlation Functionals <=

    0.1900   Vosko, Wilk & Nusair (VWN5_RPA)
    0.8100   Lee, Yang & Parr

   => Molecular Quadrature <=

    Radial Scheme          =       TREUTLER
    Pruning Scheme         =           FLAT
    Nuclear Scheme         =       TREUTLER

    BS radius alpha        =              1
    Pruning alpha          =              1
    Radial Points          =             75
    Spherical Points       =            302
    Total Points           =          45300
    Total Blocks           =            420
    Max Points             =            256
    Max Functions          =             44


  -Total Gradient:
     Atom            X                  Y                   Z
    ------   -----------------  -----------------  -----------------
       1        0.000000000000    -0.000000000000     0.042612791037
       2        0.000000000000    -0.000000000000    -0.042621127443


*** tstop() called on atlantis at Tue Apr 19 00:35:10 2022
Module time:
	user time   =       0.25 seconds =       0.00 minutes
	system time =       0.00 seconds =       0.00 minutes
	total time  =          0 seconds =       0.00 minutes
Total time:
	user time   =       2.12 seconds =       0.04 minutes
	system time =       0.02 seconds =       0.00 minutes
	total time  =          2 seconds =       0.03 minutes

  Based on options and gradient (rms=2.46E-02), recommend projecting translations and not projecting rotations.
hessian() will perform frequency computation by finite difference of analytic gradients.

         ----------------------------------------------------------
                                   FINDIF
                     R. A. King and Jonathon Misiewicz
         ---------------------------------------------------------

  Using finite-differences of gradients to determine vibrational frequencies and 
  normal modes.  Resulting frequencies are only valid at stationary points.
    Generating geometries for use with 3-point formula.
    Displacement size will be 5.00e-03.
    Number of atoms is 2.
    Number of irreps is 4.
    Number of SALCs is 3.
    Translations projected? 1. Rotations projected? 0.
    Index of SALCs per irrep:
     1 :  0 
     2 : 
     3 :  1 
     4 :  2 
    Number of SALCs per irrep:
     Irrep 1: 1
     Irrep 2: 0
     Irrep 3: 1
     Irrep 4: 1
    Number of geometries (including reference) is 5.
    Number of displacements per irrep:
      Irrep 1: 2
      Irrep 2: 0
      Irrep 3: 1
      Irrep 4: 1

  //>>>>>>>>>>>>>>>>>>>>>>>>>>>>>>>>>>>//
  //    Loading displacement 1 of 5    //
  //<<<<<<<<<<<<<<<<<<<<<<<<<<<<<<<<<<<//
gradient() will perform analytic gradient computation.

*** tstart() called on atlantis
*** at Tue Apr 19 00:35:11 2022

   => Loading Basis Set <=

    Name: 6-311++G**
    Role: ORBITAL
    Keyword: BASIS
    atoms 1 entry O          line   161 file /home/akrom/software/anaconda3/envs/ffpenv/share/psi4/basis/6-311ppgss.gbs 
    atoms 2 entry C          line   119 file /home/akrom/software/anaconda3/envs/ffpenv/share/psi4/basis/6-311ppgss.gbs 


         ---------------------------------------------------------
                                   SCF
               by Justin Turney, Rob Parrish, Andy Simmonett
                          and Daniel G. A. Smith
                              RKS Reference
                        1 Threads,    500 MiB Core
         ---------------------------------------------------------

  ==> Geometry <==

    Molecular point group: c2v
    Full point group: C_inf_v

    Geometry (in Angstrom), charge = 0, multiplicity = 1:

       Center              X                  Y                   Z               Mass       
    ------------   -----------------  -----------------  -----------------  -----------------
         O            0.000000000000     0.000000000000     0.491523556581    15.994914619570
         C            0.000000000000     0.000000000000    -0.655156443419    12.000000000000

  Running in c2v symmetry.

  Rotational constants: A = ************  B =      1.86994  C =      1.86994 [cm^-1]
  Rotational constants: A = ************  B =  56059.43274  C =  56059.43274 [MHz]
  Nuclear repulsion =   22.151346593783796

  Charge       = 0
  Multiplicity = 1
  Electrons    = 14
  Nalpha       = 7
  Nbeta        = 7

  ==> Algorithm <==

  SCF Algorithm Type is DF.
  DIIS enabled.
  MOM disabled.
  Fractional occupation disabled.
  Guess Type is SAD.
  Energy threshold   = 1.00e-08
  Density threshold  = 1.00e-08
  Integral threshold = 0.00e+00

  ==> Primary Basis <==

  Basis Set: 6-311++G**
    Blend: 6-311++G**
    Number of shells: 20
    Number of basis function: 44
    Number of Cartesian functions: 46
    Spherical Harmonics?: true
    Max angular momentum: 2

  ==> DFT Potential <==

   => Composite Functional: B3LYP <= 

    B3LYP Hyb-GGA Exchange-Correlation Functional

    P. J. Stephens, F. J. Devlin, C. F. Chabalowski, and M. J. Frisch, J. Phys. Chem. 98, 11623 (1994)

    Deriv               =              1
    GGA                 =           TRUE
    Meta                =          FALSE

    Exchange Hybrid     =           TRUE
    MP2 Hybrid          =          FALSE

   => Exchange Functionals <=

    0.0800   Slater exchange
    0.7200         Becke 88

   => Exact (HF) Exchange <=

    0.2000               HF 

   => Correlation Functionals <=

    0.1900   Vosko, Wilk & Nusair (VWN5_RPA)
    0.8100   Lee, Yang & Parr

   => Molecular Quadrature <=

    Radial Scheme          =       TREUTLER
    Pruning Scheme         =           FLAT
    Nuclear Scheme         =       TREUTLER

    BS radius alpha        =              1
    Pruning alpha          =              1
    Radial Points          =             75
    Spherical Points       =            302
    Total Points           =          45300
    Total Blocks           =            420
    Max Points             =            256
    Max Functions          =             44

   => Loading Basis Set <=

    Name: (6-311++G** AUX)
    Role: JKFIT
    Keyword: DF_BASIS_SCF
    atoms 1 entry O          line   286 file /home/akrom/software/anaconda3/envs/ffpenv/share/psi4/basis/aug-cc-pvtz-jkfit.gbs 
    atoms 2 entry C          line   162 file /home/akrom/software/anaconda3/envs/ffpenv/share/psi4/basis/aug-cc-pvtz-jkfit.gbs 

  ==> Pre-Iterations <==

   -------------------------------------------------------
    Irrep   Nso     Nmo     Nalpha   Nbeta   Ndocc  Nsocc
   -------------------------------------------------------
     A1        22      22       0       0       0       0
     A2         2       2       0       0       0       0
     B1        10      10       0       0       0       0
     B2        10      10       0       0       0       0
   -------------------------------------------------------
    Total      44      44       7       7       7       0
   -------------------------------------------------------

  ==> Integral Setup <==

  DFHelper Memory: AOs need 0.004 GiB; user supplied 0.313 GiB. Using in-core AOs.

  ==> MemDFJK: Density-Fitted J/K Matrices <==

    J tasked:                   Yes
    K tasked:                   Yes
    wK tasked:                   No
    OpenMP threads:               1
    Memory [MiB]:               320
    Algorithm:                 Core
    Schwarz Cutoff:           1E-12
    Mask sparsity (%):       0.0000
    Fitting Condition:        1E-10

   => Auxiliary Basis Set <=

  Basis Set: (6-311++G** AUX)
    Blend: AUG-CC-PVTZ-JKFIT
    Number of shells: 60
    Number of basis function: 208
    Number of Cartesian functions: 262
    Spherical Harmonics?: true
    Max angular momentum: 4

  Cached 100.0% of DFT collocation blocks in 0.053 [GiB].

  Minimum eigenvalue in the overlap matrix is 3.8889751691E-03.
  Using Symmetric Orthogonalization.

  SCF Guess: Superposition of Atomic Densities via on-the-fly atomic UHF.

  ==> Iterations <==

                           Total Energy        Delta E     RMS |[F,P]|

   @DF-RKS iter SAD:  -112.79042795433088   -1.12790e+02   0.00000e+00 
   @DF-RKS iter   1:  -113.27856338402974   -4.88135e-01   1.73147e-02 DIIS
   @DF-RKS iter   2:  -113.10593026634632    1.72633e-01   3.13613e-02 DIIS
   @DF-RKS iter   3:  -113.33313785605264   -2.27208e-01   7.05822e-03 DIIS
   @DF-RKS iter   4:  -113.34822325769724   -1.50854e-02   3.48990e-04 DIIS
   @DF-RKS iter   5:  -113.34825798809584   -3.47304e-05   9.08552e-05 DIIS
   @DF-RKS iter   6:  -113.34826027056582   -2.28247e-06   1.00731e-05 DIIS
   @DF-RKS iter   7:  -113.34826029656055   -2.59947e-08   2.88364e-07 DIIS
   @DF-RKS iter   8:  -113.34826029657923   -1.86731e-11   4.83512e-08 DIIS
   @DF-RKS iter   9:  -113.34826029657988   -6.53699e-13   2.49146e-09 DIIS
  Energy and wave function converged.


  ==> Post-Iterations <==

    Orbital Energies [Eh]
    ---------------------

    Doubly Occupied:                                                      

       1A1   -19.239546     2A1   -10.303699     3A1    -1.168137  
       4A1    -0.586431     1B2    -0.480443     1B1    -0.480443  
       5A1    -0.389362  

    Virtual:                                                              

       2B1    -0.049225     2B2    -0.049225     6A1     0.027477  
       7A1     0.057793     3B2     0.068660     3B1     0.068660  
       8A1     0.174594     4B1     0.205051     4B2     0.205051  
       9A1     0.259624    10A1     0.385958     5B1     0.520771  
       5B2     0.520771    11A1     0.633451    12A1     0.839046  
      13A1     0.997949     6B1     1.013443     6B2     1.013443  
      14A1     1.252413     1A2     1.252414    15A1     1.376081  
       7B1     1.396052     7B2     1.396052    16A1     2.015512  
       8B1     2.606057     8B2     2.606057     2A2     2.762548  
      17A1     2.762549    18A1     2.991954     9B1     3.320943  
       9B2     3.320943    19A1     3.645718    10B1     4.899181  
      10B2     4.899181    20A1     5.523920    21A1    23.755408  
      22A1    49.810999  

    Final Occupation by Irrep:
             A1    A2    B1    B2 
    DOCC [     5,    0,    1,    1 ]

  @DF-RKS Final Energy:  -113.34826029657988

   => Energetics <=

    Nuclear Repulsion Energy =             22.1513465937837957
    One-Electron Energy =                -197.6299419879267418
    Two-Electron Energy =                  73.3534377541824512
    DFT Exchange-Correlation Energy =     -11.2231026566193748
    Empirical Dispersion Energy =           0.0000000000000000
    VV10 Nonlocal Energy =                  0.0000000000000000
    Total Energy =                       -113.3482602965798804

Computation Completed


Properties will be evaluated at   0.000000,   0.000000,   0.000000 [a0]

Properties computed using the SCF density matrix

  Nuclear Dipole Moment: [e a0]
     X:     0.0000      Y:     0.0000      Z:     0.0024

  Electronic Dipole Moment: [e a0]
     X:     0.0000      Y:     0.0000      Z:    -0.0028

  Dipole Moment: [e a0]
     X:     0.0000      Y:     0.0000      Z:    -0.0004     Total:     0.0004

  Dipole Moment: [D]
     X:     0.0000      Y:     0.0000      Z:    -0.0011     Total:     0.0011


*** tstop() called on atlantis at Tue Apr 19 00:35:12 2022
Module time:
	user time   =       0.98 seconds =       0.02 minutes
	system time =       0.01 seconds =       0.00 minutes
	total time  =          1 seconds =       0.02 minutes
Total time:
	user time   =       3.37 seconds =       0.06 minutes
	system time =       0.05 seconds =       0.00 minutes
	total time  =          4 seconds =       0.07 minutes

*** tstart() called on atlantis
*** at Tue Apr 19 00:35:12 2022


         ------------------------------------------------------------
                                   SCF GRAD                          
                          Rob Parrish, Justin Turney,                
                       Andy Simmonett, and Alex Sokolov              
         ------------------------------------------------------------

  ==> Geometry <==

    Molecular point group: c2v
    Full point group: C_inf_v

    Geometry (in Angstrom), charge = 0, multiplicity = 1:

       Center              X                  Y                   Z               Mass       
    ------------   -----------------  -----------------  -----------------  -----------------
         O            0.000000000000     0.000000000000     0.491523556581    15.994914619570
         C            0.000000000000     0.000000000000    -0.655156443419    12.000000000000

  Nuclear repulsion =   22.151346593783796

  ==> Basis Set <==

  Basis Set: 6-311++G**
    Blend: 6-311++G**
    Number of shells: 20
    Number of basis function: 44
    Number of Cartesian functions: 46
    Spherical Harmonics?: true
    Max angular momentum: 2

  ==> DFJKGrad: Density-Fitted SCF Gradients <==

    Gradient:                    1
    J tasked:                  Yes
    K tasked:                  Yes
    wK tasked:                  No
    OpenMP threads:              1
    Integrals threads:           1
    Memory [MiB]:              375
    Schwarz Cutoff:          0E+00
    Fitting Condition:       1E-10

   => Auxiliary Basis Set <=

  Basis Set: (6-311++G** AUX)
    Blend: AUG-CC-PVTZ-JKFIT
    Number of shells: 60
    Number of basis function: 208
    Number of Cartesian functions: 262
    Spherical Harmonics?: true
    Max angular momentum: 4

  ==> DFT Potential <==

   => Composite Functional: B3LYP <= 

    B3LYP Hyb-GGA Exchange-Correlation Functional

    P. J. Stephens, F. J. Devlin, C. F. Chabalowski, and M. J. Frisch, J. Phys. Chem. 98, 11623 (1994)

    Deriv               =              1
    GGA                 =           TRUE
    Meta                =          FALSE

    Exchange Hybrid     =           TRUE
    MP2 Hybrid          =          FALSE

   => Exchange Functionals <=

    0.0800   Slater exchange
    0.7200         Becke 88

   => Exact (HF) Exchange <=

    0.2000               HF 

   => Correlation Functionals <=

    0.1900   Vosko, Wilk & Nusair (VWN5_RPA)
    0.8100   Lee, Yang & Parr

   => Molecular Quadrature <=

    Radial Scheme          =       TREUTLER
    Pruning Scheme         =           FLAT
    Nuclear Scheme         =       TREUTLER

    BS radius alpha        =              1
    Pruning alpha          =              1
    Radial Points          =             75
    Spherical Points       =            302
    Total Points           =          45300
    Total Blocks           =            420
    Max Points             =            256
    Max Functions          =             44


  -Total Gradient:
     Atom            X                  Y                   Z
    ------   -----------------  -----------------  -----------------
       1        0.000000000000    -0.000000000000     0.042612791037
       2        0.000000000000    -0.000000000000    -0.042621127443


*** tstop() called on atlantis at Tue Apr 19 00:35:12 2022
Module time:
	user time   =       0.25 seconds =       0.00 minutes
	system time =       0.00 seconds =       0.00 minutes
	total time  =          0 seconds =       0.00 minutes
Total time:
	user time   =       3.63 seconds =       0.06 minutes
	system time =       0.05 seconds =       0.00 minutes
	total time  =          4 seconds =       0.07 minutes

  //>>>>>>>>>>>>>>>>>>>>>>>>>>>>>>>>>>>//
  //    Loading displacement 2 of 5    //
  //<<<<<<<<<<<<<<<<<<<<<<<<<<<<<<<<<<<//
gradient() will perform analytic gradient computation.

*** tstart() called on atlantis
*** at Tue Apr 19 00:35:12 2022

   => Loading Basis Set <=

    Name: 6-311++G**
    Role: ORBITAL
    Keyword: BASIS
    atoms 1 entry O          line   161 file /home/akrom/software/anaconda3/envs/ffpenv/share/psi4/basis/6-311ppgss.gbs 
    atoms 2 entry C          line   119 file /home/akrom/software/anaconda3/envs/ffpenv/share/psi4/basis/6-311ppgss.gbs 


         ---------------------------------------------------------
                                   SCF
               by Justin Turney, Rob Parrish, Andy Simmonett
                          and Daniel G. A. Smith
                              RKS Reference
                        1 Threads,    500 MiB Core
         ---------------------------------------------------------

  ==> Geometry <==

    Molecular point group: c2v
    Full point group: C_inf_v

    Geometry (in Angstrom), charge = 0, multiplicity = 1:

       Center              X                  Y                   Z               Mass       
    ------------   -----------------  -----------------  -----------------  -----------------
         O            0.000000000000     0.000000000000     0.491090413658    15.994914619570
         C            0.000000000000     0.000000000000    -0.654579103079    12.000000000000

  Running in c2v symmetry.

  Rotational constants: A = ************  B =      1.87324  C =      1.87324 [cm^-1]
  Rotational constants: A = ************  B =  56158.36546  C =  56158.36546 [MHz]
  Nuclear repulsion =   22.170884134640527

  Charge       = 0
  Multiplicity = 1
  Electrons    = 14
  Nalpha       = 7
  Nbeta        = 7

  ==> Algorithm <==

  SCF Algorithm Type is DF.
  DIIS enabled.
  MOM disabled.
  Fractional occupation disabled.
  Guess Type is SAD.
  Energy threshold   = 1.00e-08
  Density threshold  = 1.00e-08
  Integral threshold = 0.00e+00

  ==> Primary Basis <==

  Basis Set: 6-311++G**
    Blend: 6-311++G**
    Number of shells: 20
    Number of basis function: 44
    Number of Cartesian functions: 46
    Spherical Harmonics?: true
    Max angular momentum: 2

  ==> DFT Potential <==

   => Composite Functional: B3LYP <= 

    B3LYP Hyb-GGA Exchange-Correlation Functional

    P. J. Stephens, F. J. Devlin, C. F. Chabalowski, and M. J. Frisch, J. Phys. Chem. 98, 11623 (1994)

    Deriv               =              1
    GGA                 =           TRUE
    Meta                =          FALSE

    Exchange Hybrid     =           TRUE
    MP2 Hybrid          =          FALSE

   => Exchange Functionals <=

    0.0800   Slater exchange
    0.7200         Becke 88

   => Exact (HF) Exchange <=

    0.2000               HF 

   => Correlation Functionals <=

    0.1900   Vosko, Wilk & Nusair (VWN5_RPA)
    0.8100   Lee, Yang & Parr

   => Molecular Quadrature <=

    Radial Scheme          =       TREUTLER
    Pruning Scheme         =           FLAT
    Nuclear Scheme         =       TREUTLER

    BS radius alpha        =              1
    Pruning alpha          =              1
    Radial Points          =             75
    Spherical Points       =            302
    Total Points           =          45300
    Total Blocks           =            421
    Max Points             =            256
    Max Functions          =             44

   => Loading Basis Set <=

    Name: (6-311++G** AUX)
    Role: JKFIT
    Keyword: DF_BASIS_SCF
    atoms 1 entry O          line   286 file /home/akrom/software/anaconda3/envs/ffpenv/share/psi4/basis/aug-cc-pvtz-jkfit.gbs 
    atoms 2 entry C          line   162 file /home/akrom/software/anaconda3/envs/ffpenv/share/psi4/basis/aug-cc-pvtz-jkfit.gbs 

  ==> Pre-Iterations <==

   -------------------------------------------------------
    Irrep   Nso     Nmo     Nalpha   Nbeta   Ndocc  Nsocc
   -------------------------------------------------------
     A1        22      22       0       0       0       0
     A2         2       2       0       0       0       0
     B1        10      10       0       0       0       0
     B2        10      10       0       0       0       0
   -------------------------------------------------------
    Total      44      44       7       7       7       0
   -------------------------------------------------------

  ==> Integral Setup <==

  DFHelper Memory: AOs need 0.004 GiB; user supplied 0.313 GiB. Using in-core AOs.

  ==> MemDFJK: Density-Fitted J/K Matrices <==

    J tasked:                   Yes
    K tasked:                   Yes
    wK tasked:                   No
    OpenMP threads:               1
    Memory [MiB]:               320
    Algorithm:                 Core
    Schwarz Cutoff:           1E-12
    Mask sparsity (%):       0.0000
    Fitting Condition:        1E-10

   => Auxiliary Basis Set <=

  Basis Set: (6-311++G** AUX)
    Blend: AUG-CC-PVTZ-JKFIT
    Number of shells: 60
    Number of basis function: 208
    Number of Cartesian functions: 262
    Spherical Harmonics?: true
    Max angular momentum: 4

  Cached 100.0% of DFT collocation blocks in 0.053 [GiB].

  Minimum eigenvalue in the overlap matrix is 3.8764772988E-03.
  Using Symmetric Orthogonalization.

  SCF Guess: Superposition of Atomic Densities via on-the-fly atomic UHF.

  ==> Iterations <==

                           Total Energy        Delta E     RMS |[F,P]|

   @DF-RKS iter SAD:  -112.79184004114823   -1.12792e+02   0.00000e+00 
   @DF-RKS iter   1:  -113.27858977087999   -4.86750e-01   1.73209e-02 DIIS
   @DF-RKS iter   2:  -113.10763005549799    1.70960e-01   3.12660e-02 DIIS
   @DF-RKS iter   3:  -113.33321501829606   -2.25585e-01   7.06281e-03 DIIS
   @DF-RKS iter   4:  -113.34830282220325   -1.50878e-02   3.47981e-04 DIIS
   @DF-RKS iter   5:  -113.34833737400888   -3.45518e-05   9.04215e-05 DIIS
   @DF-RKS iter   6:  -113.34833963426894   -2.26026e-06   9.99097e-06 DIIS
   @DF-RKS iter   7:  -113.34833965981714   -2.55482e-08   2.86981e-07 DIIS
   @DF-RKS iter   8:  -113.34833965983574   -1.86020e-11   4.78219e-08 DIIS
   @DF-RKS iter   9:  -113.34833965983627   -5.25802e-13   2.43636e-09 DIIS
  Energy and wave function converged.


  ==> Post-Iterations <==

    Orbital Energies [Eh]
    ---------------------

    Doubly Occupied:                                                      

       1A1   -19.239504     2A1   -10.303351     3A1    -1.168695  
       4A1    -0.586438     1B1    -0.480778     1B2    -0.480778  
       5A1    -0.389267  

    Virtual:                                                              

       2B2    -0.048868     2B1    -0.048868     6A1     0.027478  
       7A1     0.057830     3B1     0.068686     3B2     0.068686  
       8A1     0.174605     4B1     0.205069     4B2     0.205069  
       9A1     0.259617    10A1     0.386331     5B2     0.520830  
       5B1     0.520830    11A1     0.634197    12A1     0.839518  
      13A1     0.998419     6B1     1.013386     6B2     1.013386  
      14A1     1.252395     1A2     1.252395    15A1     1.375963  
       7B1     1.396623     7B2     1.396623    16A1     2.016754  
       8B1     2.606475     8B2     2.606475     2A2     2.762673  
      17A1     2.762673    18A1     2.992115     9B1     3.321962  
       9B2     3.321962    19A1     3.646144    10B2     4.899346  
      10B1     4.899346    20A1     5.525578    21A1    23.757513  
      22A1    49.811941  

    Final Occupation by Irrep:
             A1    A2    B1    B2 
    DOCC [     5,    0,    1,    1 ]

  @DF-RKS Final Energy:  -113.34833965983627

   => Energetics <=

    Nuclear Repulsion Energy =             22.1708841346405272
    One-Electron Energy =                -197.6671175736593113
    Two-Electron Energy =                  73.3718076514553559
    DFT Exchange-Correlation Energy =     -11.2239138722728331
    Empirical Dispersion Energy =           0.0000000000000000
    VV10 Nonlocal Energy =                  0.0000000000000000
    Total Energy =                       -113.3483396598362702

Computation Completed


Properties will be evaluated at   0.000000,   0.000000,   0.000000 [a0]

Properties computed using the SCF density matrix

  Nuclear Dipole Moment: [e a0]
     X:     0.0000      Y:     0.0000      Z:     0.0024

  Electronic Dipole Moment: [e a0]
     X:     0.0000      Y:     0.0000      Z:    -0.0013

  Dipole Moment: [e a0]
     X:     0.0000      Y:     0.0000      Z:     0.0011     Total:     0.0011

  Dipole Moment: [D]
     X:     0.0000      Y:     0.0000      Z:     0.0028     Total:     0.0028


*** tstop() called on atlantis at Tue Apr 19 00:35:13 2022
Module time:
	user time   =       0.98 seconds =       0.02 minutes
	system time =       0.01 seconds =       0.00 minutes
	total time  =          1 seconds =       0.02 minutes
Total time:
	user time   =       4.62 seconds =       0.08 minutes
	system time =       0.06 seconds =       0.00 minutes
	total time  =          5 seconds =       0.08 minutes

*** tstart() called on atlantis
*** at Tue Apr 19 00:35:13 2022


         ------------------------------------------------------------
                                   SCF GRAD                          
                          Rob Parrish, Justin Turney,                
                       Andy Simmonett, and Alex Sokolov              
         ------------------------------------------------------------

  ==> Geometry <==

    Molecular point group: c2v
    Full point group: C_inf_v

    Geometry (in Angstrom), charge = 0, multiplicity = 1:

       Center              X                  Y                   Z               Mass       
    ------------   -----------------  -----------------  -----------------  -----------------
         O            0.000000000000     0.000000000000     0.491090413658    15.994914619570
         C            0.000000000000     0.000000000000    -0.654579103079    12.000000000000

  Nuclear repulsion =   22.170884134640527

  ==> Basis Set <==

  Basis Set: 6-311++G**
    Blend: 6-311++G**
    Number of shells: 20
    Number of basis function: 44
    Number of Cartesian functions: 46
    Spherical Harmonics?: true
    Max angular momentum: 2

  ==> DFJKGrad: Density-Fitted SCF Gradients <==

    Gradient:                    1
    J tasked:                  Yes
    K tasked:                  Yes
    wK tasked:                  No
    OpenMP threads:              1
    Integrals threads:           1
    Memory [MiB]:              375
    Schwarz Cutoff:          0E+00
    Fitting Condition:       1E-10

   => Auxiliary Basis Set <=

  Basis Set: (6-311++G** AUX)
    Blend: AUG-CC-PVTZ-JKFIT
    Number of shells: 60
    Number of basis function: 208
    Number of Cartesian functions: 262
    Spherical Harmonics?: true
    Max angular momentum: 4

  ==> DFT Potential <==

   => Composite Functional: B3LYP <= 

    B3LYP Hyb-GGA Exchange-Correlation Functional

    P. J. Stephens, F. J. Devlin, C. F. Chabalowski, and M. J. Frisch, J. Phys. Chem. 98, 11623 (1994)

    Deriv               =              1
    GGA                 =           TRUE
    Meta                =          FALSE

    Exchange Hybrid     =           TRUE
    MP2 Hybrid          =          FALSE

   => Exchange Functionals <=

    0.0800   Slater exchange
    0.7200         Becke 88

   => Exact (HF) Exchange <=

    0.2000               HF 

   => Correlation Functionals <=

    0.1900   Vosko, Wilk & Nusair (VWN5_RPA)
    0.8100   Lee, Yang & Parr

   => Molecular Quadrature <=

    Radial Scheme          =       TREUTLER
    Pruning Scheme         =           FLAT
    Nuclear Scheme         =       TREUTLER

    BS radius alpha        =              1
    Pruning alpha          =              1
    Radial Points          =             75
    Spherical Points       =            302
    Total Points           =          45300
    Total Blocks           =            421
    Max Points             =            256
    Max Functions          =             44


  -Total Gradient:
     Atom            X                  Y                   Z
    ------   -----------------  -----------------  -----------------
       1       -0.000000000000     0.000000000000     0.040486804171
       2        0.000000000000    -0.000000000000    -0.040495179154


*** tstop() called on atlantis at Tue Apr 19 00:35:13 2022
Module time:
	user time   =       0.26 seconds =       0.00 minutes
	system time =       0.00 seconds =       0.00 minutes
	total time  =          0 seconds =       0.00 minutes
Total time:
	user time   =       4.88 seconds =       0.08 minutes
	system time =       0.06 seconds =       0.00 minutes
	total time  =          5 seconds =       0.08 minutes

  //>>>>>>>>>>>>>>>>>>>>>>>>>>>>>>>>>>>//
  //    Loading displacement 3 of 5    //
  //<<<<<<<<<<<<<<<<<<<<<<<<<<<<<<<<<<<//
gradient() will perform analytic gradient computation.

*** tstart() called on atlantis
*** at Tue Apr 19 00:35:13 2022

   => Loading Basis Set <=

    Name: 6-311++G**
    Role: ORBITAL
    Keyword: BASIS
    atoms 1 entry O          line   161 file /home/akrom/software/anaconda3/envs/ffpenv/share/psi4/basis/6-311ppgss.gbs 
    atoms 2 entry C          line   119 file /home/akrom/software/anaconda3/envs/ffpenv/share/psi4/basis/6-311ppgss.gbs 


         ---------------------------------------------------------
                                   SCF
               by Justin Turney, Rob Parrish, Andy Simmonett
                          and Daniel G. A. Smith
                              RKS Reference
                        1 Threads,    500 MiB Core
         ---------------------------------------------------------

  ==> Geometry <==

    Molecular point group: c2v
    Full point group: C_inf_v

    Geometry (in Angstrom), charge = 0, multiplicity = 1:

       Center              X                  Y                   Z               Mass       
    ------------   -----------------  -----------------  -----------------  -----------------
         O            0.000000000000     0.000000000000     0.491956699505    15.994914619570
         C            0.000000000000     0.000000000000    -0.655733783759    12.000000000000

  Running in c2v symmetry.

  Rotational constants: A = ************  B =      1.86665  C =      1.86665 [cm^-1]
  Rotational constants: A = ************  B =  55960.76123  C =  55960.76123 [MHz]
  Nuclear repulsion =   22.131843456554755

  Charge       = 0
  Multiplicity = 1
  Electrons    = 14
  Nalpha       = 7
  Nbeta        = 7

  ==> Algorithm <==

  SCF Algorithm Type is DF.
  DIIS enabled.
  MOM disabled.
  Fractional occupation disabled.
  Guess Type is SAD.
  Energy threshold   = 1.00e-08
  Density threshold  = 1.00e-08
  Integral threshold = 0.00e+00

  ==> Primary Basis <==

  Basis Set: 6-311++G**
    Blend: 6-311++G**
    Number of shells: 20
    Number of basis function: 44
    Number of Cartesian functions: 46
    Spherical Harmonics?: true
    Max angular momentum: 2

  ==> DFT Potential <==

   => Composite Functional: B3LYP <= 

    B3LYP Hyb-GGA Exchange-Correlation Functional

    P. J. Stephens, F. J. Devlin, C. F. Chabalowski, and M. J. Frisch, J. Phys. Chem. 98, 11623 (1994)

    Deriv               =              1
    GGA                 =           TRUE
    Meta                =          FALSE

    Exchange Hybrid     =           TRUE
    MP2 Hybrid          =          FALSE

   => Exchange Functionals <=

    0.0800   Slater exchange
    0.7200         Becke 88

   => Exact (HF) Exchange <=

    0.2000               HF 

   => Correlation Functionals <=

    0.1900   Vosko, Wilk & Nusair (VWN5_RPA)
    0.8100   Lee, Yang & Parr

   => Molecular Quadrature <=

    Radial Scheme          =       TREUTLER
    Pruning Scheme         =           FLAT
    Nuclear Scheme         =       TREUTLER

    BS radius alpha        =              1
    Pruning alpha          =              1
    Radial Points          =             75
    Spherical Points       =            302
    Total Points           =          45300
    Total Blocks           =            421
    Max Points             =            256
    Max Functions          =             44

   => Loading Basis Set <=

    Name: (6-311++G** AUX)
    Role: JKFIT
    Keyword: DF_BASIS_SCF
    atoms 1 entry O          line   286 file /home/akrom/software/anaconda3/envs/ffpenv/share/psi4/basis/aug-cc-pvtz-jkfit.gbs 
    atoms 2 entry C          line   162 file /home/akrom/software/anaconda3/envs/ffpenv/share/psi4/basis/aug-cc-pvtz-jkfit.gbs 

  ==> Pre-Iterations <==

   -------------------------------------------------------
    Irrep   Nso     Nmo     Nalpha   Nbeta   Ndocc  Nsocc
   -------------------------------------------------------
     A1        22      22       0       0       0       0
     A2         2       2       0       0       0       0
     B1        10      10       0       0       0       0
     B2        10      10       0       0       0       0
   -------------------------------------------------------
    Total      44      44       7       7       7       0
   -------------------------------------------------------

  ==> Integral Setup <==

  DFHelper Memory: AOs need 0.004 GiB; user supplied 0.313 GiB. Using in-core AOs.

  ==> MemDFJK: Density-Fitted J/K Matrices <==

    J tasked:                   Yes
    K tasked:                   Yes
    wK tasked:                   No
    OpenMP threads:               1
    Memory [MiB]:               320
    Algorithm:                 Core
    Schwarz Cutoff:           1E-12
    Mask sparsity (%):       0.0000
    Fitting Condition:        1E-10

   => Auxiliary Basis Set <=

  Basis Set: (6-311++G** AUX)
    Blend: AUG-CC-PVTZ-JKFIT
    Number of shells: 60
    Number of basis function: 208
    Number of Cartesian functions: 262
    Spherical Harmonics?: true
    Max angular momentum: 4

  Cached 100.0% of DFT collocation blocks in 0.053 [GiB].

  Minimum eigenvalue in the overlap matrix is 3.9014938677E-03.
  Using Symmetric Orthogonalization.

  SCF Guess: Superposition of Atomic Densities via on-the-fly atomic UHF.

  ==> Iterations <==

                           Total Energy        Delta E     RMS |[F,P]|

   @DF-RKS iter SAD:  -112.78901664302407   -1.12789e+02   0.00000e+00 
   @DF-RKS iter   1:  -113.27853124543603   -4.89515e-01   1.73088e-02 DIIS
   @DF-RKS iter   2:  -113.10420828893197    1.74323e-01   3.14573e-02 DIIS
   @DF-RKS iter   3:  -113.33305693534136   -2.28849e-01   7.05356e-03 DIIS
   @DF-RKS iter   4:  -113.34813964202965   -1.50827e-02   3.50028e-04 DIIS
   @DF-RKS iter   5:  -113.34817455723157   -3.49152e-05   9.12922e-05 DIIS
   @DF-RKS iter   6:  -113.34817686219057   -2.30496e-06   1.01557e-05 DIIS
   @DF-RKS iter   7:  -113.34817688863836   -2.64478e-08   2.89775e-07 DIIS
   @DF-RKS iter   8:  -113.34817688865731   -1.89431e-11   4.88842e-08 DIIS
   @DF-RKS iter   9:  -113.34817688865787   -5.68434e-13   2.54767e-09 DIIS
  Energy and wave function converged.


  ==> Post-Iterations <==

    Orbital Energies [Eh]
    ---------------------

    Doubly Occupied:                                                      

       1A1   -19.239587     2A1   -10.304047     3A1    -1.167579  
       4A1    -0.586423     1B1    -0.480109     1B2    -0.480109  
       5A1    -0.389456  

    Virtual:                                                              

       2B1    -0.049582     2B2    -0.049582     6A1     0.027476  
       7A1     0.057757     3B1     0.068634     3B2     0.068634  
       8A1     0.174584     4B1     0.205033     4B2     0.205033  
       9A1     0.259630    10A1     0.385582     5B1     0.520713  
       5B2     0.520713    11A1     0.632705    12A1     0.838574  
      13A1     0.997486     6B1     1.013500     6B2     1.013500  
      14A1     1.252432     1A2     1.252432    15A1     1.376200  
       7B1     1.395482     7B2     1.395482    16A1     2.014274  
       8B1     2.605640     8B2     2.605640     2A2     2.762425  
      17A1     2.762425    18A1     2.991780     9B1     3.319923  
       9B2     3.319923    19A1     3.645303    10B2     4.899017  
      10B1     4.899017    20A1     5.522269    21A1    23.753296  
      22A1    49.810061  

    Final Occupation by Irrep:
             A1    A2    B1    B2 
    DOCC [     5,    0,    1,    1 ]

  @DF-RKS Final Energy:  -113.34817688865787

   => Energetics <=

    Nuclear Repulsion Energy =             22.1318434565547548
    One-Electron Energy =                -197.5928245367035174
    Two-Electron Energy =                  73.3350976097737117
    DFT Exchange-Correlation Energy =     -11.2222934182828133
    Empirical Dispersion Energy =           0.0000000000000000
    VV10 Nonlocal Energy =                  0.0000000000000000
    Total Energy =                       -113.3481768886578749

Computation Completed


Properties will be evaluated at   0.000000,   0.000000,   0.000000 [a0]

Properties computed using the SCF density matrix

  Nuclear Dipole Moment: [e a0]
     X:     0.0000      Y:     0.0000      Z:     0.0024

  Electronic Dipole Moment: [e a0]
     X:     0.0000      Y:     0.0000      Z:    -0.0043

  Dipole Moment: [e a0]
     X:     0.0000      Y:     0.0000      Z:    -0.0019     Total:     0.0019

  Dipole Moment: [D]
     X:     0.0000      Y:     0.0000      Z:    -0.0049     Total:     0.0049


*** tstop() called on atlantis at Tue Apr 19 00:35:14 2022
Module time:
	user time   =       1.00 seconds =       0.02 minutes
	system time =       0.00 seconds =       0.00 minutes
	total time  =          1 seconds =       0.02 minutes
Total time:
	user time   =       5.88 seconds =       0.10 minutes
	system time =       0.06 seconds =       0.00 minutes
	total time  =          6 seconds =       0.10 minutes

*** tstart() called on atlantis
*** at Tue Apr 19 00:35:14 2022


         ------------------------------------------------------------
                                   SCF GRAD                          
                          Rob Parrish, Justin Turney,                
                       Andy Simmonett, and Alex Sokolov              
         ------------------------------------------------------------

  ==> Geometry <==

    Molecular point group: c2v
    Full point group: C_inf_v

    Geometry (in Angstrom), charge = 0, multiplicity = 1:

       Center              X                  Y                   Z               Mass       
    ------------   -----------------  -----------------  -----------------  -----------------
         O            0.000000000000     0.000000000000     0.491956699505    15.994914619570
         C            0.000000000000     0.000000000000    -0.655733783759    12.000000000000

  Nuclear repulsion =   22.131843456554755

  ==> Basis Set <==

  Basis Set: 6-311++G**
    Blend: 6-311++G**
    Number of shells: 20
    Number of basis function: 44
    Number of Cartesian functions: 46
    Spherical Harmonics?: true
    Max angular momentum: 2

  ==> DFJKGrad: Density-Fitted SCF Gradients <==

    Gradient:                    1
    J tasked:                  Yes
    K tasked:                  Yes
    wK tasked:                  No
    OpenMP threads:              1
    Integrals threads:           1
    Memory [MiB]:              375
    Schwarz Cutoff:          0E+00
    Fitting Condition:       1E-10

   => Auxiliary Basis Set <=

  Basis Set: (6-311++G** AUX)
    Blend: AUG-CC-PVTZ-JKFIT
    Number of shells: 60
    Number of basis function: 208
    Number of Cartesian functions: 262
    Spherical Harmonics?: true
    Max angular momentum: 4

  ==> DFT Potential <==

   => Composite Functional: B3LYP <= 

    B3LYP Hyb-GGA Exchange-Correlation Functional

    P. J. Stephens, F. J. Devlin, C. F. Chabalowski, and M. J. Frisch, J. Phys. Chem. 98, 11623 (1994)

    Deriv               =              1
    GGA                 =           TRUE
    Meta                =          FALSE

    Exchange Hybrid     =           TRUE
    MP2 Hybrid          =          FALSE

   => Exchange Functionals <=

    0.0800   Slater exchange
    0.7200         Becke 88

   => Exact (HF) Exchange <=

    0.2000               HF 

   => Correlation Functionals <=

    0.1900   Vosko, Wilk & Nusair (VWN5_RPA)
    0.8100   Lee, Yang & Parr

   => Molecular Quadrature <=

    Radial Scheme          =       TREUTLER
    Pruning Scheme         =           FLAT
    Nuclear Scheme         =       TREUTLER

    BS radius alpha        =              1
    Pruning alpha          =              1
    Radial Points          =             75
    Spherical Points       =            302
    Total Points           =          45300
    Total Blocks           =            421
    Max Points             =            256
    Max Functions          =             44


  -Total Gradient:
     Atom            X                  Y                   Z
    ------   -----------------  -----------------  -----------------
       1        0.000000000000    -0.000000000000     0.044723370608
       2        0.000000000000    -0.000000000000    -0.044731669302


*** tstop() called on atlantis at Tue Apr 19 00:35:15 2022
Module time:
	user time   =       0.26 seconds =       0.00 minutes
	system time =       0.00 seconds =       0.00 minutes
	total time  =          1 seconds =       0.02 minutes
Total time:
	user time   =       6.14 seconds =       0.10 minutes
	system time =       0.06 seconds =       0.00 minutes
	total time  =          7 seconds =       0.12 minutes

  //>>>>>>>>>>>>>>>>>>>>>>>>>>>>>>>>>>>//
  //    Loading displacement 4 of 5    //
  //<<<<<<<<<<<<<<<<<<<<<<<<<<<<<<<<<<<//
gradient() will perform analytic gradient computation.

*** tstart() called on atlantis
*** at Tue Apr 19 00:35:15 2022

   => Loading Basis Set <=

    Name: 6-311++G**
    Role: ORBITAL
    Keyword: BASIS
    atoms 1 entry O          line   161 file /home/akrom/software/anaconda3/envs/ffpenv/share/psi4/basis/6-311ppgss.gbs 
    atoms 2 entry C          line   119 file /home/akrom/software/anaconda3/envs/ffpenv/share/psi4/basis/6-311ppgss.gbs 


         ---------------------------------------------------------
                                   SCF
               by Justin Turney, Rob Parrish, Andy Simmonett
                          and Daniel G. A. Smith
                              RKS Reference
                        1 Threads,    500 MiB Core
         ---------------------------------------------------------

  ==> Geometry <==

    Molecular point group: cs
    Full point group: C_inf_v

    Geometry (in Angstrom), charge = 0, multiplicity = 1:

       Center              X                  Y                   Z               Mass       
    ------------   -----------------  -----------------  -----------------  -----------------
         O           -0.000433142923     0.000000000000     0.491523556581    15.994914619570
         C            0.000577340340     0.000000000000    -0.655156443419    12.000000000000

  Running in cs symmetry.

  Rotational constants: A = ************  B =      1.86994  C =      1.86994 [cm^-1]
  Rotational constants: A = ************  B =  56059.38921  C =  56059.38921 [MHz]
  Nuclear repulsion =   22.151337992888561

  Charge       = 0
  Multiplicity = 1
  Electrons    = 14
  Nalpha       = 7
  Nbeta        = 7

  ==> Algorithm <==

  SCF Algorithm Type is DF.
  DIIS enabled.
  MOM disabled.
  Fractional occupation disabled.
  Guess Type is SAD.
  Energy threshold   = 1.00e-08
  Density threshold  = 1.00e-08
  Integral threshold = 0.00e+00

  ==> Primary Basis <==

  Basis Set: 6-311++G**
    Blend: 6-311++G**
    Number of shells: 20
    Number of basis function: 44
    Number of Cartesian functions: 46
    Spherical Harmonics?: true
    Max angular momentum: 2

  ==> DFT Potential <==

   => Composite Functional: B3LYP <= 

    B3LYP Hyb-GGA Exchange-Correlation Functional

    P. J. Stephens, F. J. Devlin, C. F. Chabalowski, and M. J. Frisch, J. Phys. Chem. 98, 11623 (1994)

    Deriv               =              1
    GGA                 =           TRUE
    Meta                =          FALSE

    Exchange Hybrid     =           TRUE
    MP2 Hybrid          =          FALSE

   => Exchange Functionals <=

    0.0800   Slater exchange
    0.7200         Becke 88

   => Exact (HF) Exchange <=

    0.2000               HF 

   => Correlation Functionals <=

    0.1900   Vosko, Wilk & Nusair (VWN5_RPA)
    0.8100   Lee, Yang & Parr

   => Molecular Quadrature <=

    Radial Scheme          =       TREUTLER
    Pruning Scheme         =           FLAT
    Nuclear Scheme         =       TREUTLER

    BS radius alpha        =              1
    Pruning alpha          =              1
    Radial Points          =             75
    Spherical Points       =            302
    Total Points           =          45300
    Total Blocks           =            411
    Max Points             =            253
    Max Functions          =             44

   => Loading Basis Set <=

    Name: (6-311++G** AUX)
    Role: JKFIT
    Keyword: DF_BASIS_SCF
    atoms 1 entry O          line   286 file /home/akrom/software/anaconda3/envs/ffpenv/share/psi4/basis/aug-cc-pvtz-jkfit.gbs 
    atoms 2 entry C          line   162 file /home/akrom/software/anaconda3/envs/ffpenv/share/psi4/basis/aug-cc-pvtz-jkfit.gbs 

  ==> Pre-Iterations <==

   -------------------------------------------------------
    Irrep   Nso     Nmo     Nalpha   Nbeta   Ndocc  Nsocc
   -------------------------------------------------------
     A'        32      32       0       0       0       0
     A"        12      12       0       0       0       0
   -------------------------------------------------------
    Total      44      44       7       7       7       0
   -------------------------------------------------------

  ==> Integral Setup <==

  DFHelper Memory: AOs need 0.004 GiB; user supplied 0.313 GiB. Using in-core AOs.

  ==> MemDFJK: Density-Fitted J/K Matrices <==

    J tasked:                   Yes
    K tasked:                   Yes
    wK tasked:                   No
    OpenMP threads:               1
    Memory [MiB]:               320
    Algorithm:                 Core
    Schwarz Cutoff:           1E-12
    Mask sparsity (%):       0.0000
    Fitting Condition:        1E-10

   => Auxiliary Basis Set <=

  Basis Set: (6-311++G** AUX)
    Blend: AUG-CC-PVTZ-JKFIT
    Number of shells: 60
    Number of basis function: 208
    Number of Cartesian functions: 262
    Spherical Harmonics?: true
    Max angular momentum: 4

  Cached 100.0% of DFT collocation blocks in 0.053 [GiB].

  Minimum eigenvalue in the overlap matrix is 3.8889806804E-03.
  Using Symmetric Orthogonalization.

  SCF Guess: Superposition of Atomic Densities via on-the-fly atomic UHF.

  ==> Iterations <==

                           Total Energy        Delta E     RMS |[F,P]|

   @DF-RKS iter SAD:  -112.79042733233229   -1.12790e+02   0.00000e+00 
   @DF-RKS iter   1:  -113.27856337114814   -4.88136e-01   1.32889e-02 DIIS
   @DF-RKS iter   2:  -113.10592951253528    1.72634e-01   2.40695e-02 DIIS
   @DF-RKS iter   3:  -113.33313782123822   -2.27208e-01   5.41711e-03 DIIS
   @DF-RKS iter   4:  -113.34822322175953   -1.50854e-02   2.67847e-04 DIIS
   @DF-RKS iter   5:  -113.34825795223837   -3.47305e-05   6.97306e-05 DIIS
   @DF-RKS iter   6:  -113.34826023471814   -2.28248e-06   7.73106e-06 DIIS
   @DF-RKS iter   7:  -113.34826026071296   -2.59948e-08   2.21317e-07 DIIS
   @DF-RKS iter   8:  -113.34826026073175   -1.87867e-11   3.71092e-08 DIIS
   @DF-RKS iter   9:  -113.34826026073240   -6.53699e-13   1.91219e-09 DIIS
  Energy and wave function converged.


  ==> Post-Iterations <==

    Orbital Energies [Eh]
    ---------------------

    Doubly Occupied:                                                      

       1Ap   -19.239546     2Ap   -10.303700     3Ap    -1.168137  
       4Ap    -0.586431     1App   -0.480443     5Ap    -0.480443  
       6Ap    -0.389362  

    Virtual:                                                              

       7Ap    -0.049225     2App   -0.049225     8Ap     0.027477  
       9Ap     0.057793     3App    0.068660    10Ap     0.068660  
      11Ap     0.174594    12Ap     0.205051     4App    0.205051  
      13Ap     0.259624    14Ap     0.385958     5App    0.520771  
      15Ap     0.520771    16Ap     0.633451    17Ap     0.839046  
      18Ap     0.997949    19Ap     1.013443     6App    1.013443  
      20Ap     1.252414     7App    1.252414    21Ap     1.376081  
       8App    1.396051    22Ap     1.396051    23Ap     2.015512  
       9App    2.606057    24Ap     2.606057    10App    2.762548  
      25Ap     2.762549    26Ap     2.991954    11App    3.320942  
      27Ap     3.320942    28Ap     3.645718    12App    4.899181  
      29Ap     4.899181    30Ap     5.523920    31Ap    23.755407  
      32Ap    49.810998  

    Final Occupation by Irrep:
             Ap   App 
    DOCC [     6,    1 ]

  @DF-RKS Final Energy:  -113.34826026073240

   => Energetics <=

    Nuclear Repulsion Energy =             22.1513379928885605
    One-Electron Energy =                -197.6299256207243786
    Two-Electron Energy =                  73.3534296667275640
    DFT Exchange-Correlation Energy =     -11.2231022996241379
    Empirical Dispersion Energy =           0.0000000000000000
    VV10 Nonlocal Energy =                  0.0000000000000000
    Total Energy =                       -113.3482602607323884

Computation Completed


Properties will be evaluated at   0.000000,   0.000000,   0.000000 [a0]

Properties computed using the SCF density matrix

  Nuclear Dipole Moment: [e a0]
     X:    -0.0000      Y:     0.0000      Z:     0.0024

  Electronic Dipole Moment: [e a0]
     X:     0.0000      Y:     0.0000      Z:    -0.0028

  Dipole Moment: [e a0]
     X:     0.0000      Y:     0.0000      Z:    -0.0004     Total:     0.0004

  Dipole Moment: [D]
     X:     0.0000      Y:     0.0000      Z:    -0.0011     Total:     0.0011


*** tstop() called on atlantis at Tue Apr 19 00:35:16 2022
Module time:
	user time   =       0.95 seconds =       0.02 minutes
	system time =       0.01 seconds =       0.00 minutes
	total time  =          1 seconds =       0.02 minutes
Total time:
	user time   =       7.10 seconds =       0.12 minutes
	system time =       0.07 seconds =       0.00 minutes
	total time  =          8 seconds =       0.13 minutes

*** tstart() called on atlantis
*** at Tue Apr 19 00:35:16 2022


         ------------------------------------------------------------
                                   SCF GRAD                          
                          Rob Parrish, Justin Turney,                
                       Andy Simmonett, and Alex Sokolov              
         ------------------------------------------------------------

  ==> Geometry <==

    Molecular point group: cs
    Full point group: C_inf_v

    Geometry (in Angstrom), charge = 0, multiplicity = 1:

       Center              X                  Y                   Z               Mass       
    ------------   -----------------  -----------------  -----------------  -----------------
         O           -0.000433142923     0.000000000000     0.491523556581    15.994914619570
         C            0.000577340340     0.000000000000    -0.655156443419    12.000000000000

  Nuclear repulsion =   22.151337992888561

  ==> Basis Set <==

  Basis Set: 6-311++G**
    Blend: 6-311++G**
    Number of shells: 20
    Number of basis function: 44
    Number of Cartesian functions: 46
    Spherical Harmonics?: true
    Max angular momentum: 2

  ==> DFJKGrad: Density-Fitted SCF Gradients <==

    Gradient:                    1
    J tasked:                  Yes
    K tasked:                  Yes
    wK tasked:                  No
    OpenMP threads:              1
    Integrals threads:           1
    Memory [MiB]:              375
    Schwarz Cutoff:          0E+00
    Fitting Condition:       1E-10

   => Auxiliary Basis Set <=

  Basis Set: (6-311++G** AUX)
    Blend: AUG-CC-PVTZ-JKFIT
    Number of shells: 60
    Number of basis function: 208
    Number of Cartesian functions: 262
    Spherical Harmonics?: true
    Max angular momentum: 4

  ==> DFT Potential <==

   => Composite Functional: B3LYP <= 

    B3LYP Hyb-GGA Exchange-Correlation Functional

    P. J. Stephens, F. J. Devlin, C. F. Chabalowski, and M. J. Frisch, J. Phys. Chem. 98, 11623 (1994)

    Deriv               =              1
    GGA                 =           TRUE
    Meta                =          FALSE

    Exchange Hybrid     =           TRUE
    MP2 Hybrid          =          FALSE

   => Exchange Functionals <=

    0.0800   Slater exchange
    0.7200         Becke 88

   => Exact (HF) Exchange <=

    0.2000               HF 

   => Correlation Functionals <=

    0.1900   Vosko, Wilk & Nusair (VWN5_RPA)
    0.8100   Lee, Yang & Parr

   => Molecular Quadrature <=

    Radial Scheme          =       TREUTLER
    Pruning Scheme         =           FLAT
    Nuclear Scheme         =       TREUTLER

    BS radius alpha        =              1
    Pruning alpha          =              1
    Radial Points          =             75
    Spherical Points       =            302
    Total Points           =          45300
    Total Blocks           =            411
    Max Points             =            253
    Max Functions          =             44


  -Total Gradient:
     Atom            X                  Y                   Z
    ------   -----------------  -----------------  -----------------
       1       -0.000037552270     0.000000000000     0.042613705845
       2        0.000037559616     0.000000000000    -0.042622042231


*** tstop() called on atlantis at Tue Apr 19 00:35:16 2022
Module time:
	user time   =       0.26 seconds =       0.00 minutes
	system time =       0.00 seconds =       0.00 minutes
	total time  =          0 seconds =       0.00 minutes
Total time:
	user time   =       7.36 seconds =       0.12 minutes
	system time =       0.07 seconds =       0.00 minutes
	total time  =          8 seconds =       0.13 minutes

  //>>>>>>>>>>>>>>>>>>>>>>>>>>>>>>>>>>>//
  //    Loading displacement 5 of 5    //
  //<<<<<<<<<<<<<<<<<<<<<<<<<<<<<<<<<<<//
gradient() will perform analytic gradient computation.

*** tstart() called on atlantis
*** at Tue Apr 19 00:35:16 2022

   => Loading Basis Set <=

    Name: 6-311++G**
    Role: ORBITAL
    Keyword: BASIS
    atoms 1 entry O          line   161 file /home/akrom/software/anaconda3/envs/ffpenv/share/psi4/basis/6-311ppgss.gbs 
    atoms 2 entry C          line   119 file /home/akrom/software/anaconda3/envs/ffpenv/share/psi4/basis/6-311ppgss.gbs 


         ---------------------------------------------------------
                                   SCF
               by Justin Turney, Rob Parrish, Andy Simmonett
                          and Daniel G. A. Smith
                              RKS Reference
                        1 Threads,    500 MiB Core
         ---------------------------------------------------------

  ==> Geometry <==

    Molecular point group: cs
    Full point group: C_inf_v

    Geometry (in Angstrom), charge = 0, multiplicity = 1:

       Center              X                  Y                   Z               Mass       
    ------------   -----------------  -----------------  -----------------  -----------------
         O            0.000000000000    -0.000433142923     0.491523556581    15.994914619570
         C            0.000000000000     0.000577340340    -0.655156443419    12.000000000000

  Running in cs symmetry.

  Rotational constants: A = ************  B =      1.86994  C =      1.86994 [cm^-1]
  Rotational constants: A = ************  B =  56059.38921  C =  56059.38921 [MHz]
  Nuclear repulsion =   22.151337992888561

  Charge       = 0
  Multiplicity = 1
  Electrons    = 14
  Nalpha       = 7
  Nbeta        = 7

  ==> Algorithm <==

  SCF Algorithm Type is DF.
  DIIS enabled.
  MOM disabled.
  Fractional occupation disabled.
  Guess Type is SAD.
  Energy threshold   = 1.00e-08
  Density threshold  = 1.00e-08
  Integral threshold = 0.00e+00

  ==> Primary Basis <==

  Basis Set: 6-311++G**
    Blend: 6-311++G**
    Number of shells: 20
    Number of basis function: 44
    Number of Cartesian functions: 46
    Spherical Harmonics?: true
    Max angular momentum: 2

  ==> DFT Potential <==

   => Composite Functional: B3LYP <= 

    B3LYP Hyb-GGA Exchange-Correlation Functional

    P. J. Stephens, F. J. Devlin, C. F. Chabalowski, and M. J. Frisch, J. Phys. Chem. 98, 11623 (1994)

    Deriv               =              1
    GGA                 =           TRUE
    Meta                =          FALSE

    Exchange Hybrid     =           TRUE
    MP2 Hybrid          =          FALSE

   => Exchange Functionals <=

    0.0800   Slater exchange
    0.7200         Becke 88

   => Exact (HF) Exchange <=

    0.2000               HF 

   => Correlation Functionals <=

    0.1900   Vosko, Wilk & Nusair (VWN5_RPA)
    0.8100   Lee, Yang & Parr

   => Molecular Quadrature <=

    Radial Scheme          =       TREUTLER
    Pruning Scheme         =           FLAT
    Nuclear Scheme         =       TREUTLER

    BS radius alpha        =              1
    Pruning alpha          =              1
    Radial Points          =             75
    Spherical Points       =            302
    Total Points           =          45300
    Total Blocks           =            408
    Max Points             =            253
    Max Functions          =             44

   => Loading Basis Set <=

    Name: (6-311++G** AUX)
    Role: JKFIT
    Keyword: DF_BASIS_SCF
    atoms 1 entry O          line   286 file /home/akrom/software/anaconda3/envs/ffpenv/share/psi4/basis/aug-cc-pvtz-jkfit.gbs 
    atoms 2 entry C          line   162 file /home/akrom/software/anaconda3/envs/ffpenv/share/psi4/basis/aug-cc-pvtz-jkfit.gbs 

  ==> Pre-Iterations <==

   -------------------------------------------------------
    Irrep   Nso     Nmo     Nalpha   Nbeta   Ndocc  Nsocc
   -------------------------------------------------------
     A'        32      32       0       0       0       0
     A"        12      12       0       0       0       0
   -------------------------------------------------------
    Total      44      44       7       7       7       0
   -------------------------------------------------------

  ==> Integral Setup <==

  DFHelper Memory: AOs need 0.004 GiB; user supplied 0.313 GiB. Using in-core AOs.

  ==> MemDFJK: Density-Fitted J/K Matrices <==

    J tasked:                   Yes
    K tasked:                   Yes
    wK tasked:                   No
    OpenMP threads:               1
    Memory [MiB]:               320
    Algorithm:                 Core
    Schwarz Cutoff:           1E-12
    Mask sparsity (%):       0.0000
    Fitting Condition:        1E-10

   => Auxiliary Basis Set <=

  Basis Set: (6-311++G** AUX)
    Blend: AUG-CC-PVTZ-JKFIT
    Number of shells: 60
    Number of basis function: 208
    Number of Cartesian functions: 262
    Spherical Harmonics?: true
    Max angular momentum: 4

  Cached 100.0% of DFT collocation blocks in 0.053 [GiB].

  Minimum eigenvalue in the overlap matrix is 3.8889806804E-03.
  Using Symmetric Orthogonalization.

  SCF Guess: Superposition of Atomic Densities via on-the-fly atomic UHF.

  ==> Iterations <==

                           Total Energy        Delta E     RMS |[F,P]|

   @DF-RKS iter SAD:  -112.79042733232394   -1.12790e+02   0.00000e+00 
   @DF-RKS iter   1:  -113.27856337113921   -4.88136e-01   1.32889e-02 DIIS
   @DF-RKS iter   2:  -113.10592951252798    1.72634e-01   2.40695e-02 DIIS
   @DF-RKS iter   3:  -113.33313782122899   -2.27208e-01   5.41711e-03 DIIS
   @DF-RKS iter   4:  -113.34822322175053   -1.50854e-02   2.67847e-04 DIIS
   @DF-RKS iter   5:  -113.34825795222912   -3.47305e-05   6.97306e-05 DIIS
   @DF-RKS iter   6:  -113.34826023470895   -2.28248e-06   7.73106e-06 DIIS
   @DF-RKS iter   7:  -113.34826026070390   -2.59950e-08   2.21317e-07 DIIS
   @DF-RKS iter   8:  -113.34826026072254   -1.86446e-11   3.71092e-08 DIIS
   @DF-RKS iter   9:  -113.34826026072321   -6.67910e-13   1.91219e-09 DIIS
  Energy and wave function converged.


  ==> Post-Iterations <==

    Orbital Energies [Eh]
    ---------------------

    Doubly Occupied:                                                      

       1Ap   -19.239546     2Ap   -10.303700     3Ap    -1.168137  
       4Ap    -0.586431     5Ap    -0.480443     1App   -0.480443  
       6Ap    -0.389362  

    Virtual:                                                              

       2App   -0.049225     7Ap    -0.049225     8Ap     0.027477  
       9Ap     0.057793    10Ap     0.068660     3App    0.068660  
      11Ap     0.174594    12Ap     0.205051     4App    0.205051  
      13Ap     0.259624    14Ap     0.385958    15Ap     0.520771  
       5App    0.520771    16Ap     0.633451    17Ap     0.839046  
      18Ap     0.997949    19Ap     1.013443     6App    1.013443  
      20Ap     1.252414     7App    1.252414    21Ap     1.376081  
       8App    1.396051    22Ap     1.396051    23Ap     2.015512  
      24Ap     2.606057     9App    2.606057    10App    2.762548  
      25Ap     2.762549    26Ap     2.991954    27Ap     3.320942  
      11App    3.320942    28Ap     3.645718    29Ap     4.899181  
      12App    4.899181    30Ap     5.523920    31Ap    23.755407  
      32Ap    49.810998  

    Final Occupation by Irrep:
             Ap   App 
    DOCC [     6,    1 ]

  @DF-RKS Final Energy:  -113.34826026072321

   => Energetics <=

    Nuclear Repulsion Energy =             22.1513379928885605
    One-Electron Energy =                -197.6299256207219059
    Two-Electron Energy =                  73.3534296667341152
    DFT Exchange-Correlation Energy =     -11.2231022996239691
    Empirical Dispersion Energy =           0.0000000000000000
    VV10 Nonlocal Energy =                  0.0000000000000000
    Total Energy =                       -113.3482602607232081

Computation Completed


Properties will be evaluated at   0.000000,   0.000000,   0.000000 [a0]

Properties computed using the SCF density matrix

  Nuclear Dipole Moment: [e a0]
     X:     0.0000      Y:    -0.0000      Z:     0.0024

  Electronic Dipole Moment: [e a0]
     X:     0.0000      Y:     0.0000      Z:    -0.0028

  Dipole Moment: [e a0]
     X:     0.0000      Y:     0.0000      Z:    -0.0004     Total:     0.0004

  Dipole Moment: [D]
     X:     0.0000      Y:     0.0000      Z:    -0.0011     Total:     0.0011


*** tstop() called on atlantis at Tue Apr 19 00:35:17 2022
Module time:
	user time   =       0.95 seconds =       0.02 minutes
	system time =       0.01 seconds =       0.00 minutes
	total time  =          1 seconds =       0.02 minutes
Total time:
	user time   =       8.31 seconds =       0.14 minutes
	system time =       0.08 seconds =       0.00 minutes
	total time  =          9 seconds =       0.15 minutes

*** tstart() called on atlantis
*** at Tue Apr 19 00:35:17 2022


         ------------------------------------------------------------
                                   SCF GRAD                          
                          Rob Parrish, Justin Turney,                
                       Andy Simmonett, and Alex Sokolov              
         ------------------------------------------------------------

  ==> Geometry <==

    Molecular point group: cs
    Full point group: C_inf_v

    Geometry (in Angstrom), charge = 0, multiplicity = 1:

       Center              X                  Y                   Z               Mass       
    ------------   -----------------  -----------------  -----------------  -----------------
         O            0.000000000000    -0.000433142923     0.491523556581    15.994914619570
         C            0.000000000000     0.000577340340    -0.655156443419    12.000000000000

  Nuclear repulsion =   22.151337992888561

  ==> Basis Set <==

  Basis Set: 6-311++G**
    Blend: 6-311++G**
    Number of shells: 20
    Number of basis function: 44
    Number of Cartesian functions: 46
    Spherical Harmonics?: true
    Max angular momentum: 2

  ==> DFJKGrad: Density-Fitted SCF Gradients <==

    Gradient:                    1
    J tasked:                  Yes
    K tasked:                  Yes
    wK tasked:                  No
    OpenMP threads:              1
    Integrals threads:           1
    Memory [MiB]:              375
    Schwarz Cutoff:          0E+00
    Fitting Condition:       1E-10

   => Auxiliary Basis Set <=

  Basis Set: (6-311++G** AUX)
    Blend: AUG-CC-PVTZ-JKFIT
    Number of shells: 60
    Number of basis function: 208
    Number of Cartesian functions: 262
    Spherical Harmonics?: true
    Max angular momentum: 4

  ==> DFT Potential <==

   => Composite Functional: B3LYP <= 

    B3LYP Hyb-GGA Exchange-Correlation Functional

    P. J. Stephens, F. J. Devlin, C. F. Chabalowski, and M. J. Frisch, J. Phys. Chem. 98, 11623 (1994)

    Deriv               =              1
    GGA                 =           TRUE
    Meta                =          FALSE

    Exchange Hybrid     =           TRUE
    MP2 Hybrid          =          FALSE

   => Exchange Functionals <=

    0.0800   Slater exchange
    0.7200         Becke 88

   => Exact (HF) Exchange <=

    0.2000               HF 

   => Correlation Functionals <=

    0.1900   Vosko, Wilk & Nusair (VWN5_RPA)
    0.8100   Lee, Yang & Parr

   => Molecular Quadrature <=

    Radial Scheme          =       TREUTLER
    Pruning Scheme         =           FLAT
    Nuclear Scheme         =       TREUTLER

    BS radius alpha        =              1
    Pruning alpha          =              1
    Radial Points          =             75
    Spherical Points       =            302
    Total Points           =          45300
    Total Blocks           =            408
    Max Points             =            253
    Max Functions          =             44


  -Total Gradient:
     Atom            X                  Y                   Z
    ------   -----------------  -----------------  -----------------
       1        0.000000000000    -0.000037552271     0.042613707286
       2        0.000000000000     0.000037559617    -0.042622043671


*** tstop() called on atlantis at Tue Apr 19 00:35:17 2022
Module time:
	user time   =       0.25 seconds =       0.00 minutes
	system time =       0.00 seconds =       0.00 minutes
	total time  =          0 seconds =       0.00 minutes
Total time:
	user time   =       8.56 seconds =       0.14 minutes
	system time =       0.08 seconds =       0.00 minutes
	total time  =          9 seconds =       0.15 minutes

         ----------------------------------------------------------
                                   FINDIF
                     R. A. King and Jonathon Misiewicz
         ---------------------------------------------------------

  Computing second-derivative from gradients using projected, 
  symmetry-adapted, cartesian coordinates.

  5 gradients passed in, including the reference geometry.
  Generating complete list of displacements from unique ones.

    Operation 2 takes plus displacements of irrep B1 to minus ones.
    Operation 2 takes plus displacements of irrep B2 to minus ones.

-------------------------------------------------------------


  ==> Harmonic Vibrational Analysis <==

  non-mass-weighted Hessian:       Symmetric? True   Hermitian? True   Lin Dep Dim?  3 (0)
  projection of translations (True) and rotations (False) removed 3 degrees of freedom (5)
  total projector:                 Symmetric? True   Hermitian? True   Lin Dep Dim?  3 (3)
  mass-weighted Hessian:           Symmetric? True   Hermitian? True   Lin Dep Dim?  3 (0)
  pre-proj  low-frequency mode:    0.0000i [cm^-1]
  pre-proj  low-frequency mode:    0.0000i [cm^-1]
  pre-proj  low-frequency mode:    0.0000  [cm^-1]
  pre-proj  low-frequency mode:  275.3218  [cm^-1]
  pre-proj  low-frequency mode:  275.3218  [cm^-1]
  pre-proj  all modes:['0.0000i' '0.0000i' '0.0000' '275.3218' '275.3218' '2067.7025']
  projected mass-weighted Hessian: Symmetric? True   Hermitian? True   Lin Dep Dim?  3 (3)
  post-proj low-frequency mode:    0.0000i [cm^-1] (TR)
  post-proj low-frequency mode:    0.0000  [cm^-1] (TR)
  post-proj low-frequency mode:    0.0000  [cm^-1] (TR)
  post-proj low-frequency mode:  275.3218  [cm^-1] (V)
  post-proj low-frequency mode:  275.3218  [cm^-1] (V)
  post-proj  all modes:['0.0000i' '0.0000' '0.0000' '275.3218' '275.3218' '2067.7025']

  Note that "Vibration"s include 2 un-projected rotation-like modes.
  Vibration                       4                   5                   6           
  Freq [cm^-1]                 275.3218            275.3218           2067.7025       
  Irrep                           B1                  B2                  A1          
  Reduced mass [u]             13.4388             13.4388             13.4388        
  Force const [mDyne/A]         0.6002              0.6002             33.8521        
  Turning point v=0 [a0]        0.1804              0.1804              0.0658        
  RMS dev v=0 [a0 u^1/2]        0.4676              0.4676              0.1706        
  Char temp [K]                396.1268            396.1268           2974.9635       
  ----------------------------------------------------------------------------------
      1   O               -0.60  0.00  0.00    0.00 -0.60  0.00    0.00  0.00 -0.60   
      2   C                0.80  0.00  0.00    0.00  0.80  0.00    0.00  0.00  0.80   

  ==> Thermochemistry Components <==

  Entropy, S
    Electronic S            0.000 [cal/(mol K)]        0.000 [J/(mol K)]       0.00000000 [mEh/K] (multiplicity = 1)
    Translational S        35.923 [cal/(mol K)]      150.302 [J/(mol K)]       0.05724692 [mEh/K] (mol. weight = 27.9949 [u], P = 101325.00 [Pa])
    Rotational S           11.343 [cal/(mol K)]       47.458 [J/(mol K)]       0.01807582 [mEh/K] (symmetry no. = 1)
    Vibrational S           3.126 [cal/(mol K)]       13.080 [J/(mol K)]       0.00498182 [mEh/K]
  Total S                  50.392 [cal/(mol K)]      210.840 [J/(mol K)]       0.08030456 [mEh/K]
  Correction S              0.000 [cal/(mol K)]        0.000 [J/(mol K)]       0.00000000 [mEh/K]

  Constant volume heat capacity, Cv
    Electronic Cv           0.000 [cal/(mol K)]        0.000 [J/(mol K)]       0.00000000 [mEh/K]
    Translational Cv        2.981 [cal/(mol K)]       12.472 [J/(mol K)]       0.00475022 [mEh/K]
    Rotational Cv           1.987 [cal/(mol K)]        8.314 [J/(mol K)]       0.00316681 [mEh/K]
    Vibrational Cv          3.447 [cal/(mol K)]       14.423 [J/(mol K)]       0.00549338 [mEh/K]
  Total Cv                  8.415 [cal/(mol K)]       35.209 [J/(mol K)]       0.01341040 [mEh/K]
  Correction Cv             0.000 [cal/(mol K)]        0.000 [J/(mol K)]       0.00000000 [mEh/K]

  Constant pressure heat capacity, Cp
    Electronic Cp           0.000 [cal/(mol K)]        0.000 [J/(mol K)]       0.00000000 [mEh/K]
    Translational Cp        4.968 [cal/(mol K)]       20.786 [J/(mol K)]       0.00791703 [mEh/K]
    Rotational Cp           1.987 [cal/(mol K)]        8.314 [J/(mol K)]       0.00316681 [mEh/K]
    Vibrational Cp          3.447 [cal/(mol K)]       14.423 [J/(mol K)]       0.00549338 [mEh/K]
  Total Cp                 10.402 [cal/(mol K)]       43.523 [J/(mol K)]       0.01657721 [mEh/K]
  Correction Cp             0.000 [cal/(mol K)]        0.000 [J/(mol K)]       0.00000000 [mEh/K]

  ==> Thermochemistry Energy Analysis <==

  Raw electronic energy, E0
  Total E0, Electronic energy at well bottom at 0 [K]                 -113.34826030 [Eh]

  Zero-point energy, ZPE_vib = Sum_i nu_i / 2
    Electronic ZPE          0.000 [kcal/mol]        0.000 [kJ/mol]       0.00000000 [Eh]
    Translational ZPE       0.000 [kcal/mol]        0.000 [kJ/mol]       0.00000000 [Eh]
    Rotational ZPE          0.000 [kcal/mol]        0.000 [kJ/mol]       0.00000000 [Eh]
    Vibrational ZPE         3.743 [kcal/mol]       15.661 [kJ/mol]       0.00596503 [Eh]        1309.173 [cm^-1]
  Correction ZPE            3.743 [kcal/mol]       15.661 [kJ/mol]       0.00596503 [Eh]        1309.173 [cm^-1]
  Total ZPE, Electronic energy at 0 [K]                               -113.34229527 [Eh]

  Thermal Energy, E (includes ZPE)
    Electronic E            0.000 [kcal/mol]        0.000 [kJ/mol]       0.00000000 [Eh]
    Translational E         0.889 [kcal/mol]        3.718 [kJ/mol]       0.00141628 [Eh]
    Rotational E            0.592 [kcal/mol]        2.479 [kJ/mol]       0.00094418 [Eh]
    Vibrational E           4.311 [kcal/mol]       18.035 [kJ/mol]       0.00686932 [Eh]
  Correction E              5.792 [kcal/mol]       24.233 [kJ/mol]       0.00922978 [Eh]
  Total E, Electronic energy at  298.15 [K]                           -113.33903052 [Eh]

  Enthalpy, H_trans = E_trans + k_B * T
    Electronic H            0.000 [kcal/mol]        0.000 [kJ/mol]       0.00000000 [Eh]
    Translational H         1.481 [kcal/mol]        6.197 [kJ/mol]       0.00236046 [Eh]
    Rotational H            0.592 [kcal/mol]        2.479 [kJ/mol]       0.00094418 [Eh]
    Vibrational H           4.311 [kcal/mol]       18.035 [kJ/mol]       0.00686932 [Eh]
  Correction H              6.384 [kcal/mol]       26.712 [kJ/mol]       0.01017396 [Eh]
  Total H, Enthalpy at  298.15 [K]                                    -113.33808633 [Eh]

  Gibbs free energy, G = H - T * S
    Electronic G            0.000 [kcal/mol]        0.000 [kJ/mol]       0.00000000 [Eh]
    Translational G        -9.229 [kcal/mol]      -38.615 [kJ/mol]      -0.01470771 [Eh]
    Rotational G           -2.789 [kcal/mol]      -11.671 [kJ/mol]      -0.00444512 [Eh]
    Vibrational G           3.379 [kcal/mol]       14.136 [kJ/mol]       0.00538399 [Eh]
  Correction G             -8.640 [kcal/mol]      -36.150 [kJ/mol]      -0.01376884 [Eh]
  Total G, Free enthalpy at  298.15 [K]                               -113.36202914 [Eh]

    Psi4 stopped on: Tuesday, 19 April 2022 12:35AM
    Psi4 wall time for execution: 0:00:08.81

*** Psi4 exiting successfully. Buy a developer a beer!
