
    -----------------------------------------------------------------------
          Psi4: An Open-Source Ab Initio Electronic Structure Package
                               Psi4 1.3.2 release

                         Git: Rev {HEAD} ecbda83 


    R. M. Parrish, L. A. Burns, D. G. A. Smith, A. C. Simmonett,
    A. E. DePrince III, E. G. Hohenstein, U. Bozkaya, A. Yu. Sokolov,
    R. Di Remigio, R. M. Richard, J. F. Gonthier, A. M. James,
    H. R. McAlexander, A. Kumar, M. Saitow, X. Wang, B. P. Pritchard,
    P. Verma, H. F. Schaefer III, K. Patkowski, R. A. King, E. F. Valeev,
    F. A. Evangelista, J. M. Turney, T. D. Crawford, and C. D. Sherrill,
    J. Chem. Theory Comput. 13(7) pp 3185--3197 (2017).
    (doi: 10.1021/acs.jctc.7b00174)


                         Additional Contributions by
    P. Kraus, H. Kruse, M. H. Lechner, M. C. Schieber, R. A. Shaw,
    A. Alenaizan, R. Galvelis, Z. L. Glick, S. Lehtola, and J. P. Misiewicz

    -----------------------------------------------------------------------


    Psi4 started on: Tuesday, 19 April 2022 02:31PM

    Process ID: 2270
    Host:       atlantis
    PSIDATADIR: /home/akrom/software/anaconda3/envs/ffpenv/share/psi4
    Memory:     500.0 MiB
    Threads:    1
    
  ==> Input File <==

--------------------------------------------------------------------------
set basis  aug-cc-pVDZ
molecule {
0 1
   C        0.32153        0.81326        0.00000
   C       -0.86505       -0.12817        0.00000
   C        0.54353       -0.68508        0.00000
   H        0.53795        1.36069       -0.92039
   H        0.53795        1.36069        0.92039
   H       -1.44742       -0.21449        0.92034
   H       -1.44742       -0.21449       -0.92034
   H        0.90937       -1.14629       -0.92037
   H        0.90937       -1.14629        0.92037
}
energy('B3LYP')
frequencies('B3LYP')
--------------------------------------------------------------------------

*** tstart() called on atlantis
*** at Tue Apr 19 14:31:18 2022

   => Loading Basis Set <=

    Name: AUG-CC-PVDZ
    Role: ORBITAL
    Keyword: BASIS
    atoms 1-3 entry C          line   178 file /home/akrom/software/anaconda3/envs/ffpenv/share/psi4/basis/aug-cc-pvdz.gbs 
    atoms 4-9 entry H          line    36 file /home/akrom/software/anaconda3/envs/ffpenv/share/psi4/basis/aug-cc-pvdz.gbs 


         ---------------------------------------------------------
                                   SCF
               by Justin Turney, Rob Parrish, Andy Simmonett
                          and Daniel G. A. Smith
                              RKS Reference
                        1 Threads,    500 MiB Core
         ---------------------------------------------------------

  ==> Geometry <==

    Molecular point group: cs
    Full point group: Cs

    Geometry (in Angstrom), charge = 0, multiplicity = 1:

       Center              X                  Y                   Z               Mass       
    ------------   -----------------  -----------------  -----------------  -----------------
         C            0.321531939855     0.813261460475     0.000000000000    12.000000000000
         C           -0.865048060145    -0.128168539525     0.000000000000    12.000000000000
         C            0.543531939855    -0.685078539525     0.000000000000    12.000000000000
         H            0.537951939855     1.360691460475    -0.920390000000     1.007825032230
         H            0.537951939855     1.360691460475     0.920390000000     1.007825032230
         H           -1.447418060145    -0.214488539525     0.920340000000     1.007825032230
         H           -1.447418060145    -0.214488539525    -0.920340000000     1.007825032230
         H            0.909371939855    -1.146288539525    -0.920370000000     1.007825032230
         H            0.909371939855    -1.146288539525     0.920370000000     1.007825032230

  Running in cs symmetry.

  Rotational constants: A =      0.66472  B =      0.66470  C =      0.41647 [cm^-1]
  Rotational constants: A =  19927.70596  B =  19927.20236  C =  12485.44714 [MHz]
  Nuclear repulsion =   75.281464809014025

  Charge       = 0
  Multiplicity = 1
  Electrons    = 24
  Nalpha       = 12
  Nbeta        = 12

  ==> Algorithm <==

  SCF Algorithm Type is DF.
  DIIS enabled.
  MOM disabled.
  Fractional occupation disabled.
  Guess Type is SAD.
  Energy threshold   = 1.00e-06
  Density threshold  = 1.00e-06
  Integral threshold = 0.00e+00

  ==> Primary Basis <==

  Basis Set: AUG-CC-PVDZ
    Blend: AUG-CC-PVDZ
    Number of shells: 57
    Number of basis function: 123
    Number of Cartesian functions: 129
    Spherical Harmonics?: true
    Max angular momentum: 2

  ==> DFT Potential <==

   => Composite Functional: B3LYP <= 

    B3LYP Hyb-GGA Exchange-Correlation Functional

    P. J. Stephens, F. J. Devlin, C. F. Chabalowski, and M. J. Frisch, J. Phys. Chem. 98, 11623 (1994)

    Deriv               =              1
    GGA                 =           TRUE
    Meta                =          FALSE

    Exchange Hybrid     =           TRUE
    MP2 Hybrid          =          FALSE

   => Exchange Functionals <=

    0.0800   Slater exchange
    0.7200         Becke 88

   => Exact (HF) Exchange <=

    0.2000               HF 

   => Correlation Functionals <=

    0.1900   Vosko, Wilk & Nusair (VWN5_RPA)
    0.8100   Lee, Yang & Parr

   => Molecular Quadrature <=

    Radial Scheme          =       TREUTLER
    Pruning Scheme         =           FLAT
    Nuclear Scheme         =       TREUTLER

    BS radius alpha        =              1
    Pruning alpha          =              1
    Radial Points          =             75
    Spherical Points       =            302
    Total Points           =         203850
    Total Blocks           =           1576
    Max Points             =            256
    Max Functions          =            123

   => Loading Basis Set <=

    Name: (AUG-CC-PVDZ AUX)
    Role: JKFIT
    Keyword: DF_BASIS_SCF
    atoms 1-3 entry C          line   154 file /home/akrom/software/anaconda3/envs/ffpenv/share/psi4/basis/aug-cc-pvdz-jkfit.gbs 
    atoms 4-9 entry H          line    70 file /home/akrom/software/anaconda3/envs/ffpenv/share/psi4/basis/aug-cc-pvdz-jkfit.gbs 

  ==> Pre-Iterations <==

   -------------------------------------------------------
    Irrep   Nso     Nmo     Nalpha   Nbeta   Ndocc  Nsocc
   -------------------------------------------------------
     A'        75      75       0       0       0       0
     A"        48      48       0       0       0       0
   -------------------------------------------------------
    Total     123     123      12      12      12       0
   -------------------------------------------------------

  ==> Integral Setup <==

  DFHelper Memory: AOs need 0.055 GiB; user supplied 0.055 GiB. Using in-core AOs.

  ==> MemDFJK: Density-Fitted J/K Matrices <==

    J tasked:                   Yes
    K tasked:                   Yes
    wK tasked:                   No
    OpenMP threads:               1
    Memory [MiB]:                56
    Algorithm:                 Core
    Schwarz Cutoff:           1E-12
    Mask sparsity (%):       0.0000
    Fitting Condition:        1E-10

   => Auxiliary Basis Set <=

  Basis Set: (AUG-CC-PVDZ AUX)
    Blend: AUG-CC-PVDZ-JKFIT
    Number of shells: 156
    Number of basis function: 450
    Number of Cartesian functions: 513
    Spherical Harmonics?: true
    Max angular momentum: 3

  Cached 50.0% of DFT collocation blocks in 0.356 [GiB].

  Minimum eigenvalue in the overlap matrix is 1.0790838778E-04.
  Using Symmetric Orthogonalization.

  SCF Guess: Superposition of Atomic Densities via on-the-fly atomic UHF.

  ==> Iterations <==

                           Total Energy        Delta E     RMS |[F,P]|

   @DF-RKS iter SAD:  -117.39983606710642   -1.17400e+02   0.00000e+00 
   @DF-RKS iter   1:  -117.44468469626882   -4.48486e-02   1.02301e-02 DIIS
   @DF-RKS iter   2:  -116.83834494686013    6.06340e-01   1.52193e-02 DIIS
   @DF-RKS iter   3:  -117.90607619877719   -1.06773e+00   5.95849e-04 DIIS
   @DF-RKS iter   4:  -117.90765172585618   -1.57553e-03   1.22553e-04 DIIS
   @DF-RKS iter   5:  -117.90771292586787   -6.12000e-05   1.57820e-05 DIIS
   @DF-RKS iter   6:  -117.90771407081714   -1.14495e-06   5.33336e-07 DIIS
   @DF-RKS iter   7:  -117.90771407411766   -3.30053e-09   5.49174e-08 DIIS
  Energy and wave function converged.


  ==> Post-Iterations <==

    Orbital Energies [Eh]
    ---------------------

    Doubly Occupied:                                                      

       1Ap   -10.188143     2Ap   -10.187789     3Ap   -10.187786  
       4Ap    -0.849552     5Ap    -0.597190     6Ap    -0.597186  
       1App   -0.493259     7Ap    -0.464785     2App   -0.364842  
       3App   -0.364829     8Ap    -0.297136     9Ap    -0.297130  

    Virtual:                                                              

      10Ap    -0.003661     4App    0.010578    11Ap     0.012711  
      12Ap     0.012713     5App    0.048594     6App    0.048597  
      13Ap     0.061252    14Ap     0.073494    15Ap     0.073495  
      16Ap     0.098330     7App    0.101940    17Ap     0.107056  
      18Ap     0.107058    19Ap     0.118307     8App    0.141496  
       9App    0.141497    20Ap     0.147271    21Ap     0.147279  
      22Ap     0.173245    10App    0.177318    23Ap     0.197508  
      11App    0.220267    12App    0.220272    24Ap     0.242225  
      25Ap     0.242232    26Ap     0.263443    27Ap     0.321155  
      28Ap     0.321155    29Ap     0.342958    30Ap     0.342965  
      13App    0.358562    14App    0.365684    15App    0.365693  
      16App    0.369084    17App    0.432938    18App    0.432952  
      31Ap     0.435217    19App    0.447875    32Ap     0.457905  
      33Ap     0.470369    34Ap     0.470374    35Ap     0.485053  
      20App    0.497357    36Ap     0.510899    37Ap     0.510903  
      21App    0.535611    22App    0.535618    38Ap     0.539083  
      39Ap     0.539093    40Ap     0.591226    23App    0.613916  
      24App    0.613919    41Ap     0.620188    42Ap     0.620204  
      43Ap     0.662169    44Ap     0.691960    45Ap     0.691968  
      46Ap     0.746125    25App    0.748980    26App    0.748986  
      27App    0.813397    47Ap     0.935714    48Ap     0.935734  
      28App    0.975478    49Ap     0.992927    50Ap     0.992943  
      29App    1.011189    30App    1.011195    31App    1.097298  
      51Ap     1.145919    52Ap     1.301838    32App    1.394938  
      33App    1.394954    53Ap     1.402181    54Ap     1.434646  
      55Ap     1.434675    34App    1.546625    35App    1.546657  
      56Ap     1.596583    57Ap     1.596591    58Ap     1.659757  
      36App    1.679994    37App    1.724140    59Ap     1.733742  
      60Ap     1.733747    38App    1.792076    39App    1.809529  
      40App    1.809553    61Ap     1.901951    62Ap     1.901970  
      63Ap     1.964512    41App    2.020171    42App    2.020197  
      64Ap     2.024404    65Ap     2.024421    66Ap     2.047565  
      67Ap     2.252393    68Ap     2.277709    43App    2.298965  
      44App    2.299023    69Ap     2.358345    70Ap     2.358350  
      45App    2.476841    71Ap     2.507432    72Ap     2.507439  
      46App    2.578054    73Ap     2.710711    74Ap     2.830144  
      75Ap     2.830242    47App    2.883470    48App    2.883501  

    Final Occupation by Irrep:
             Ap   App 
    DOCC [     9,    3 ]

  @DF-RKS Final Energy:  -117.90771407411766

   => Energetics <=

    Nuclear Repulsion Energy =             75.2814648090140253
    One-Electron Energy =                -305.8329329860547432
    Two-Electron Energy =                 127.6169082882605466
    DFT Exchange-Correlation Energy =     -14.9731541853375010
    Empirical Dispersion Energy =           0.0000000000000000
    VV10 Nonlocal Energy =                  0.0000000000000000
    Total Energy =                       -117.9077140741176635

Computation Completed


Properties will be evaluated at   0.000000,   0.000000,   0.000000 [a0]

Properties computed using the SCF density matrix

  Nuclear Dipole Moment: [e a0]
     X:    -0.0002      Y:    -0.0002      Z:     0.0000

  Electronic Dipole Moment: [e a0]
     X:     0.0002      Y:     0.0001      Z:     0.0000

  Dipole Moment: [e a0]
     X:    -0.0000      Y:    -0.0000      Z:     0.0000     Total:     0.0000

  Dipole Moment: [D]
     X:    -0.0001      Y:    -0.0000      Z:     0.0000     Total:     0.0001


*** tstop() called on atlantis at Tue Apr 19 14:31:25 2022
Module time:
	user time   =       6.87 seconds =       0.11 minutes
	system time =       0.11 seconds =       0.00 minutes
	total time  =          7 seconds =       0.12 minutes
Total time:
	user time   =       6.87 seconds =       0.11 minutes
	system time =       0.11 seconds =       0.00 minutes
	total time  =          7 seconds =       0.12 minutes
gradient() will perform analytic gradient computation.

*** tstart() called on atlantis
*** at Tue Apr 19 14:31:25 2022

   => Loading Basis Set <=

    Name: AUG-CC-PVDZ
    Role: ORBITAL
    Keyword: BASIS
    atoms 1-3 entry C          line   178 file /home/akrom/software/anaconda3/envs/ffpenv/share/psi4/basis/aug-cc-pvdz.gbs 
    atoms 4-9 entry H          line    36 file /home/akrom/software/anaconda3/envs/ffpenv/share/psi4/basis/aug-cc-pvdz.gbs 


         ---------------------------------------------------------
                                   SCF
               by Justin Turney, Rob Parrish, Andy Simmonett
                          and Daniel G. A. Smith
                              RKS Reference
                        1 Threads,    500 MiB Core
         ---------------------------------------------------------

  ==> Geometry <==

    Molecular point group: cs
    Full point group: Cs

    Geometry (in Angstrom), charge = 0, multiplicity = 1:

       Center              X                  Y                   Z               Mass       
    ------------   -----------------  -----------------  -----------------  -----------------
         C            0.321531939855     0.813261460475     0.000000000000    12.000000000000
         C           -0.865048060145    -0.128168539525     0.000000000000    12.000000000000
         C            0.543531939855    -0.685078539525     0.000000000000    12.000000000000
         H            0.537951939855     1.360691460475    -0.920390000000     1.007825032230
         H            0.537951939855     1.360691460475     0.920390000000     1.007825032230
         H           -1.447418060145    -0.214488539525     0.920340000000     1.007825032230
         H           -1.447418060145    -0.214488539525    -0.920340000000     1.007825032230
         H            0.909371939855    -1.146288539525    -0.920370000000     1.007825032230
         H            0.909371939855    -1.146288539525     0.920370000000     1.007825032230

  Running in cs symmetry.

  Rotational constants: A =      0.66472  B =      0.66470  C =      0.41647 [cm^-1]
  Rotational constants: A =  19927.70596  B =  19927.20236  C =  12485.44714 [MHz]
  Nuclear repulsion =   75.281464809014025

  Charge       = 0
  Multiplicity = 1
  Electrons    = 24
  Nalpha       = 12
  Nbeta        = 12

  ==> Algorithm <==

  SCF Algorithm Type is DF.
  DIIS enabled.
  MOM disabled.
  Fractional occupation disabled.
  Guess Type is SAD.
  Energy threshold   = 1.00e-08
  Density threshold  = 1.00e-08
  Integral threshold = 0.00e+00

  ==> Primary Basis <==

  Basis Set: AUG-CC-PVDZ
    Blend: AUG-CC-PVDZ
    Number of shells: 57
    Number of basis function: 123
    Number of Cartesian functions: 129
    Spherical Harmonics?: true
    Max angular momentum: 2

  ==> DFT Potential <==

   => Composite Functional: B3LYP <= 

    B3LYP Hyb-GGA Exchange-Correlation Functional

    P. J. Stephens, F. J. Devlin, C. F. Chabalowski, and M. J. Frisch, J. Phys. Chem. 98, 11623 (1994)

    Deriv               =              1
    GGA                 =           TRUE
    Meta                =          FALSE

    Exchange Hybrid     =           TRUE
    MP2 Hybrid          =          FALSE

   => Exchange Functionals <=

    0.0800   Slater exchange
    0.7200         Becke 88

   => Exact (HF) Exchange <=

    0.2000               HF 

   => Correlation Functionals <=

    0.1900   Vosko, Wilk & Nusair (VWN5_RPA)
    0.8100   Lee, Yang & Parr

   => Molecular Quadrature <=

    Radial Scheme          =       TREUTLER
    Pruning Scheme         =           FLAT
    Nuclear Scheme         =       TREUTLER

    BS radius alpha        =              1
    Pruning alpha          =              1
    Radial Points          =             75
    Spherical Points       =            302
    Total Points           =         203850
    Total Blocks           =           1576
    Max Points             =            256
    Max Functions          =            123

   => Loading Basis Set <=

    Name: (AUG-CC-PVDZ AUX)
    Role: JKFIT
    Keyword: DF_BASIS_SCF
    atoms 1-3 entry C          line   154 file /home/akrom/software/anaconda3/envs/ffpenv/share/psi4/basis/aug-cc-pvdz-jkfit.gbs 
    atoms 4-9 entry H          line    70 file /home/akrom/software/anaconda3/envs/ffpenv/share/psi4/basis/aug-cc-pvdz-jkfit.gbs 

  ==> Pre-Iterations <==

   -------------------------------------------------------
    Irrep   Nso     Nmo     Nalpha   Nbeta   Ndocc  Nsocc
   -------------------------------------------------------
     A'        75      75       0       0       0       0
     A"        48      48       0       0       0       0
   -------------------------------------------------------
    Total     123     123      12      12      12       0
   -------------------------------------------------------

  ==> Integral Setup <==

  DFHelper Memory: AOs need 0.055 GiB; user supplied 0.055 GiB. Using in-core AOs.

  ==> MemDFJK: Density-Fitted J/K Matrices <==

    J tasked:                   Yes
    K tasked:                   Yes
    wK tasked:                   No
    OpenMP threads:               1
    Memory [MiB]:                56
    Algorithm:                 Core
    Schwarz Cutoff:           1E-12
    Mask sparsity (%):       0.0000
    Fitting Condition:        1E-10

   => Auxiliary Basis Set <=

  Basis Set: (AUG-CC-PVDZ AUX)
    Blend: AUG-CC-PVDZ-JKFIT
    Number of shells: 156
    Number of basis function: 450
    Number of Cartesian functions: 513
    Spherical Harmonics?: true
    Max angular momentum: 3

  Cached 50.0% of DFT collocation blocks in 0.356 [GiB].

  Minimum eigenvalue in the overlap matrix is 1.0790838778E-04.
  Using Symmetric Orthogonalization.

  SCF Guess: Superposition of Atomic Densities via on-the-fly atomic UHF.

  ==> Iterations <==

                           Total Energy        Delta E     RMS |[F,P]|

   @DF-RKS iter SAD:  -117.39983606682871   -1.17400e+02   0.00000e+00 
   @DF-RKS iter   1:  -117.44468469597983   -4.48486e-02   1.02301e-02 DIIS
   @DF-RKS iter   2:  -116.83834494661372    6.06340e-01   1.52193e-02 DIIS
   @DF-RKS iter   3:  -117.90607619848936   -1.06773e+00   5.95849e-04 DIIS
   @DF-RKS iter   4:  -117.90765172556782   -1.57553e-03   1.22553e-04 DIIS
   @DF-RKS iter   5:  -117.90771292557935   -6.12000e-05   1.57820e-05 DIIS
   @DF-RKS iter   6:  -117.90771407052857   -1.14495e-06   5.33336e-07 DIIS
   @DF-RKS iter   7:  -117.90771407382940   -3.30083e-09   5.49174e-08 DIIS
   @DF-RKS iter   8:  -117.90771407385343   -2.40306e-11   2.08419e-08 DIIS
   @DF-RKS iter   9:  -117.90771407385429   -8.66862e-13   8.78159e-09 DIIS
  Energy and wave function converged.


  ==> Post-Iterations <==

    Orbital Energies [Eh]
    ---------------------

    Doubly Occupied:                                                      

       1Ap   -10.188143     2Ap   -10.187789     3Ap   -10.187785  
       4Ap    -0.849552     5Ap    -0.597190     6Ap    -0.597186  
       1App   -0.493259     7Ap    -0.464785     2App   -0.364842  
       3App   -0.364828     8Ap    -0.297136     9Ap    -0.297130  

    Virtual:                                                              

      10Ap    -0.003661     4App    0.010578    11Ap     0.012711  
      12Ap     0.012713     5App    0.048594     6App    0.048597  
      13Ap     0.061252    14Ap     0.073494    15Ap     0.073495  
      16Ap     0.098330     7App    0.101940    17Ap     0.107056  
      18Ap     0.107058    19Ap     0.118307     8App    0.141496  
       9App    0.141497    20Ap     0.147271    21Ap     0.147279  
      22Ap     0.173245    10App    0.177318    23Ap     0.197508  
      11App    0.220267    12App    0.220272    24Ap     0.242225  
      25Ap     0.242232    26Ap     0.263443    27Ap     0.321155  
      28Ap     0.321155    29Ap     0.342958    30Ap     0.342965  
      13App    0.358562    14App    0.365684    15App    0.365694  
      16App    0.369084    17App    0.432938    18App    0.432953  
      31Ap     0.435217    19App    0.447875    32Ap     0.457905  
      33Ap     0.470370    34Ap     0.470374    35Ap     0.485053  
      20App    0.497357    36Ap     0.510900    37Ap     0.510903  
      21App    0.535611    22App    0.535618    38Ap     0.539083  
      39Ap     0.539093    40Ap     0.591226    23App    0.613916  
      24App    0.613919    41Ap     0.620188    42Ap     0.620204  
      43Ap     0.662169    44Ap     0.691960    45Ap     0.691968  
      46Ap     0.746125    25App    0.748980    26App    0.748986  
      27App    0.813397    47Ap     0.935714    48Ap     0.935734  
      28App    0.975478    49Ap     0.992927    50Ap     0.992943  
      29App    1.011189    30App    1.011195    31App    1.097298  
      51Ap     1.145919    52Ap     1.301838    32App    1.394938  
      33App    1.394954    53Ap     1.402181    54Ap     1.434647  
      55Ap     1.434675    34App    1.546625    35App    1.546657  
      56Ap     1.596583    57Ap     1.596592    58Ap     1.659757  
      36App    1.679994    37App    1.724140    59Ap     1.733742  
      60Ap     1.733747    38App    1.792077    39App    1.809529  
      40App    1.809553    61Ap     1.901951    62Ap     1.901971  
      63Ap     1.964512    41App    2.020171    42App    2.020198  
      64Ap     2.024404    65Ap     2.024421    66Ap     2.047565  
      67Ap     2.252393    68Ap     2.277709    43App    2.298965  
      44App    2.299023    69Ap     2.358345    70Ap     2.358350  
      45App    2.476841    71Ap     2.507432    72Ap     2.507439  
      46App    2.578054    73Ap     2.710712    74Ap     2.830144  
      75Ap     2.830242    47App    2.883470    48App    2.883501  

    Final Occupation by Irrep:
             Ap   App 
    DOCC [     9,    3 ]

  @DF-RKS Final Energy:  -117.90771407385429

   => Energetics <=

    Nuclear Repulsion Energy =             75.2814648090140253
    One-Electron Energy =                -305.8329392577039130
    Two-Electron Energy =                 127.6169155143060721
    DFT Exchange-Correlation Energy =     -14.9731551394704887
    Empirical Dispersion Energy =           0.0000000000000000
    VV10 Nonlocal Energy =                  0.0000000000000000
    Total Energy =                       -117.9077140738542937

Computation Completed


Properties will be evaluated at   0.000000,   0.000000,   0.000000 [a0]

Properties computed using the SCF density matrix

  Nuclear Dipole Moment: [e a0]
     X:    -0.0002      Y:    -0.0002      Z:     0.0000

  Electronic Dipole Moment: [e a0]
     X:     0.0001      Y:     0.0001      Z:     0.0000

  Dipole Moment: [e a0]
     X:    -0.0000      Y:    -0.0000      Z:     0.0000     Total:     0.0000

  Dipole Moment: [D]
     X:    -0.0001      Y:    -0.0000      Z:     0.0000     Total:     0.0001


*** tstop() called on atlantis at Tue Apr 19 14:31:33 2022
Module time:
	user time   =       8.29 seconds =       0.14 minutes
	system time =       0.06 seconds =       0.00 minutes
	total time  =          8 seconds =       0.13 minutes
Total time:
	user time   =      15.16 seconds =       0.25 minutes
	system time =       0.17 seconds =       0.00 minutes
	total time  =         15 seconds =       0.25 minutes

*** tstart() called on atlantis
*** at Tue Apr 19 14:31:33 2022


         ------------------------------------------------------------
                                   SCF GRAD                          
                          Rob Parrish, Justin Turney,                
                       Andy Simmonett, and Alex Sokolov              
         ------------------------------------------------------------

  ==> Geometry <==

    Molecular point group: cs
    Full point group: Cs

    Geometry (in Angstrom), charge = 0, multiplicity = 1:

       Center              X                  Y                   Z               Mass       
    ------------   -----------------  -----------------  -----------------  -----------------
         C            0.321531939855     0.813261460475     0.000000000000    12.000000000000
         C           -0.865048060145    -0.128168539525     0.000000000000    12.000000000000
         C            0.543531939855    -0.685078539525     0.000000000000    12.000000000000
         H            0.537951939855     1.360691460475    -0.920390000000     1.007825032230
         H            0.537951939855     1.360691460475     0.920390000000     1.007825032230
         H           -1.447418060145    -0.214488539525     0.920340000000     1.007825032230
         H           -1.447418060145    -0.214488539525    -0.920340000000     1.007825032230
         H            0.909371939855    -1.146288539525    -0.920370000000     1.007825032230
         H            0.909371939855    -1.146288539525     0.920370000000     1.007825032230

  Nuclear repulsion =   75.281464809014025

  ==> Basis Set <==

  Basis Set: AUG-CC-PVDZ
    Blend: AUG-CC-PVDZ
    Number of shells: 57
    Number of basis function: 123
    Number of Cartesian functions: 129
    Spherical Harmonics?: true
    Max angular momentum: 2

  ==> DFJKGrad: Density-Fitted SCF Gradients <==

    Gradient:                    1
    J tasked:                  Yes
    K tasked:                  Yes
    wK tasked:                  No
    OpenMP threads:              1
    Integrals threads:           1
    Memory [MiB]:              375
    Schwarz Cutoff:          0E+00
    Fitting Condition:       1E-10

   => Auxiliary Basis Set <=

  Basis Set: (AUG-CC-PVDZ AUX)
    Blend: AUG-CC-PVDZ-JKFIT
    Number of shells: 156
    Number of basis function: 450
    Number of Cartesian functions: 513
    Spherical Harmonics?: true
    Max angular momentum: 3

  ==> DFT Potential <==

   => Composite Functional: B3LYP <= 

    B3LYP Hyb-GGA Exchange-Correlation Functional

    P. J. Stephens, F. J. Devlin, C. F. Chabalowski, and M. J. Frisch, J. Phys. Chem. 98, 11623 (1994)

    Deriv               =              1
    GGA                 =           TRUE
    Meta                =          FALSE

    Exchange Hybrid     =           TRUE
    MP2 Hybrid          =          FALSE

   => Exchange Functionals <=

    0.0800   Slater exchange
    0.7200         Becke 88

   => Exact (HF) Exchange <=

    0.2000               HF 

   => Correlation Functionals <=

    0.1900   Vosko, Wilk & Nusair (VWN5_RPA)
    0.8100   Lee, Yang & Parr

   => Molecular Quadrature <=

    Radial Scheme          =       TREUTLER
    Pruning Scheme         =           FLAT
    Nuclear Scheme         =       TREUTLER

    BS radius alpha        =              1
    Pruning alpha          =              1
    Radial Points          =             75
    Spherical Points       =            302
    Total Points           =         203850
    Total Blocks           =           1576
    Max Points             =            256
    Max Functions          =            123


  -Total Gradient:
     Atom            X                  Y                   Z
    ------   -----------------  -----------------  -----------------
       1        0.000165812571     0.000432815693     0.000000000000
       2       -0.000431252666    -0.000062252327     0.000000000000
       3        0.000284104199    -0.000350951013     0.000000000000
       4        0.000208599705     0.000531419339    -0.002185859217
       5        0.000208599705     0.000531419339     0.002185859217
       6       -0.000572659127    -0.000088577683     0.002176948956
       7       -0.000572659127    -0.000088577683    -0.002176948956
       8        0.000353774762    -0.000453325639    -0.002182559663
       9        0.000353774762    -0.000453325639     0.002182559663


*** tstop() called on atlantis at Tue Apr 19 14:31:36 2022
Module time:
	user time   =       2.44 seconds =       0.04 minutes
	system time =       0.04 seconds =       0.00 minutes
	total time  =          3 seconds =       0.05 minutes
Total time:
	user time   =      17.60 seconds =       0.29 minutes
	system time =       0.21 seconds =       0.00 minutes
	total time  =         18 seconds =       0.30 minutes

  Based on options and gradient (rms=1.07E-03), recommend projecting translations and projecting rotations.
hessian() will perform frequency computation by finite difference of analytic gradients.

         ----------------------------------------------------------
                                   FINDIF
                     R. A. King and Jonathon Misiewicz
         ---------------------------------------------------------

  Using finite-differences of gradients to determine vibrational frequencies and 
  normal modes.  Resulting frequencies are only valid at stationary points.
    Generating geometries for use with 3-point formula.
    Displacement size will be 5.00e-03.
    Number of atoms is 9.
    Number of irreps is 2.
    Number of SALCs is 21.
    Translations projected? 1. Rotations projected? 1.
    Index of SALCs per irrep:
     1 :  0  1  2  3  4  5  6  7  8  9  10  11 
     2 :  12  13  14  15  16  17  18  19  20 
    Number of SALCs per irrep:
     Irrep 1: 12
     Irrep 2: 9
    Number of geometries (including reference) is 34.
    Number of displacements per irrep:
      Irrep 1: 24
      Irrep 2: 9

  //>>>>>>>>>>>>>>>>>>>>>>>>>>>>>>>>>>>//
  //    Loading displacement 1 of 34   //
  //<<<<<<<<<<<<<<<<<<<<<<<<<<<<<<<<<<<//
gradient() will perform analytic gradient computation.

*** tstart() called on atlantis
*** at Tue Apr 19 14:31:36 2022

   => Loading Basis Set <=

    Name: AUG-CC-PVDZ
    Role: ORBITAL
    Keyword: BASIS
    atoms 1-3 entry C          line   178 file /home/akrom/software/anaconda3/envs/ffpenv/share/psi4/basis/aug-cc-pvdz.gbs 
    atoms 4-9 entry H          line    36 file /home/akrom/software/anaconda3/envs/ffpenv/share/psi4/basis/aug-cc-pvdz.gbs 


         ---------------------------------------------------------
                                   SCF
               by Justin Turney, Rob Parrish, Andy Simmonett
                          and Daniel G. A. Smith
                              RKS Reference
                        1 Threads,    500 MiB Core
         ---------------------------------------------------------

  ==> Geometry <==

    Molecular point group: cs
    Full point group: Cs

    Geometry (in Angstrom), charge = 0, multiplicity = 1:

       Center              X                  Y                   Z               Mass       
    ------------   -----------------  -----------------  -----------------  -----------------
         C            0.321531939855     0.813261460475     0.000000000000    12.000000000000
         C           -0.865048060145    -0.128168539525     0.000000000000    12.000000000000
         C            0.543531939855    -0.685078539525     0.000000000000    12.000000000000
         H            0.537951939855     1.360691460475    -0.920390000000     1.007825032230
         H            0.537951939855     1.360691460475     0.920390000000     1.007825032230
         H           -1.447418060145    -0.214488539525     0.920340000000     1.007825032230
         H           -1.447418060145    -0.214488539525    -0.920340000000     1.007825032230
         H            0.909371939855    -1.146288539525    -0.920370000000     1.007825032230
         H            0.909371939855    -1.146288539525     0.920370000000     1.007825032230

  Running in cs symmetry.

  Rotational constants: A =      0.66472  B =      0.66470  C =      0.41647 [cm^-1]
  Rotational constants: A =  19927.70596  B =  19927.20236  C =  12485.44714 [MHz]
  Nuclear repulsion =   75.281464809014025

  Charge       = 0
  Multiplicity = 1
  Electrons    = 24
  Nalpha       = 12
  Nbeta        = 12

  ==> Algorithm <==

  SCF Algorithm Type is DF.
  DIIS enabled.
  MOM disabled.
  Fractional occupation disabled.
  Guess Type is SAD.
  Energy threshold   = 1.00e-08
  Density threshold  = 1.00e-08
  Integral threshold = 0.00e+00

  ==> Primary Basis <==

  Basis Set: AUG-CC-PVDZ
    Blend: AUG-CC-PVDZ
    Number of shells: 57
    Number of basis function: 123
    Number of Cartesian functions: 129
    Spherical Harmonics?: true
    Max angular momentum: 2

  ==> DFT Potential <==

   => Composite Functional: B3LYP <= 

    B3LYP Hyb-GGA Exchange-Correlation Functional

    P. J. Stephens, F. J. Devlin, C. F. Chabalowski, and M. J. Frisch, J. Phys. Chem. 98, 11623 (1994)

    Deriv               =              1
    GGA                 =           TRUE
    Meta                =          FALSE

    Exchange Hybrid     =           TRUE
    MP2 Hybrid          =          FALSE

   => Exchange Functionals <=

    0.0800   Slater exchange
    0.7200         Becke 88

   => Exact (HF) Exchange <=

    0.2000               HF 

   => Correlation Functionals <=

    0.1900   Vosko, Wilk & Nusair (VWN5_RPA)
    0.8100   Lee, Yang & Parr

   => Molecular Quadrature <=

    Radial Scheme          =       TREUTLER
    Pruning Scheme         =           FLAT
    Nuclear Scheme         =       TREUTLER

    BS radius alpha        =              1
    Pruning alpha          =              1
    Radial Points          =             75
    Spherical Points       =            302
    Total Points           =         203850
    Total Blocks           =           1576
    Max Points             =            256
    Max Functions          =            123

   => Loading Basis Set <=

    Name: (AUG-CC-PVDZ AUX)
    Role: JKFIT
    Keyword: DF_BASIS_SCF
    atoms 1-3 entry C          line   154 file /home/akrom/software/anaconda3/envs/ffpenv/share/psi4/basis/aug-cc-pvdz-jkfit.gbs 
    atoms 4-9 entry H          line    70 file /home/akrom/software/anaconda3/envs/ffpenv/share/psi4/basis/aug-cc-pvdz-jkfit.gbs 

  ==> Pre-Iterations <==

   -------------------------------------------------------
    Irrep   Nso     Nmo     Nalpha   Nbeta   Ndocc  Nsocc
   -------------------------------------------------------
     A'        75      75       0       0       0       0
     A"        48      48       0       0       0       0
   -------------------------------------------------------
    Total     123     123      12      12      12       0
   -------------------------------------------------------

  ==> Integral Setup <==

  DFHelper Memory: AOs need 0.055 GiB; user supplied 0.055 GiB. Using in-core AOs.

  ==> MemDFJK: Density-Fitted J/K Matrices <==

    J tasked:                   Yes
    K tasked:                   Yes
    wK tasked:                   No
    OpenMP threads:               1
    Memory [MiB]:                56
    Algorithm:                 Core
    Schwarz Cutoff:           1E-12
    Mask sparsity (%):       0.0000
    Fitting Condition:        1E-10

   => Auxiliary Basis Set <=

  Basis Set: (AUG-CC-PVDZ AUX)
    Blend: AUG-CC-PVDZ-JKFIT
    Number of shells: 156
    Number of basis function: 450
    Number of Cartesian functions: 513
    Spherical Harmonics?: true
    Max angular momentum: 3

  Cached 50.0% of DFT collocation blocks in 0.356 [GiB].

  Minimum eigenvalue in the overlap matrix is 1.0790838778E-04.
  Using Symmetric Orthogonalization.

  SCF Guess: Superposition of Atomic Densities via on-the-fly atomic UHF.

  ==> Iterations <==

                           Total Energy        Delta E     RMS |[F,P]|

   @DF-RKS iter SAD:  -117.39983606682954   -1.17400e+02   0.00000e+00 
   @DF-RKS iter   1:  -117.44468469598024   -4.48486e-02   1.02301e-02 DIIS
   @DF-RKS iter   2:  -116.83834494661180    6.06340e-01   1.52193e-02 DIIS
   @DF-RKS iter   3:  -117.90607619848990   -1.06773e+00   5.95849e-04 DIIS
   @DF-RKS iter   4:  -117.90765172556829   -1.57553e-03   1.22553e-04 DIIS
   @DF-RKS iter   5:  -117.90771292557986   -6.12000e-05   1.57820e-05 DIIS
   @DF-RKS iter   6:  -117.90771407052986   -1.14495e-06   5.33336e-07 DIIS
   @DF-RKS iter   7:  -117.90771407382972   -3.29986e-09   5.49174e-08 DIIS
   @DF-RKS iter   8:  -117.90771407385363   -2.39027e-11   2.08419e-08 DIIS
   @DF-RKS iter   9:  -117.90771407385469   -1.06581e-12   8.78159e-09 DIIS
  Energy and wave function converged.


  ==> Post-Iterations <==

    Orbital Energies [Eh]
    ---------------------

    Doubly Occupied:                                                      

       1Ap   -10.188143     2Ap   -10.187789     3Ap   -10.187785  
       4Ap    -0.849552     5Ap    -0.597190     6Ap    -0.597186  
       1App   -0.493259     7Ap    -0.464785     2App   -0.364842  
       3App   -0.364828     8Ap    -0.297136     9Ap    -0.297130  

    Virtual:                                                              

      10Ap    -0.003661     4App    0.010578    11Ap     0.012711  
      12Ap     0.012713     5App    0.048594     6App    0.048597  
      13Ap     0.061252    14Ap     0.073494    15Ap     0.073495  
      16Ap     0.098330     7App    0.101940    17Ap     0.107056  
      18Ap     0.107058    19Ap     0.118307     8App    0.141496  
       9App    0.141497    20Ap     0.147271    21Ap     0.147279  
      22Ap     0.173245    10App    0.177318    23Ap     0.197508  
      11App    0.220267    12App    0.220272    24Ap     0.242225  
      25Ap     0.242232    26Ap     0.263443    27Ap     0.321155  
      28Ap     0.321155    29Ap     0.342958    30Ap     0.342965  
      13App    0.358562    14App    0.365684    15App    0.365694  
      16App    0.369084    17App    0.432938    18App    0.432953  
      31Ap     0.435217    19App    0.447875    32Ap     0.457905  
      33Ap     0.470370    34Ap     0.470374    35Ap     0.485053  
      20App    0.497357    36Ap     0.510900    37Ap     0.510903  
      21App    0.535611    22App    0.535618    38Ap     0.539083  
      39Ap     0.539093    40Ap     0.591226    23App    0.613916  
      24App    0.613919    41Ap     0.620188    42Ap     0.620204  
      43Ap     0.662169    44Ap     0.691960    45Ap     0.691968  
      46Ap     0.746125    25App    0.748980    26App    0.748986  
      27App    0.813397    47Ap     0.935714    48Ap     0.935734  
      28App    0.975478    49Ap     0.992927    50Ap     0.992943  
      29App    1.011189    30App    1.011195    31App    1.097298  
      51Ap     1.145919    52Ap     1.301838    32App    1.394938  
      33App    1.394954    53Ap     1.402181    54Ap     1.434647  
      55Ap     1.434675    34App    1.546625    35App    1.546657  
      56Ap     1.596583    57Ap     1.596592    58Ap     1.659757  
      36App    1.679994    37App    1.724140    59Ap     1.733742  
      60Ap     1.733747    38App    1.792077    39App    1.809529  
      40App    1.809553    61Ap     1.901951    62Ap     1.901971  
      63Ap     1.964512    41App    2.020171    42App    2.020198  
      64Ap     2.024404    65Ap     2.024421    66Ap     2.047565  
      67Ap     2.252393    68Ap     2.277709    43App    2.298965  
      44App    2.299023    69Ap     2.358345    70Ap     2.358350  
      45App    2.476841    71Ap     2.507432    72Ap     2.507439  
      46App    2.578054    73Ap     2.710712    74Ap     2.830144  
      75Ap     2.830242    47App    2.883470    48App    2.883501  

    Final Occupation by Irrep:
             Ap   App 
    DOCC [     9,    3 ]

  @DF-RKS Final Energy:  -117.90771407385469

   => Energetics <=

    Nuclear Repulsion Energy =             75.2814648090140253
    One-Electron Energy =                -305.8329392577019235
    Two-Electron Energy =                 127.6169155143038125
    DFT Exchange-Correlation Energy =     -14.9731551394706184
    Empirical Dispersion Energy =           0.0000000000000000
    VV10 Nonlocal Energy =                  0.0000000000000000
    Total Energy =                       -117.9077140738546916

Computation Completed


Properties will be evaluated at   0.000000,   0.000000,   0.000000 [a0]

Properties computed using the SCF density matrix

  Nuclear Dipole Moment: [e a0]
     X:    -0.0002      Y:    -0.0002      Z:     0.0000

  Electronic Dipole Moment: [e a0]
     X:     0.0001      Y:     0.0001      Z:     0.0000

  Dipole Moment: [e a0]
     X:    -0.0000      Y:    -0.0000      Z:     0.0000     Total:     0.0000

  Dipole Moment: [D]
     X:    -0.0001      Y:    -0.0000      Z:     0.0000     Total:     0.0001


*** tstop() called on atlantis at Tue Apr 19 14:31:44 2022
Module time:
	user time   =       8.27 seconds =       0.14 minutes
	system time =       0.05 seconds =       0.00 minutes
	total time  =          8 seconds =       0.13 minutes
Total time:
	user time   =      26.15 seconds =       0.44 minutes
	system time =       0.26 seconds =       0.00 minutes
	total time  =         26 seconds =       0.43 minutes

*** tstart() called on atlantis
*** at Tue Apr 19 14:31:44 2022


         ------------------------------------------------------------
                                   SCF GRAD                          
                          Rob Parrish, Justin Turney,                
                       Andy Simmonett, and Alex Sokolov              
         ------------------------------------------------------------

  ==> Geometry <==

    Molecular point group: cs
    Full point group: Cs

    Geometry (in Angstrom), charge = 0, multiplicity = 1:

       Center              X                  Y                   Z               Mass       
    ------------   -----------------  -----------------  -----------------  -----------------
         C            0.321531939855     0.813261460475     0.000000000000    12.000000000000
         C           -0.865048060145    -0.128168539525     0.000000000000    12.000000000000
         C            0.543531939855    -0.685078539525     0.000000000000    12.000000000000
         H            0.537951939855     1.360691460475    -0.920390000000     1.007825032230
         H            0.537951939855     1.360691460475     0.920390000000     1.007825032230
         H           -1.447418060145    -0.214488539525     0.920340000000     1.007825032230
         H           -1.447418060145    -0.214488539525    -0.920340000000     1.007825032230
         H            0.909371939855    -1.146288539525    -0.920370000000     1.007825032230
         H            0.909371939855    -1.146288539525     0.920370000000     1.007825032230

  Nuclear repulsion =   75.281464809014025

  ==> Basis Set <==

  Basis Set: AUG-CC-PVDZ
    Blend: AUG-CC-PVDZ
    Number of shells: 57
    Number of basis function: 123
    Number of Cartesian functions: 129
    Spherical Harmonics?: true
    Max angular momentum: 2

  ==> DFJKGrad: Density-Fitted SCF Gradients <==

    Gradient:                    1
    J tasked:                  Yes
    K tasked:                  Yes
    wK tasked:                  No
    OpenMP threads:              1
    Integrals threads:           1
    Memory [MiB]:              375
    Schwarz Cutoff:          0E+00
    Fitting Condition:       1E-10

   => Auxiliary Basis Set <=

  Basis Set: (AUG-CC-PVDZ AUX)
    Blend: AUG-CC-PVDZ-JKFIT
    Number of shells: 156
    Number of basis function: 450
    Number of Cartesian functions: 513
    Spherical Harmonics?: true
    Max angular momentum: 3

  ==> DFT Potential <==

   => Composite Functional: B3LYP <= 

    B3LYP Hyb-GGA Exchange-Correlation Functional

    P. J. Stephens, F. J. Devlin, C. F. Chabalowski, and M. J. Frisch, J. Phys. Chem. 98, 11623 (1994)

    Deriv               =              1
    GGA                 =           TRUE
    Meta                =          FALSE

    Exchange Hybrid     =           TRUE
    MP2 Hybrid          =          FALSE

   => Exchange Functionals <=

    0.0800   Slater exchange
    0.7200         Becke 88

   => Exact (HF) Exchange <=

    0.2000               HF 

   => Correlation Functionals <=

    0.1900   Vosko, Wilk & Nusair (VWN5_RPA)
    0.8100   Lee, Yang & Parr

   => Molecular Quadrature <=

    Radial Scheme          =       TREUTLER
    Pruning Scheme         =           FLAT
    Nuclear Scheme         =       TREUTLER

    BS radius alpha        =              1
    Pruning alpha          =              1
    Radial Points          =             75
    Spherical Points       =            302
    Total Points           =         203850
    Total Blocks           =           1576
    Max Points             =            256
    Max Functions          =            123


  -Total Gradient:
     Atom            X                  Y                   Z
    ------   -----------------  -----------------  -----------------
       1        0.000165813518     0.000432823123     0.000000000000
       2       -0.000431259994    -0.000062253215     0.000000000000
       3        0.000284106791    -0.000350956941     0.000000000000
       4        0.000208600437     0.000531418847    -0.002185856193
       5        0.000208600437     0.000531418847     0.002185856193
       6       -0.000572658695    -0.000088577732     0.002176946348
       7       -0.000572658695    -0.000088577732    -0.002176946348
       8        0.000353775492    -0.000453325406    -0.002182556524
       9        0.000353775492    -0.000453325406     0.002182556524


*** tstop() called on atlantis at Tue Apr 19 14:31:47 2022
Module time:
	user time   =       2.45 seconds =       0.04 minutes
	system time =       0.03 seconds =       0.00 minutes
	total time  =          3 seconds =       0.05 minutes
Total time:
	user time   =      28.60 seconds =       0.48 minutes
	system time =       0.29 seconds =       0.00 minutes
	total time  =         29 seconds =       0.48 minutes

  //>>>>>>>>>>>>>>>>>>>>>>>>>>>>>>>>>>>//
  //    Loading displacement 2 of 34   //
  //<<<<<<<<<<<<<<<<<<<<<<<<<<<<<<<<<<<//
gradient() will perform analytic gradient computation.

*** tstart() called on atlantis
*** at Tue Apr 19 14:31:47 2022

   => Loading Basis Set <=

    Name: AUG-CC-PVDZ
    Role: ORBITAL
    Keyword: BASIS
    atoms 1-3 entry C          line   178 file /home/akrom/software/anaconda3/envs/ffpenv/share/psi4/basis/aug-cc-pvdz.gbs 
    atoms 4-9 entry H          line    36 file /home/akrom/software/anaconda3/envs/ffpenv/share/psi4/basis/aug-cc-pvdz.gbs 


         ---------------------------------------------------------
                                   SCF
               by Justin Turney, Rob Parrish, Andy Simmonett
                          and Daniel G. A. Smith
                              RKS Reference
                        1 Threads,    500 MiB Core
         ---------------------------------------------------------

  ==> Geometry <==

    Molecular point group: cs
    Full point group: Cs

    Geometry (in Angstrom), charge = 0, multiplicity = 1:

       Center              X                  Y                   Z               Mass       
    ------------   -----------------  -----------------  -----------------  -----------------
         C            0.320981935461     0.813179232929     0.000000000000    12.000000000000
         C           -0.864778117207    -0.127947314912     0.000000000000    12.000000000000
         C            0.543659460418    -0.685217540638     0.000000000000    12.000000000000
         H            0.538602639069     1.360553886373    -0.920390000000     1.007825032230
         H            0.538602639069     1.360553886373     0.920390000000     1.007825032230
         H           -1.447170192407    -0.214118381478     0.920340000000     1.007825032230
         H           -1.447170192407    -0.214118381478    -0.920340000000     1.007825032230
         H            0.909381512053    -1.146521099385    -0.920370000000     1.007825032230
         H            0.909381512053    -1.146521099385     0.920370000000     1.007825032230

  Running in cs symmetry.

  Rotational constants: A =      0.66511  B =      0.66452  C =      0.41655 [cm^-1]
  Rotational constants: A =  19939.46144  B =  19921.88173  C =  12487.97026 [MHz]
  Nuclear repulsion =   75.286659304380962

  Charge       = 0
  Multiplicity = 1
  Electrons    = 24
  Nalpha       = 12
  Nbeta        = 12

  ==> Algorithm <==

  SCF Algorithm Type is DF.
  DIIS enabled.
  MOM disabled.
  Fractional occupation disabled.
  Guess Type is SAD.
  Energy threshold   = 1.00e-08
  Density threshold  = 1.00e-08
  Integral threshold = 0.00e+00

  ==> Primary Basis <==

  Basis Set: AUG-CC-PVDZ
    Blend: AUG-CC-PVDZ
    Number of shells: 57
    Number of basis function: 123
    Number of Cartesian functions: 129
    Spherical Harmonics?: true
    Max angular momentum: 2

  ==> DFT Potential <==

   => Composite Functional: B3LYP <= 

    B3LYP Hyb-GGA Exchange-Correlation Functional

    P. J. Stephens, F. J. Devlin, C. F. Chabalowski, and M. J. Frisch, J. Phys. Chem. 98, 11623 (1994)

    Deriv               =              1
    GGA                 =           TRUE
    Meta                =          FALSE

    Exchange Hybrid     =           TRUE
    MP2 Hybrid          =          FALSE

   => Exchange Functionals <=

    0.0800   Slater exchange
    0.7200         Becke 88

   => Exact (HF) Exchange <=

    0.2000               HF 

   => Correlation Functionals <=

    0.1900   Vosko, Wilk & Nusair (VWN5_RPA)
    0.8100   Lee, Yang & Parr

   => Molecular Quadrature <=

    Radial Scheme          =       TREUTLER
    Pruning Scheme         =           FLAT
    Nuclear Scheme         =       TREUTLER

    BS radius alpha        =              1
    Pruning alpha          =              1
    Radial Points          =             75
    Spherical Points       =            302
    Total Points           =         203850
    Total Blocks           =           1568
    Max Points             =            256
    Max Functions          =            123

   => Loading Basis Set <=

    Name: (AUG-CC-PVDZ AUX)
    Role: JKFIT
    Keyword: DF_BASIS_SCF
    atoms 1-3 entry C          line   154 file /home/akrom/software/anaconda3/envs/ffpenv/share/psi4/basis/aug-cc-pvdz-jkfit.gbs 
    atoms 4-9 entry H          line    70 file /home/akrom/software/anaconda3/envs/ffpenv/share/psi4/basis/aug-cc-pvdz-jkfit.gbs 

  ==> Pre-Iterations <==

   -------------------------------------------------------
    Irrep   Nso     Nmo     Nalpha   Nbeta   Ndocc  Nsocc
   -------------------------------------------------------
     A'        75      75       0       0       0       0
     A"        48      48       0       0       0       0
   -------------------------------------------------------
    Total     123     123      12      12      12       0
   -------------------------------------------------------

  ==> Integral Setup <==

  DFHelper Memory: AOs need 0.055 GiB; user supplied 0.055 GiB. Using in-core AOs.

  ==> MemDFJK: Density-Fitted J/K Matrices <==

    J tasked:                   Yes
    K tasked:                   Yes
    wK tasked:                   No
    OpenMP threads:               1
    Memory [MiB]:                56
    Algorithm:                 Core
    Schwarz Cutoff:           1E-12
    Mask sparsity (%):       0.0000
    Fitting Condition:        1E-10

   => Auxiliary Basis Set <=

  Basis Set: (AUG-CC-PVDZ AUX)
    Blend: AUG-CC-PVDZ-JKFIT
    Number of shells: 156
    Number of basis function: 450
    Number of Cartesian functions: 513
    Spherical Harmonics?: true
    Max angular momentum: 3

  Cached 50.0% of DFT collocation blocks in 0.347 [GiB].

  Minimum eigenvalue in the overlap matrix is 1.0767193003E-04.
  Using Symmetric Orthogonalization.

  SCF Guess: Superposition of Atomic Densities via on-the-fly atomic UHF.

  ==> Iterations <==

                           Total Energy        Delta E     RMS |[F,P]|

   @DF-RKS iter SAD:  -117.40027964792287   -1.17400e+02   0.00000e+00 
   @DF-RKS iter   1:  -117.44447054446417   -4.41909e-02   1.02328e-02 DIIS
   @DF-RKS iter   2:  -116.83741635992520    6.07054e-01   1.52259e-02 DIIS
   @DF-RKS iter   3:  -117.90607744704204   -1.06866e+00   5.95817e-04 DIIS
   @DF-RKS iter   4:  -117.90765313012344   -1.57568e-03   1.22505e-04 DIIS
   @DF-RKS iter   5:  -117.90771427760470   -6.11475e-05   1.58051e-05 DIIS
   @DF-RKS iter   6:  -117.90771542356630   -1.14596e-06   8.76805e-07 DIIS
   @DF-RKS iter   7:  -117.90771542521941   -1.65311e-09   9.47523e-07 DIIS
   @DF-RKS iter   8:  -117.90771542881380   -3.59439e-09   7.68842e-08 DIIS
   @DF-RKS iter   9:  -117.90771542884130   -2.74980e-11   3.69928e-09 DIIS
  Energy and wave function converged.


  ==> Post-Iterations <==

    Orbital Energies [Eh]
    ---------------------

    Doubly Occupied:                                                      

       1Ap   -10.188133     2Ap   -10.187785     3Ap   -10.187767  
       4Ap    -0.849650     5Ap    -0.597209     6Ap    -0.597132  
       1App   -0.493267     7Ap    -0.464831     2App   -0.364840  
       3App   -0.364735     8Ap    -0.297353     9Ap    -0.296975  

    Virtual:                                                              

      10Ap    -0.003662     4App    0.010568    11Ap     0.012711  
      12Ap     0.012713     5App    0.048591     6App    0.048600  
      13Ap     0.061254    14Ap     0.073472    15Ap     0.073509  
      16Ap     0.098362     7App    0.101918    17Ap     0.107049  
      18Ap     0.107067    19Ap     0.118305     8App    0.141487  
       9App    0.141512    20Ap     0.147276    21Ap     0.147286  
      22Ap     0.173294    10App    0.177302    23Ap     0.197520  
      11App    0.220215    12App    0.220312    24Ap     0.242165  
      25Ap     0.242357    26Ap     0.263418    27Ap     0.321143  
      28Ap     0.321251    29Ap     0.342933    30Ap     0.342988  
      13App    0.358567    14App    0.365670    15App    0.365710  
      16App    0.369088    17App    0.432937    18App    0.432967  
      31Ap     0.435225    19App    0.447878    32Ap     0.457922  
      33Ap     0.470310    34Ap     0.470497    35Ap     0.485053  
      20App    0.497359    36Ap     0.510896    37Ap     0.510904  
      21App    0.535501    22App    0.535688    38Ap     0.539091  
      39Ap     0.539164    40Ap     0.591280    23App    0.613895  
      24App    0.613929    41Ap     0.620210    42Ap     0.620249  
      43Ap     0.662183    44Ap     0.691943    45Ap     0.692037  
      46Ap     0.746008    25App    0.748963    26App    0.749009  
      27App    0.813416    47Ap     0.935560    48Ap     0.935749  
      28App    0.975443    49Ap     0.992929    50Ap     0.993011  
      29App    1.011141    30App    1.011257    31App    1.097335  
      51Ap     1.145906    52Ap     1.301836    32App    1.394790  
      33App    1.395108    53Ap     1.402222    54Ap     1.434571  
      55Ap     1.434835    34App    1.546519    35App    1.546756  
      56Ap     1.596671    57Ap     1.596813    58Ap     1.659679  
      36App    1.679843    37App    1.724149    59Ap     1.733530  
      60Ap     1.734072    38App    1.792142    39App    1.809425  
      40App    1.809651    61Ap     1.901869    62Ap     1.902093  
      63Ap     1.964554    41App    2.020114    42App    2.020164  
      64Ap     2.024480    65Ap     2.024595    66Ap     2.047590  
      67Ap     2.252487    68Ap     2.277803    43App    2.298751  
      44App    2.299061    69Ap     2.357979    70Ap     2.358510  
      45App    2.476857    71Ap     2.507245    72Ap     2.507454  
      46App    2.577940    73Ap     2.710972    74Ap     2.829721  
      75Ap     2.830747    47App    2.883128    48App    2.883993  

    Final Occupation by Irrep:
             Ap   App 
    DOCC [     9,    3 ]

  @DF-RKS Final Energy:  -117.90771542884130

   => Energetics <=

    Nuclear Repulsion Energy =             75.2866593043809615
    One-Electron Energy =                -305.8431774608982892
    Two-Electron Energy =                 127.6220299668100893
    DFT Exchange-Correlation Energy =     -14.9732272391340810
    Empirical Dispersion Energy =           0.0000000000000000
    VV10 Nonlocal Energy =                  0.0000000000000000
    Total Energy =                       -117.9077154288412999

Computation Completed


Properties will be evaluated at   0.000000,   0.000000,   0.000000 [a0]

Properties computed using the SCF density matrix

  Nuclear Dipole Moment: [e a0]
     X:     0.0015      Y:    -0.0002      Z:     0.0000

  Electronic Dipole Moment: [e a0]
     X:    -0.0017      Y:     0.0003      Z:     0.0000

  Dipole Moment: [e a0]
     X:    -0.0002      Y:     0.0002      Z:     0.0000     Total:     0.0002

  Dipole Moment: [D]
     X:    -0.0004      Y:     0.0004      Z:     0.0000     Total:     0.0006


*** tstop() called on atlantis at Tue Apr 19 14:31:55 2022
Module time:
	user time   =       8.27 seconds =       0.14 minutes
	system time =       0.03 seconds =       0.00 minutes
	total time  =          8 seconds =       0.13 minutes
Total time:
	user time   =      36.87 seconds =       0.61 minutes
	system time =       0.32 seconds =       0.01 minutes
	total time  =         37 seconds =       0.62 minutes

*** tstart() called on atlantis
*** at Tue Apr 19 14:31:55 2022


         ------------------------------------------------------------
                                   SCF GRAD                          
                          Rob Parrish, Justin Turney,                
                       Andy Simmonett, and Alex Sokolov              
         ------------------------------------------------------------

  ==> Geometry <==

    Molecular point group: cs
    Full point group: Cs

    Geometry (in Angstrom), charge = 0, multiplicity = 1:

       Center              X                  Y                   Z               Mass       
    ------------   -----------------  -----------------  -----------------  -----------------
         C            0.320981935461     0.813179232929     0.000000000000    12.000000000000
         C           -0.864778117207    -0.127947314912     0.000000000000    12.000000000000
         C            0.543659460418    -0.685217540638     0.000000000000    12.000000000000
         H            0.538602639069     1.360553886373    -0.920390000000     1.007825032230
         H            0.538602639069     1.360553886373     0.920390000000     1.007825032230
         H           -1.447170192407    -0.214118381478     0.920340000000     1.007825032230
         H           -1.447170192407    -0.214118381478    -0.920340000000     1.007825032230
         H            0.909381512053    -1.146521099385    -0.920370000000     1.007825032230
         H            0.909381512053    -1.146521099385     0.920370000000     1.007825032230

  Nuclear repulsion =   75.286659304380962

  ==> Basis Set <==

  Basis Set: AUG-CC-PVDZ
    Blend: AUG-CC-PVDZ
    Number of shells: 57
    Number of basis function: 123
    Number of Cartesian functions: 129
    Spherical Harmonics?: true
    Max angular momentum: 2

  ==> DFJKGrad: Density-Fitted SCF Gradients <==

    Gradient:                    1
    J tasked:                  Yes
    K tasked:                  Yes
    wK tasked:                  No
    OpenMP threads:              1
    Integrals threads:           1
    Memory [MiB]:              375
    Schwarz Cutoff:          0E+00
    Fitting Condition:       1E-10

   => Auxiliary Basis Set <=

  Basis Set: (AUG-CC-PVDZ AUX)
    Blend: AUG-CC-PVDZ-JKFIT
    Number of shells: 156
    Number of basis function: 450
    Number of Cartesian functions: 513
    Spherical Harmonics?: true
    Max angular momentum: 3

  ==> DFT Potential <==

   => Composite Functional: B3LYP <= 

    B3LYP Hyb-GGA Exchange-Correlation Functional

    P. J. Stephens, F. J. Devlin, C. F. Chabalowski, and M. J. Frisch, J. Phys. Chem. 98, 11623 (1994)

    Deriv               =              1
    GGA                 =           TRUE
    Meta                =          FALSE

    Exchange Hybrid     =           TRUE
    MP2 Hybrid          =          FALSE

   => Exchange Functionals <=

    0.0800   Slater exchange
    0.7200         Becke 88

   => Exact (HF) Exchange <=

    0.2000               HF 

   => Correlation Functionals <=

    0.1900   Vosko, Wilk & Nusair (VWN5_RPA)
    0.8100   Lee, Yang & Parr

   => Molecular Quadrature <=

    Radial Scheme          =       TREUTLER
    Pruning Scheme         =           FLAT
    Nuclear Scheme         =       TREUTLER

    BS radius alpha        =              1
    Pruning alpha          =              1
    Radial Points          =             75
    Spherical Points       =            302
    Total Points           =         203850
    Total Blocks           =           1568
    Max Points             =            256
    Max Functions          =            123


  -Total Gradient:
     Atom            X                  Y                   Z
    ------   -----------------  -----------------  -----------------
       1       -0.000355144893     0.000152575693     0.000000000000
       2       -0.000172184014     0.000084602128     0.000000000000
       3        0.000321979105    -0.000358851658     0.000000000000
       4        0.000300020360     0.000594274073    -0.002279973686
       5        0.000300020360     0.000594274073     0.002279973686
       6       -0.000554415492    -0.000064477558     0.002182176359
       7       -0.000554415492    -0.000064477558    -0.002182176359
       8        0.000353825619    -0.000473425116    -0.002179489538
       9        0.000353825619    -0.000473425116     0.002179489538


*** tstop() called on atlantis at Tue Apr 19 14:31:58 2022
Module time:
	user time   =       2.44 seconds =       0.04 minutes
	system time =       0.03 seconds =       0.00 minutes
	total time  =          3 seconds =       0.05 minutes
Total time:
	user time   =      39.31 seconds =       0.66 minutes
	system time =       0.35 seconds =       0.01 minutes
	total time  =         40 seconds =       0.67 minutes

  //>>>>>>>>>>>>>>>>>>>>>>>>>>>>>>>>>>>//
  //    Loading displacement 3 of 34   //
  //<<<<<<<<<<<<<<<<<<<<<<<<<<<<<<<<<<<//
gradient() will perform analytic gradient computation.

*** tstart() called on atlantis
*** at Tue Apr 19 14:31:58 2022

   => Loading Basis Set <=

    Name: AUG-CC-PVDZ
    Role: ORBITAL
    Keyword: BASIS
    atoms 1-3 entry C          line   178 file /home/akrom/software/anaconda3/envs/ffpenv/share/psi4/basis/aug-cc-pvdz.gbs 
    atoms 4-9 entry H          line    36 file /home/akrom/software/anaconda3/envs/ffpenv/share/psi4/basis/aug-cc-pvdz.gbs 


         ---------------------------------------------------------
                                   SCF
               by Justin Turney, Rob Parrish, Andy Simmonett
                          and Daniel G. A. Smith
                              RKS Reference
                        1 Threads,    500 MiB Core
         ---------------------------------------------------------

  ==> Geometry <==

    Molecular point group: cs
    Full point group: Cs

    Geometry (in Angstrom), charge = 0, multiplicity = 1:

       Center              X                  Y                   Z               Mass       
    ------------   -----------------  -----------------  -----------------  -----------------
         C            0.322081944250     0.813343688021     0.000000000000    12.000000000000
         C           -0.865318003082    -0.128389764139     0.000000000000    12.000000000000
         C            0.543404419293    -0.684939538412     0.000000000000    12.000000000000
         H            0.537301240642     1.360829034576    -0.920390000000     1.007825032230
         H            0.537301240642     1.360829034576     0.920390000000     1.007825032230
         H           -1.447665927882    -0.214858697572     0.920340000000     1.007825032230
         H           -1.447665927882    -0.214858697572    -0.920340000000     1.007825032230
         H            0.909362367658    -1.146055979665    -0.920370000000     1.007825032230
         H            0.909362367658    -1.146055979665     0.920370000000     1.007825032230

  Running in cs symmetry.

  Rotational constants: A =      0.66489  B =      0.66431  C =      0.41639 [cm^-1]
  Rotational constants: A =  19932.94970  B =  19915.53021  C =  12482.92073 [MHz]
  Nuclear repulsion =   75.276267816162189

  Charge       = 0
  Multiplicity = 1
  Electrons    = 24
  Nalpha       = 12
  Nbeta        = 12

  ==> Algorithm <==

  SCF Algorithm Type is DF.
  DIIS enabled.
  MOM disabled.
  Fractional occupation disabled.
  Guess Type is SAD.
  Energy threshold   = 1.00e-08
  Density threshold  = 1.00e-08
  Integral threshold = 0.00e+00

  ==> Primary Basis <==

  Basis Set: AUG-CC-PVDZ
    Blend: AUG-CC-PVDZ
    Number of shells: 57
    Number of basis function: 123
    Number of Cartesian functions: 129
    Spherical Harmonics?: true
    Max angular momentum: 2

  ==> DFT Potential <==

   => Composite Functional: B3LYP <= 

    B3LYP Hyb-GGA Exchange-Correlation Functional

    P. J. Stephens, F. J. Devlin, C. F. Chabalowski, and M. J. Frisch, J. Phys. Chem. 98, 11623 (1994)

    Deriv               =              1
    GGA                 =           TRUE
    Meta                =          FALSE

    Exchange Hybrid     =           TRUE
    MP2 Hybrid          =          FALSE

   => Exchange Functionals <=

    0.0800   Slater exchange
    0.7200         Becke 88

   => Exact (HF) Exchange <=

    0.2000               HF 

   => Correlation Functionals <=

    0.1900   Vosko, Wilk & Nusair (VWN5_RPA)
    0.8100   Lee, Yang & Parr

   => Molecular Quadrature <=

    Radial Scheme          =       TREUTLER
    Pruning Scheme         =           FLAT
    Nuclear Scheme         =       TREUTLER

    BS radius alpha        =              1
    Pruning alpha          =              1
    Radial Points          =             75
    Spherical Points       =            302
    Total Points           =         203850
    Total Blocks           =           1573
    Max Points             =            256
    Max Functions          =            123

   => Loading Basis Set <=

    Name: (AUG-CC-PVDZ AUX)
    Role: JKFIT
    Keyword: DF_BASIS_SCF
    atoms 1-3 entry C          line   154 file /home/akrom/software/anaconda3/envs/ffpenv/share/psi4/basis/aug-cc-pvdz-jkfit.gbs 
    atoms 4-9 entry H          line    70 file /home/akrom/software/anaconda3/envs/ffpenv/share/psi4/basis/aug-cc-pvdz-jkfit.gbs 

  ==> Pre-Iterations <==

   -------------------------------------------------------
    Irrep   Nso     Nmo     Nalpha   Nbeta   Ndocc  Nsocc
   -------------------------------------------------------
     A'        75      75       0       0       0       0
     A"        48      48       0       0       0       0
   -------------------------------------------------------
    Total     123     123      12      12      12       0
   -------------------------------------------------------

  ==> Integral Setup <==

  DFHelper Memory: AOs need 0.055 GiB; user supplied 0.055 GiB. Using in-core AOs.

  ==> MemDFJK: Density-Fitted J/K Matrices <==

    J tasked:                   Yes
    K tasked:                   Yes
    wK tasked:                   No
    OpenMP threads:               1
    Memory [MiB]:                56
    Algorithm:                 Core
    Schwarz Cutoff:           1E-12
    Mask sparsity (%):       0.0000
    Fitting Condition:        1E-10

   => Auxiliary Basis Set <=

  Basis Set: (AUG-CC-PVDZ AUX)
    Blend: AUG-CC-PVDZ-JKFIT
    Number of shells: 156
    Number of basis function: 450
    Number of Cartesian functions: 513
    Spherical Harmonics?: true
    Max angular momentum: 3

  Cached 50.0% of DFT collocation blocks in 0.339 [GiB].

  Minimum eigenvalue in the overlap matrix is 1.0781869769E-04.
  Using Symmetric Orthogonalization.

  SCF Guess: Superposition of Atomic Densities via on-the-fly atomic UHF.

  ==> Iterations <==

                           Total Energy        Delta E     RMS |[F,P]|

   @DF-RKS iter SAD:  -117.39941937319679   -1.17399e+02   0.00000e+00 
   @DF-RKS iter   1:  -117.44490714384185   -4.54878e-02   1.02274e-02 DIIS
   @DF-RKS iter   2:  -116.83932776093778    6.05579e-01   1.52123e-02 DIIS
   @DF-RKS iter   3:  -117.90607984758029   -1.06675e+00   5.95857e-04 DIIS
   @DF-RKS iter   4:  -117.90765505699315   -1.57521e-03   1.22601e-04 DIIS
   @DF-RKS iter   5:  -117.90771630506575   -6.12481e-05   1.57832e-05 DIIS
   @DF-RKS iter   6:  -117.90771744801039   -1.14294e-06   8.95216e-07 DIIS
   @DF-RKS iter   7:  -117.90771744955751   -1.54712e-09   9.77394e-07 DIIS
   @DF-RKS iter   8:  -117.90771745338603   -3.82852e-09   7.48822e-08 DIIS
   @DF-RKS iter   9:  -117.90771745341246   -2.64322e-11   3.68564e-09 DIIS
  Energy and wave function converged.


  ==> Post-Iterations <==

    Orbital Energies [Eh]
    ---------------------

    Doubly Occupied:                                                      

       1Ap   -10.188155     2Ap   -10.187807     3Ap   -10.187790  
       4Ap    -0.849455     5Ap    -0.597247     6Ap    -0.597165  
       1App   -0.493254     7Ap    -0.464738     2App   -0.364941  
       3App   -0.364825     8Ap    -0.297289     9Ap    -0.296914  

    Virtual:                                                              

      10Ap    -0.003659     4App    0.010588    11Ap     0.012710  
      12Ap     0.012713     5App    0.048588     6App    0.048599  
      13Ap     0.061253    14Ap     0.073477    15Ap     0.073515  
      16Ap     0.098298     7App    0.101961    17Ap     0.107045  
      18Ap     0.107066    19Ap     0.118309     8App    0.141482  
       9App    0.141509    20Ap     0.147259    21Ap     0.147278  
      22Ap     0.173196    10App    0.177337    23Ap     0.197502  
      11App    0.220222    12App    0.220326    24Ap     0.242106  
      25Ap     0.242288    26Ap     0.263470    27Ap     0.321061  
      28Ap     0.321168    29Ap     0.342930    30Ap     0.342991  
      13App    0.358569    14App    0.365661    15App    0.365705  
      16App    0.369083    17App    0.432910    18App    0.432964  
      31Ap     0.435205    19App    0.447870    32Ap     0.457887  
      33Ap     0.470242    34Ap     0.470429    35Ap     0.485056  
      20App    0.497359    36Ap     0.510895    37Ap     0.510907  
      21App    0.535521    22App    0.535720    38Ap     0.539006  
      39Ap     0.539083    40Ap     0.591173    23App    0.613907  
      24App    0.613941    41Ap     0.620136    42Ap     0.620190  
      43Ap     0.662156    44Ap     0.691890    45Ap     0.691988  
      46Ap     0.746230    25App    0.748959    26App    0.748999  
      27App    0.813379    47Ap     0.935675    48Ap     0.935896  
      28App    0.975483    49Ap     0.992841    50Ap     0.992946  
      29App    1.011121    30App    1.011235    31App    1.097298  
      51Ap     1.145935    52Ap     1.301843    32App    1.394784  
      33App    1.395106    53Ap     1.402120    54Ap     1.434473  
      55Ap     1.434761    34App    1.546503    35App    1.546765  
      56Ap     1.596369    57Ap     1.596503    58Ap     1.659853  
      36App    1.680146    37App    1.724108    59Ap     1.733419  
      60Ap     1.733955    38App    1.792001    39App    1.809410  
      40App    1.809650    61Ap     1.901828    62Ap     1.902052  
      63Ap     1.964466    41App    2.020227    42App    2.020239  
      64Ap     2.024216    65Ap     2.024357    66Ap     2.047536  
      67Ap     2.252288    68Ap     2.277624    43App    2.298857  
      44App    2.299278    69Ap     2.358185    70Ap     2.358714  
      45App    2.476806    71Ap     2.507414    72Ap     2.507625  
      46App    2.578161    73Ap     2.710441    74Ap     2.829604  
      75Ap     2.830711    47App    2.882993    48App    2.883808  

    Final Occupation by Irrep:
             Ap   App 
    DOCC [     9,    3 ]

  @DF-RKS Final Energy:  -117.90771745341246

   => Energetics <=

    Nuclear Repulsion Energy =             75.2762678161621892
    One-Electron Energy =                -305.8226865669338395
    Two-Electron Energy =                 127.6117842842181744
    DFT Exchange-Correlation Energy =     -14.9730829868589961
    Empirical Dispersion Energy =           0.0000000000000000
    VV10 Nonlocal Energy =                  0.0000000000000000
    Total Energy =                       -117.9077174534124595

Computation Completed


Properties will be evaluated at   0.000000,   0.000000,   0.000000 [a0]

Properties computed using the SCF density matrix

  Nuclear Dipole Moment: [e a0]
     X:    -0.0019      Y:    -0.0002      Z:     0.0000

  Electronic Dipole Moment: [e a0]
     X:     0.0020      Y:    -0.0000      Z:     0.0000

  Dipole Moment: [e a0]
     X:     0.0001      Y:    -0.0002      Z:     0.0000     Total:     0.0002

  Dipole Moment: [D]
     X:     0.0003      Y:    -0.0005      Z:     0.0000     Total:     0.0006


*** tstop() called on atlantis at Tue Apr 19 14:32:06 2022
Module time:
	user time   =       8.28 seconds =       0.14 minutes
	system time =       0.04 seconds =       0.00 minutes
	total time  =          8 seconds =       0.13 minutes
Total time:
	user time   =      47.60 seconds =       0.79 minutes
	system time =       0.39 seconds =       0.01 minutes
	total time  =         48 seconds =       0.80 minutes

*** tstart() called on atlantis
*** at Tue Apr 19 14:32:06 2022


         ------------------------------------------------------------
                                   SCF GRAD                          
                          Rob Parrish, Justin Turney,                
                       Andy Simmonett, and Alex Sokolov              
         ------------------------------------------------------------

  ==> Geometry <==

    Molecular point group: cs
    Full point group: Cs

    Geometry (in Angstrom), charge = 0, multiplicity = 1:

       Center              X                  Y                   Z               Mass       
    ------------   -----------------  -----------------  -----------------  -----------------
         C            0.322081944250     0.813343688021     0.000000000000    12.000000000000
         C           -0.865318003082    -0.128389764139     0.000000000000    12.000000000000
         C            0.543404419293    -0.684939538412     0.000000000000    12.000000000000
         H            0.537301240642     1.360829034576    -0.920390000000     1.007825032230
         H            0.537301240642     1.360829034576     0.920390000000     1.007825032230
         H           -1.447665927882    -0.214858697572     0.920340000000     1.007825032230
         H           -1.447665927882    -0.214858697572    -0.920340000000     1.007825032230
         H            0.909362367658    -1.146055979665    -0.920370000000     1.007825032230
         H            0.909362367658    -1.146055979665     0.920370000000     1.007825032230

  Nuclear repulsion =   75.276267816162189

  ==> Basis Set <==

  Basis Set: AUG-CC-PVDZ
    Blend: AUG-CC-PVDZ
    Number of shells: 57
    Number of basis function: 123
    Number of Cartesian functions: 129
    Spherical Harmonics?: true
    Max angular momentum: 2

  ==> DFJKGrad: Density-Fitted SCF Gradients <==

    Gradient:                    1
    J tasked:                  Yes
    K tasked:                  Yes
    wK tasked:                  No
    OpenMP threads:              1
    Integrals threads:           1
    Memory [MiB]:              375
    Schwarz Cutoff:          0E+00
    Fitting Condition:       1E-10

   => Auxiliary Basis Set <=

  Basis Set: (AUG-CC-PVDZ AUX)
    Blend: AUG-CC-PVDZ-JKFIT
    Number of shells: 156
    Number of basis function: 450
    Number of Cartesian functions: 513
    Spherical Harmonics?: true
    Max angular momentum: 3

  ==> DFT Potential <==

   => Composite Functional: B3LYP <= 

    B3LYP Hyb-GGA Exchange-Correlation Functional

    P. J. Stephens, F. J. Devlin, C. F. Chabalowski, and M. J. Frisch, J. Phys. Chem. 98, 11623 (1994)

    Deriv               =              1
    GGA                 =           TRUE
    Meta                =          FALSE

    Exchange Hybrid     =           TRUE
    MP2 Hybrid          =          FALSE

   => Exchange Functionals <=

    0.0800   Slater exchange
    0.7200         Becke 88

   => Exact (HF) Exchange <=

    0.2000               HF 

   => Correlation Functionals <=

    0.1900   Vosko, Wilk & Nusair (VWN5_RPA)
    0.8100   Lee, Yang & Parr

   => Molecular Quadrature <=

    Radial Scheme          =       TREUTLER
    Pruning Scheme         =           FLAT
    Nuclear Scheme         =       TREUTLER

    BS radius alpha        =              1
    Pruning alpha          =              1
    Radial Points          =             75
    Spherical Points       =            302
    Total Points           =         203850
    Total Blocks           =           1573
    Max Points             =            256
    Max Functions          =            123


  -Total Gradient:
     Atom            X                  Y                   Z
    ------   -----------------  -----------------  -----------------
       1        0.000697235380     0.000699255783     0.000000000000
       2       -0.000716385426    -0.000202452325     0.000000000000
       3        0.000257444529    -0.000350690921     0.000000000000
       4        0.000118496330     0.000468655277    -0.002093387946
       5        0.000118496330     0.000468655277     0.002093387946
       6       -0.000591011637    -0.000110763375     0.002171249410
       7       -0.000591011637    -0.000110763375    -0.002171249410
       8        0.000351428883    -0.000435501043    -0.002184914792
       9        0.000351428883    -0.000435501043     0.002184914792


*** tstop() called on atlantis at Tue Apr 19 14:32:08 2022
Module time:
	user time   =       2.48 seconds =       0.04 minutes
	system time =       0.03 seconds =       0.00 minutes
	total time  =          2 seconds =       0.03 minutes
Total time:
	user time   =      50.08 seconds =       0.83 minutes
	system time =       0.42 seconds =       0.01 minutes
	total time  =         50 seconds =       0.83 minutes

  //>>>>>>>>>>>>>>>>>>>>>>>>>>>>>>>>>>>//
  //    Loading displacement 4 of 34   //
  //<<<<<<<<<<<<<<<<<<<<<<<<<<<<<<<<<<<//
gradient() will perform analytic gradient computation.

*** tstart() called on atlantis
*** at Tue Apr 19 14:32:08 2022

   => Loading Basis Set <=

    Name: AUG-CC-PVDZ
    Role: ORBITAL
    Keyword: BASIS
    atoms 1-3 entry C          line   178 file /home/akrom/software/anaconda3/envs/ffpenv/share/psi4/basis/aug-cc-pvdz.gbs 
    atoms 4-9 entry H          line    36 file /home/akrom/software/anaconda3/envs/ffpenv/share/psi4/basis/aug-cc-pvdz.gbs 


         ---------------------------------------------------------
                                   SCF
               by Justin Turney, Rob Parrish, Andy Simmonett
                          and Daniel G. A. Smith
                              RKS Reference
[...]
    MP2 Hybrid          =          FALSE

   => Exchange Functionals <=

    0.0800   Slater exchange
    0.7200         Becke 88

   => Exact (HF) Exchange <=

    0.2000               HF 

   => Correlation Functionals <=

    0.1900   Vosko, Wilk & Nusair (VWN5_RPA)
    0.8100   Lee, Yang & Parr

   => Molecular Quadrature <=

    Radial Scheme          =       TREUTLER
    Pruning Scheme         =           FLAT
    Nuclear Scheme         =       TREUTLER

    BS radius alpha        =              1
    Pruning alpha          =              1
    Radial Points          =             75
    Spherical Points       =            302
    Total Points           =         203850
    Total Blocks           =           1569
    Max Points             =            256
    Max Functions          =            123


  -Total Gradient:
     Atom            X                  Y                   Z
    ------   -----------------  -----------------  -----------------
       1        0.000165519718     0.000433043156     0.000004266715
       2       -0.000431837069    -0.000062338355     0.000450663876
       3        0.000285179866    -0.000353756371    -0.001257573036
       4        0.000205781541     0.000525121750    -0.002186940493
       5        0.000211661745     0.000537601736     0.002184786920
       6       -0.000395348973    -0.000084429219     0.001894946621
       7       -0.000749265853    -0.000092709261    -0.002458249501
       8       -0.000005588756    -0.000091016943    -0.001495891421
       9        0.000712449788    -0.000813133035     0.002864088980


*** tstop() called on atlantis at Tue Apr 19 14:37:47 2022
Module time:
	user time   =       2.48 seconds =       0.04 minutes
	system time =       0.04 seconds =       0.00 minutes
	total time  =          3 seconds =       0.05 minutes
Total time:
	user time   =     385.73 seconds =       6.43 minutes
	system time =       2.63 seconds =       0.04 minutes
	total time  =        389 seconds =       6.48 minutes

         ----------------------------------------------------------
                                   FINDIF
                     R. A. King and Jonathon Misiewicz
         ---------------------------------------------------------

  Computing second-derivative from gradients using projected, 
  symmetry-adapted, cartesian coordinates.

  34 gradients passed in, including the reference geometry.
  Generating complete list of displacements from unique ones.

    Operation 2 takes plus displacements of irrep A" to minus ones.

-------------------------------------------------------------


  ==> Harmonic Vibrational Analysis <==

  non-mass-weighted Hessian:       Symmetric? True   Hermitian? True   Lin Dep Dim?  6 (0)
  projection of translations (True) and rotations (True) removed 6 degrees of freedom (6)
  total projector:                 Symmetric? True   Hermitian? True   Lin Dep Dim?  6 (6)
  mass-weighted Hessian:           Symmetric? True   Hermitian? True   Lin Dep Dim?  6 (0)
  pre-proj  low-frequency mode:    0.0000i [cm^-1]
  pre-proj  low-frequency mode:    0.0000i [cm^-1]
  pre-proj  low-frequency mode:    0.0000i [cm^-1]
  pre-proj  low-frequency mode:    0.0000  [cm^-1]
  pre-proj  low-frequency mode:    0.0000  [cm^-1]
  pre-proj  low-frequency mode:    0.0000  [cm^-1]
  pre-proj  all modes:['0.0000i' '0.0000i' '0.0000i' '0.0000' '0.0000' '0.0000' '750.5646'
 '750.7414' '868.7694' '872.4737' '873.0093' '1040.4310' '1043.7059'
 '1066.1927' '1145.0579' '1202.6683' '1202.7984' '1207.4233' '1461.0177'
 '1461.2541' '1509.4578' '3101.1631' '3101.2936' '3109.4690' '3184.5391'
 '3184.5626' '3205.5955']
  projected mass-weighted Hessian: Symmetric? True   Hermitian? True   Lin Dep Dim?  6 (6)
  post-proj low-frequency mode:    0.0000i [cm^-1] (TR)
  post-proj low-frequency mode:    0.0000i [cm^-1] (TR)
  post-proj low-frequency mode:    0.0000i [cm^-1] (TR)
  post-proj low-frequency mode:    0.0000i [cm^-1] (TR)
  post-proj low-frequency mode:    0.0000i [cm^-1] (TR)
  post-proj low-frequency mode:    0.0000  [cm^-1] (TR)
  post-proj  all modes:['0.0000i' '0.0000i' '0.0000i' '0.0000i' '0.0000i' '0.0000' '750.5646'
 '750.7414' '868.7694' '872.4737' '873.0093' '1040.4310' '1043.7059'
 '1066.1927' '1145.0579' '1202.6683' '1202.7984' '1207.4233' '1461.0177'
 '1461.2541' '1509.4578' '3101.1631' '3101.2936' '3109.4690' '3184.5391'
 '3184.5626' '3205.5955']

  Vibration                       7                   8                   9           
  Freq [cm^-1]                 750.5646            750.7414            868.7694       
  Irrep                          App                 App                 App          
  Reduced mass [u]              1.0213              1.0213              1.0440        
  Force const [mDyne/A]         0.3390              0.3391              0.4643        
  Turning point v=0 [a0]        0.3963              0.3963              0.3643        
  RMS dev v=0 [a0 u^1/2]        0.2832              0.2832              0.2632        
  Char temp [K]               1079.8954           1080.1498           1249.9657       
  ----------------------------------------------------------------------------------
      1   C                0.00  0.00  0.03    0.00  0.00  0.00    0.00 -0.00 -0.03   
      2   C                0.00 -0.00 -0.01    0.00  0.00 -0.03   -0.00 -0.00 -0.03   
      3   C               -0.00 -0.00 -0.02   -0.00  0.00  0.02    0.00  0.00 -0.03   
      4   H               -0.14 -0.29 -0.18    0.41 -0.18 -0.01    0.13  0.33  0.20   
      5   H                0.14  0.29 -0.18   -0.41  0.18 -0.01   -0.13 -0.33  0.20   
      6   H                0.20 -0.37  0.08    0.25  0.25  0.16    0.35  0.05  0.20   
      7   H               -0.20  0.37  0.08   -0.25 -0.25  0.16   -0.35 -0.05  0.20   
      8   H                0.40  0.10  0.10    0.02  0.36 -0.15    0.22 -0.28  0.20   
      9   H               -0.40 -0.10  0.10   -0.02 -0.36 -0.15   -0.22  0.28  0.20   

  Vibration                       10                  11                  12          
  Freq [cm^-1]                 872.4737            873.0093           1040.4310       
  Irrep                           Ap                  Ap                  Ap          
  Reduced mass [u]              3.8643              3.8602              1.2505        
  Force const [mDyne/A]         1.7331              1.7334              0.7976        
  Turning point v=0 [a0]        0.1890              0.1890              0.3042        
  RMS dev v=0 [a0 u^1/2]        0.2627              0.2626              0.2405        
  Char temp [K]               1255.2955           1256.0660           1496.9485       
  ----------------------------------------------------------------------------------
      1   C               -0.20  0.20 -0.00   -0.20 -0.23  0.00    0.05  0.00 -0.00   
      2   C                0.30  0.08 -0.00   -0.08  0.27  0.00    0.02 -0.12 -0.00   
      3   C               -0.06 -0.29 -0.00    0.29 -0.08  0.00   -0.07 -0.03 -0.00   
      4   H               -0.33  0.24 -0.01   -0.24 -0.17  0.03   -0.20  0.08 -0.01   
      5   H               -0.33  0.24  0.01   -0.24 -0.17 -0.03   -0.20  0.08  0.01   
      6   H                0.24  0.10 -0.03   -0.10  0.41  0.00   -0.08  0.56 -0.00   
      7   H                0.24  0.10  0.03   -0.10  0.41 -0.00   -0.08  0.56  0.00   
      8   H               -0.16 -0.33 -0.02    0.33  0.00 -0.03    0.28  0.22  0.01   
      9   H               -0.16 -0.33  0.02    0.33  0.00  0.03    0.28  0.22 -0.01   

  Vibration                       13                  14                  15          
  Freq [cm^-1]                1043.7059           1066.1927           1145.0579       
  Irrep                           Ap                  Ap                 App          
  Reduced mass [u]              1.2508              1.4253              1.0078        
  Force const [mDyne/A]         0.8028              0.9546              0.7786        
  Turning point v=0 [a0]        0.3037              0.2815              0.3230        
  RMS dev v=0 [a0 u^1/2]        0.2402              0.2376              0.2293        
  Char temp [K]               1501.6605           1534.0140           1647.4834       
  ----------------------------------------------------------------------------------
      1   C               -0.10  0.05  0.00   -0.10  0.04 -0.00    0.00  0.00  0.00   
      2   C                0.02  0.02  0.00    0.02 -0.11 -0.00   -0.00  0.00  0.00   
      3   C               -0.06 -0.07  0.00    0.09  0.07  0.00   -0.00 -0.00 -0.00   
      4   H                0.50 -0.20 -0.01    0.36 -0.14  0.00   -0.38  0.15  0.00   
      5   H                0.50 -0.20  0.01    0.36 -0.14 -0.00    0.38 -0.15  0.00   
      6   H                0.01 -0.07 -0.02   -0.06  0.40  0.00   -0.06  0.40 -0.00   
      7   H                0.01 -0.07  0.02   -0.06  0.40 -0.00    0.06 -0.40 -0.00   
      8   H                0.34  0.28 -0.01   -0.32 -0.26  0.00    0.32  0.25  0.00   
      9   H                0.34  0.28  0.01   -0.32 -0.26 -0.00   -0.32 -0.25  0.00   

  Vibration                       16                  17                  18          
  Freq [cm^-1]                1202.6683           1202.7984           1207.4233       
  Irrep                          App                 App                  Ap          
  Reduced mass [u]              1.4510              1.4509              2.6930        
  Force const [mDyne/A]         1.2365              1.2367              2.3131        
  Turning point v=0 [a0]        0.2627              0.2627              0.1924        
  RMS dev v=0 [a0 u^1/2]        0.2237              0.2237              0.2233        
  Char temp [K]               1730.3719           1730.5591           1737.2133       
  ----------------------------------------------------------------------------------
      1   C                0.00  0.00  0.16    0.00  0.00 -0.01   -0.08 -0.21  0.00   
      2   C               -0.00 -0.00 -0.09   -0.00  0.00 -0.14    0.22  0.03 -0.00   
      3   C                0.00 -0.00 -0.08   -0.00 -0.00  0.14   -0.14  0.18 -0.00   
      4   H               -0.16 -0.37 -0.09   -0.36  0.16  0.00   -0.14 -0.34 -0.06   
      5   H                0.16  0.37 -0.09    0.36 -0.16  0.00   -0.14 -0.34  0.06   
      6   H                0.16  0.36  0.05    0.37 -0.15  0.07    0.37  0.06  0.07   
      7   H               -0.16 -0.36  0.05   -0.37  0.15  0.07    0.37  0.06 -0.07   
      8   H               -0.15 -0.36  0.04   -0.36  0.16 -0.08   -0.23  0.29 -0.06   
      9   H                0.15  0.36  0.04    0.36 -0.16 -0.08   -0.23  0.29  0.06   

  Vibration                       19                  20                  21          
  Freq [cm^-1]                1461.0177           1461.2541           1509.4578       
  Irrep                           Ap                  Ap                  Ap          
  Reduced mass [u]              1.0886              1.0887              1.3233        
  Force const [mDyne/A]         1.3691              1.3697              1.7764        
  Turning point v=0 [a0]        0.2751              0.2751              0.2455        
  RMS dev v=0 [a0 u^1/2]        0.2030              0.2030              0.1997        
  Char temp [K]               2102.0792           2102.4193           2171.7737       
  ----------------------------------------------------------------------------------
      1   C               -0.01 -0.05  0.00   -0.03 -0.05  0.00   -0.04 -0.09  0.00   
      2   C                0.02 -0.01 -0.00   -0.06 -0.01  0.00    0.10  0.01 -0.00   
      3   C                0.04 -0.05  0.00   -0.02  0.00 -0.00   -0.06  0.08 -0.00   
      4   H                0.10  0.29  0.22    0.14  0.33  0.25    0.11  0.29  0.25   
      5   H                0.10  0.29 -0.22    0.14  0.33 -0.25    0.11  0.29 -0.25   
      6   H               -0.15 -0.01 -0.11    0.44  0.07  0.31   -0.31 -0.05 -0.26   
      7   H               -0.15 -0.01  0.11    0.44  0.07 -0.31   -0.31 -0.05  0.26   
      8   H               -0.29  0.37 -0.32    0.07 -0.06  0.06    0.19 -0.24  0.25   
      9   H               -0.29  0.37  0.32    0.07 -0.06 -0.06    0.19 -0.24 -0.25   

  Vibration                       22                  23                  24          
  Freq [cm^-1]                3101.1631           3101.2936           3109.4690       
  Irrep                           Ap                  Ap                  Ap          
  Reduced mass [u]              1.0501              1.0502              1.0629        
  Force const [mDyne/A]         5.9504              5.9513              6.0553        
  Turning point v=0 [a0]        0.1923              0.1923              0.1909        
  RMS dev v=0 [a0 u^1/2]        0.1393              0.1393              0.1391        
  Char temp [K]               4461.8832           4462.0710           4473.8335       
  ----------------------------------------------------------------------------------
      1   C                0.00  0.01  0.00    0.02  0.05  0.00    0.01  0.04  0.00   
      2   C                0.05  0.01  0.00    0.02  0.00  0.00   -0.04 -0.01 -0.00   
      3   C                0.03 -0.03  0.00   -0.02  0.02 -0.00    0.03 -0.03  0.00   
      4   H               -0.01 -0.03  0.06   -0.11 -0.28  0.49   -0.08 -0.19  0.35   
      5   H               -0.01 -0.03 -0.06   -0.11 -0.28 -0.49   -0.08 -0.19 -0.35   
      6   H               -0.27 -0.04  0.45   -0.12 -0.02  0.19    0.21  0.03 -0.35   
      7   H               -0.27 -0.04 -0.45   -0.12 -0.02 -0.19    0.21  0.03  0.35   
      8   H               -0.15  0.19  0.40    0.11 -0.14 -0.29   -0.13  0.16  0.35   
      9   H               -0.15  0.19 -0.40    0.11 -0.14  0.29   -0.13  0.16 -0.35   

  Vibration                       25                  26                  27          
  Freq [cm^-1]                3184.5391           3184.5626           3205.5955       
  Irrep                          App                 App                 App          
  Reduced mass [u]              1.1201              1.1201              1.1162        
  Force const [mDyne/A]         6.6926              6.6928              6.7578        
  Turning point v=0 [a0]        0.1837              0.1837              0.1834        
  RMS dev v=0 [a0 u^1/2]        0.1375              0.1375              0.1370        
  Char temp [K]               4581.8427           4581.8766           4612.1382       
  ----------------------------------------------------------------------------------
      1   C               -0.00 -0.00  0.03    0.00  0.00 -0.08    0.00  0.00 -0.06   
      2   C                0.00  0.00 -0.08   -0.00 -0.00  0.01    0.00 -0.00 -0.06   
      3   C               -0.00  0.00  0.05   -0.00 -0.00  0.07   -0.00 -0.00 -0.06   
      4   H                0.04  0.12 -0.20   -0.10 -0.26  0.44   -0.08 -0.21  0.34   
      5   H               -0.04 -0.12 -0.20    0.10  0.26  0.44    0.08  0.21  0.34   
      6   H               -0.30 -0.05  0.48    0.03  0.00 -0.05   -0.22 -0.03  0.34   
      7   H                0.30  0.05  0.48   -0.03 -0.00 -0.05    0.22  0.03  0.34   
      8   H                0.11 -0.14 -0.28    0.16 -0.19 -0.39   -0.14  0.17  0.34   
      9   H               -0.11  0.14 -0.28   -0.16  0.19 -0.39    0.14 -0.17  0.34   

  ==> Thermochemistry Components <==

  Entropy, S
    Electronic S            0.000 [cal/(mol K)]        0.000 [J/(mol K)]       0.00000000 [mEh/K] (multiplicity = 1)
    Translational S        37.135 [cal/(mol K)]      155.375 [J/(mol K)]       0.05917914 [mEh/K] (mol. weight = 42.0470 [u], P = 101325.00 [Pa])
    Rotational S           21.699 [cal/(mol K)]       90.789 [J/(mol K)]       0.03457982 [mEh/K] (symmetry no. = 1)
    Vibrational S           1.414 [cal/(mol K)]        5.918 [J/(mol K)]       0.00225387 [mEh/K]
  Total S                  60.249 [cal/(mol K)]      252.082 [J/(mol K)]       0.09601283 [mEh/K]
  Correction S              0.000 [cal/(mol K)]        0.000 [J/(mol K)]       0.00000000 [mEh/K]

  Constant volume heat capacity, Cv
    Electronic Cv           0.000 [cal/(mol K)]        0.000 [J/(mol K)]       0.00000000 [mEh/K]
    Translational Cv        2.981 [cal/(mol K)]       12.472 [J/(mol K)]       0.00475022 [mEh/K]
    Rotational Cv           2.981 [cal/(mol K)]       12.472 [J/(mol K)]       0.00475022 [mEh/K]
    Vibrational Cv          5.163 [cal/(mol K)]       21.602 [J/(mol K)]       0.00822795 [mEh/K]
  Total Cv                 11.125 [cal/(mol K)]       46.546 [J/(mol K)]       0.01772839 [mEh/K]
  Correction Cv             0.000 [cal/(mol K)]        0.000 [J/(mol K)]       0.00000000 [mEh/K]

  Constant pressure heat capacity, Cp
    Electronic Cp           0.000 [cal/(mol K)]        0.000 [J/(mol K)]       0.00000000 [mEh/K]
    Translational Cp        4.968 [cal/(mol K)]       20.786 [J/(mol K)]       0.00791703 [mEh/K]
    Rotational Cp           2.981 [cal/(mol K)]       12.472 [J/(mol K)]       0.00475022 [mEh/K]
    Vibrational Cp          5.163 [cal/(mol K)]       21.602 [J/(mol K)]       0.00822795 [mEh/K]
  Total Cp                 13.112 [cal/(mol K)]       54.860 [J/(mol K)]       0.02089520 [mEh/K]
  Correction Cp             0.000 [cal/(mol K)]        0.000 [J/(mol K)]       0.00000000 [mEh/K]

  ==> Thermochemistry Energy Analysis <==

  Raw electronic energy, E0
  Total E0, Electronic energy at well bottom at 0 [K]                 -117.90771407 [Eh]

  Zero-point energy, ZPE_vib = Sum_i nu_i / 2
    Electronic ZPE          0.000 [kcal/mol]        0.000 [kJ/mol]       0.00000000 [Eh]
    Translational ZPE       0.000 [kcal/mol]        0.000 [kJ/mol]       0.00000000 [Eh]
    Rotational ZPE          0.000 [kcal/mol]        0.000 [kJ/mol]       0.00000000 [Eh]
    Vibrational ZPE        50.524 [kcal/mol]      211.393 [kJ/mol]       0.08051543 [Eh]       17671.094 [cm^-1]
  Correction ZPE           50.524 [kcal/mol]      211.393 [kJ/mol]       0.08051543 [Eh]       17671.094 [cm^-1]
  Total ZPE, Electronic energy at 0 [K]                               -117.82719864 [Eh]

  Thermal Energy, E (includes ZPE)
    Electronic E            0.000 [kcal/mol]        0.000 [kJ/mol]       0.00000000 [Eh]
    Translational E         0.889 [kcal/mol]        3.718 [kJ/mol]       0.00141628 [Eh]
    Rotational E            0.889 [kcal/mol]        3.718 [kJ/mol]       0.00141628 [Eh]
    Vibrational E          50.867 [kcal/mol]      212.826 [kJ/mol]       0.08106124 [Eh]
  Correction E             52.644 [kcal/mol]      220.263 [kJ/mol]       0.08389379 [Eh]
  Total E, Electronic energy at  298.15 [K]                           -117.82382028 [Eh]

  Enthalpy, H_trans = E_trans + k_B * T
    Electronic H            0.000 [kcal/mol]        0.000 [kJ/mol]       0.00000000 [Eh]
    Translational H         1.481 [kcal/mol]        6.197 [kJ/mol]       0.00236046 [Eh]
    Rotational H            0.889 [kcal/mol]        3.718 [kJ/mol]       0.00141628 [Eh]
    Vibrational H          50.867 [kcal/mol]      212.826 [kJ/mol]       0.08106124 [Eh]
  Correction H             53.237 [kcal/mol]      222.742 [kJ/mol]       0.08483797 [Eh]
  Total H, Enthalpy at  298.15 [K]                                    -117.82287610 [Eh]

  Gibbs free energy, G = H - T * S
    Electronic G            0.000 [kcal/mol]        0.000 [kJ/mol]       0.00000000 [Eh]
    Translational G        -9.591 [kcal/mol]      -40.128 [kJ/mol]      -0.01528380 [Eh]
    Rotational G           -5.581 [kcal/mol]      -23.350 [kJ/mol]      -0.00889370 [Eh]
    Vibrational G          50.445 [kcal/mol]      211.062 [kJ/mol]       0.08038924 [Eh]
  Correction G             35.273 [kcal/mol]      147.584 [kJ/mol]       0.05621175 [Eh]
  Total G, Free enthalpy at  298.15 [K]                               -117.85150233 [Eh]

    Psi4 stopped on: Tuesday, 19 April 2022 02:37PM
    Psi4 wall time for execution: 0:06:29.00

*** Psi4 exiting successfully. Buy a developer a beer!
