
    -----------------------------------------------------------------------
          Psi4: An Open-Source Ab Initio Electronic Structure Package
                               Psi4 1.3.2 release

                         Git: Rev {HEAD} ecbda83 


    R. M. Parrish, L. A. Burns, D. G. A. Smith, A. C. Simmonett,
    A. E. DePrince III, E. G. Hohenstein, U. Bozkaya, A. Yu. Sokolov,
    R. Di Remigio, R. M. Richard, J. F. Gonthier, A. M. James,
    H. R. McAlexander, A. Kumar, M. Saitow, X. Wang, B. P. Pritchard,
    P. Verma, H. F. Schaefer III, K. Patkowski, R. A. King, E. F. Valeev,
    F. A. Evangelista, J. M. Turney, T. D. Crawford, and C. D. Sherrill,
    J. Chem. Theory Comput. 13(7) pp 3185--3197 (2017).
    (doi: 10.1021/acs.jctc.7b00174)


                         Additional Contributions by
    P. Kraus, H. Kruse, M. H. Lechner, M. C. Schieber, R. A. Shaw,
    A. Alenaizan, R. Galvelis, Z. L. Glick, S. Lehtola, and J. P. Misiewicz

    -----------------------------------------------------------------------


    Psi4 started on: Tuesday, 19 April 2022 02:08AM

    Process ID: 26016
    Host:       atlantis
    PSIDATADIR: /home/akrom/software/anaconda3/envs/ffpenv/share/psi4
    Memory:     500.0 MiB
    Threads:    1
    
  ==> Input File <==

--------------------------------------------------------------------------
set basis  aug-cc-pVDZ
molecule {
0 1
   C       -0.61446        0.00000        0.00000
   C        0.61446        0.00000        0.00000
   H       -1.68923        0.00000        0.00000
   H        1.68923        0.00000        0.00000
}
energy('m06-2x')
frequencies('m06-2x')
--------------------------------------------------------------------------

*** tstart() called on atlantis
*** at Tue Apr 19 02:08:50 2022

   => Loading Basis Set <=

    Name: AUG-CC-PVDZ
    Role: ORBITAL
    Keyword: BASIS
    atoms 1-2 entry C          line   178 file /home/akrom/software/anaconda3/envs/ffpenv/share/psi4/basis/aug-cc-pvdz.gbs 
    atoms 3-4 entry H          line    36 file /home/akrom/software/anaconda3/envs/ffpenv/share/psi4/basis/aug-cc-pvdz.gbs 


         ---------------------------------------------------------
                                   SCF
               by Justin Turney, Rob Parrish, Andy Simmonett
                          and Daniel G. A. Smith
                              RKS Reference
                        1 Threads,    500 MiB Core
         ---------------------------------------------------------

  ==> Geometry <==

    Molecular point group: d2h
    Full point group: D_inf_h

    Geometry (in Angstrom), charge = 0, multiplicity = 1:

       Center              X                  Y                   Z               Mass       
    ------------   -----------------  -----------------  -----------------  -----------------
         C           -0.614460000000    -0.000000000000     0.000000000000    12.000000000000
         C            0.614460000000     0.000000000000     0.000000000000    12.000000000000
         H           -1.689230000000    -0.000000000000     0.000000000000     1.007825032230
         H            1.689230000000     0.000000000000     0.000000000000     1.007825032230

  Running in d2h symmetry.

  Rotational constants: A = ************  B =      1.13802  C =      1.13802 [cm^-1]
  Rotational constants: A = ************  B =  34116.98697  C =  34116.98697 [MHz]
  Nuclear repulsion =   24.323218171379235

  Charge       = 0
  Multiplicity = 1
  Electrons    = 14
  Nalpha       = 7
  Nbeta        = 7

  ==> Algorithm <==

  SCF Algorithm Type is DF.
  DIIS enabled.
  MOM disabled.
  Fractional occupation disabled.
  Guess Type is SAD.
  Energy threshold   = 1.00e-06
  Density threshold  = 1.00e-06
  Integral threshold = 0.00e+00

  ==> Primary Basis <==

  Basis Set: AUG-CC-PVDZ
    Blend: AUG-CC-PVDZ
    Number of shells: 28
    Number of basis function: 64
    Number of Cartesian functions: 68
    Spherical Harmonics?: true
    Max angular momentum: 2

  ==> DFT Potential <==

   => Composite Functional: M06-2X <= 

    Hybrid M06-2X Meta-GGA XC Functional

    Y. Zhao and D. G. Truhlar,  Theor. Chem. Acc., 120, 215, 2008


    Deriv               =              1
    GGA                 =           TRUE
    Meta                =           TRUE

    Exchange Hybrid     =           TRUE
    MP2 Hybrid          =          FALSE

   => Exchange Functionals <=

    1.0000   XC_HYB_MGGA_X_M06_2X

   => Exact (HF) Exchange <=

    0.5400               HF 

   => Correlation Functionals <=

    1.0000   XC_MGGA_C_M06_2X

   => Molecular Quadrature <=

    Radial Scheme          =       TREUTLER
    Pruning Scheme         =           FLAT
    Nuclear Scheme         =       TREUTLER

    BS radius alpha        =              1
    Pruning alpha          =              1
    Radial Points          =             75
    Spherical Points       =            302
    Total Points           =          90600
    Total Blocks           =            752
    Max Points             =            256
    Max Functions          =             64

   => Loading Basis Set <=

    Name: (AUG-CC-PVDZ AUX)
    Role: JKFIT
    Keyword: DF_BASIS_SCF
    atoms 1-2 entry C          line   154 file /home/akrom/software/anaconda3/envs/ffpenv/share/psi4/basis/aug-cc-pvdz-jkfit.gbs 
    atoms 3-4 entry H          line    70 file /home/akrom/software/anaconda3/envs/ffpenv/share/psi4/basis/aug-cc-pvdz-jkfit.gbs 

  ==> Pre-Iterations <==

   -------------------------------------------------------
    Irrep   Nso     Nmo     Nalpha   Nbeta   Ndocc  Nsocc
   -------------------------------------------------------
     Ag        16      16       0       0       0       0
     B1g        7       7       0       0       0       0
     B2g        7       7       0       0       0       0
     B3g        2       2       0       0       0       0
     Au         2       2       0       0       0       0
     B1u        7       7       0       0       0       0
     B2u        7       7       0       0       0       0
     B3u       16      16       0       0       0       0
   -------------------------------------------------------
    Total      64      64       7       7       7       0
   -------------------------------------------------------

  ==> Integral Setup <==

  DFHelper Memory: AOs need 0.008 GiB; user supplied 0.008 GiB. Using in-core AOs.

  ==> MemDFJK: Density-Fitted J/K Matrices <==

    J tasked:                   Yes
    K tasked:                   Yes
    wK tasked:                   No
    OpenMP threads:               1
    Memory [MiB]:                 8
    Algorithm:                 Core
    Schwarz Cutoff:           1E-12
    Mask sparsity (%):       0.0000
    Fitting Condition:        1E-10

   => Auxiliary Basis Set <=

  Basis Set: (AUG-CC-PVDZ AUX)
    Blend: AUG-CC-PVDZ-JKFIT
    Number of shells: 80
    Number of basis function: 236
    Number of Cartesian functions: 272
    Spherical Harmonics?: true
    Max angular momentum: 3

  Cached 100.0% of DFT collocation blocks in 0.410 [GiB].

  Minimum eigenvalue in the overlap matrix is 3.8568108127E-05.
  Using Symmetric Orthogonalization.

  SCF Guess: Superposition of Atomic Densities via on-the-fly atomic UHF.

  ==> Iterations <==

                           Total Energy        Delta E     RMS |[F,P]|

   @DF-RKS iter SAD:   -76.53059338534455   -7.65306e+01   0.00000e+00 
   @DF-RKS iter   1:   -77.19091229913724   -6.60319e-01   1.59458e-02 DIIS
   @DF-RKS iter   2:   -77.24131969408225   -5.04074e-02   1.17689e-02 DIIS
   @DF-RKS iter   3:   -77.30140189793603   -6.00822e-02   3.07069e-04 DIIS
   @DF-RKS iter   4:   -77.30144211161193   -4.02137e-05   1.61452e-05 DIIS
   @DF-RKS iter   5:   -77.30144225546969   -1.43858e-07   2.66354e-06 DIIS
   @DF-RKS iter   6:   -77.30144225783739   -2.36770e-09   3.26055e-07 DIIS
  Energy and wave function converged.


  ==> Post-Iterations <==

    Orbital Energies [Eh]
    ---------------------

    Doubly Occupied:                                                      

       1Ag   -10.569231     1B3u  -10.567015     2Ag    -0.846192  
       2B3u   -0.646420     3Ag    -0.560635     1B1u   -0.351499  
       1B2u   -0.351499  

    Virtual:                                                              

       4Ag     0.004166     3B3u    0.012064     1B1g    0.039895  
       1B2g    0.039895     2B1u    0.070958     2B2u    0.070958  
       5Ag     0.077594     4B3u    0.096604     2B1g    0.131909  
       2B2g    0.131909     6Ag     0.134011     5B3u    0.181563  
       6B3u    0.258983     7Ag     0.265580     3B1u    0.316665  
       3B2u    0.316665     1B3g    0.338284     8Ag     0.338284  
       3B1g    0.403709     3B2g    0.403709     7B3u    0.434564  
       9Ag     0.441987    10Ag     0.492050     1Au     0.503139  
       8B3u    0.503139     9B3u    0.583026     4B1u    0.638977  
       4B2u    0.638977     4B2g    0.705873     4B1g    0.705873  
       5B1u    0.709386     5B2u    0.709386    10B3u    0.719327  
      11Ag     0.829967    11B3u    1.019333     5B2g    1.035549  
       5B1g    1.035549    12Ag     1.198986    13Ag     1.362436  
       2B3g    1.362436    12B3u    1.422989     6B1u    1.460793  
       6B2u    1.460793    14Ag     1.491052    13B3u    1.662808  
       2Au     1.662813     6B2g    1.722270     6B1g    1.722270  
       7B1u    1.895452     7B2u    1.895452    14B3u    2.227983  
      15Ag     2.280388    15B3u    2.358149     7B2g    2.485091  
       7B1g    2.485091    16Ag     3.428286    16B3u    3.623796  

    Final Occupation by Irrep:
             Ag   B1g   B2g   B3g    Au   B1u   B2u   B3u 
    DOCC [     3,    0,    0,    0,    0,    1,    1,    2 ]

  @DF-RKS Final Energy:   -77.30144225783739

   => Energetics <=

    Nuclear Repulsion Energy =             24.3232181713792350
    One-Electron Energy =                -150.9241927746407157
    Two-Electron Energy =                  54.8147812996446788
    DFT Exchange-Correlation Energy =      -5.5152489542205956
    Empirical Dispersion Energy =           0.0000000000000000
    VV10 Nonlocal Energy =                  0.0000000000000000
    Total Energy =                        -77.3014422578373939

Computation Completed


Properties will be evaluated at   0.000000,   0.000000,   0.000000 [a0]

Properties computed using the SCF density matrix

  Nuclear Dipole Moment: [e a0]
     X:     0.0000      Y:     0.0000      Z:     0.0000

  Electronic Dipole Moment: [e a0]
     X:     0.0000      Y:     0.0000      Z:     0.0000

  Dipole Moment: [e a0]
     X:     0.0000      Y:     0.0000      Z:     0.0000     Total:     0.0000

  Dipole Moment: [D]
     X:     0.0000      Y:     0.0000      Z:     0.0000     Total:     0.0000


*** tstop() called on atlantis at Tue Apr 19 02:08:53 2022
Module time:
	user time   =       2.80 seconds =       0.05 minutes
	system time =       0.08 seconds =       0.00 minutes
	total time  =          3 seconds =       0.05 minutes
Total time:
	user time   =       2.80 seconds =       0.05 minutes
	system time =       0.08 seconds =       0.00 minutes
	total time  =          3 seconds =       0.05 minutes
gradient() will perform analytic gradient computation.

*** tstart() called on atlantis
*** at Tue Apr 19 02:08:53 2022

   => Loading Basis Set <=

    Name: AUG-CC-PVDZ
    Role: ORBITAL
    Keyword: BASIS
    atoms 1-2 entry C          line   178 file /home/akrom/software/anaconda3/envs/ffpenv/share/psi4/basis/aug-cc-pvdz.gbs 
    atoms 3-4 entry H          line    36 file /home/akrom/software/anaconda3/envs/ffpenv/share/psi4/basis/aug-cc-pvdz.gbs 


         ---------------------------------------------------------
                                   SCF
               by Justin Turney, Rob Parrish, Andy Simmonett
                          and Daniel G. A. Smith
                              RKS Reference
                        1 Threads,    500 MiB Core
         ---------------------------------------------------------

  ==> Geometry <==

    Molecular point group: d2h
    Full point group: D_inf_h

    Geometry (in Angstrom), charge = 0, multiplicity = 1:

       Center              X                  Y                   Z               Mass       
    ------------   -----------------  -----------------  -----------------  -----------------
         C           -0.614460000000    -0.000000000000     0.000000000000    12.000000000000
         C            0.614460000000     0.000000000000     0.000000000000    12.000000000000
         H           -1.689230000000    -0.000000000000     0.000000000000     1.007825032230
         H            1.689230000000     0.000000000000     0.000000000000     1.007825032230

  Running in d2h symmetry.

  Rotational constants: A = ************  B =      1.13802  C =      1.13802 [cm^-1]
  Rotational constants: A = ************  B =  34116.98697  C =  34116.98697 [MHz]
  Nuclear repulsion =   24.323218171379235

  Charge       = 0
  Multiplicity = 1
  Electrons    = 14
  Nalpha       = 7
  Nbeta        = 7

  ==> Algorithm <==

  SCF Algorithm Type is DF.
  DIIS enabled.
  MOM disabled.
  Fractional occupation disabled.
  Guess Type is SAD.
  Energy threshold   = 1.00e-08
  Density threshold  = 1.00e-08
  Integral threshold = 0.00e+00

  ==> Primary Basis <==

  Basis Set: AUG-CC-PVDZ
    Blend: AUG-CC-PVDZ
    Number of shells: 28
    Number of basis function: 64
    Number of Cartesian functions: 68
    Spherical Harmonics?: true
    Max angular momentum: 2

  ==> DFT Potential <==

   => Composite Functional: M06-2X <= 

    Hybrid M06-2X Meta-GGA XC Functional

    Y. Zhao and D. G. Truhlar,  Theor. Chem. Acc., 120, 215, 2008


    Deriv               =              1
    GGA                 =           TRUE
    Meta                =           TRUE

    Exchange Hybrid     =           TRUE
    MP2 Hybrid          =          FALSE

   => Exchange Functionals <=

    1.0000   XC_HYB_MGGA_X_M06_2X

   => Exact (HF) Exchange <=

    0.5400               HF 

   => Correlation Functionals <=

    1.0000   XC_MGGA_C_M06_2X

   => Molecular Quadrature <=

    Radial Scheme          =       TREUTLER
    Pruning Scheme         =           FLAT
    Nuclear Scheme         =       TREUTLER

    BS radius alpha        =              1
    Pruning alpha          =              1
    Radial Points          =             75
    Spherical Points       =            302
    Total Points           =          90600
    Total Blocks           =            752
    Max Points             =            256
    Max Functions          =             64

   => Loading Basis Set <=

    Name: (AUG-CC-PVDZ AUX)
    Role: JKFIT
    Keyword: DF_BASIS_SCF
    atoms 1-2 entry C          line   154 file /home/akrom/software/anaconda3/envs/ffpenv/share/psi4/basis/aug-cc-pvdz-jkfit.gbs 
    atoms 3-4 entry H          line    70 file /home/akrom/software/anaconda3/envs/ffpenv/share/psi4/basis/aug-cc-pvdz-jkfit.gbs 

  ==> Pre-Iterations <==

   -------------------------------------------------------
    Irrep   Nso     Nmo     Nalpha   Nbeta   Ndocc  Nsocc
   -------------------------------------------------------
     Ag        16      16       0       0       0       0
     B1g        7       7       0       0       0       0
     B2g        7       7       0       0       0       0
     B3g        2       2       0       0       0       0
     Au         2       2       0       0       0       0
     B1u        7       7       0       0       0       0
     B2u        7       7       0       0       0       0
     B3u       16      16       0       0       0       0
   -------------------------------------------------------
    Total      64      64       7       7       7       0
   -------------------------------------------------------

  ==> Integral Setup <==

  DFHelper Memory: AOs need 0.008 GiB; user supplied 0.008 GiB. Using in-core AOs.

  ==> MemDFJK: Density-Fitted J/K Matrices <==

    J tasked:                   Yes
    K tasked:                   Yes
    wK tasked:                   No
    OpenMP threads:               1
    Memory [MiB]:                 8
    Algorithm:                 Core
    Schwarz Cutoff:           1E-12
    Mask sparsity (%):       0.0000
    Fitting Condition:        1E-10

   => Auxiliary Basis Set <=

  Basis Set: (AUG-CC-PVDZ AUX)
    Blend: AUG-CC-PVDZ-JKFIT
    Number of shells: 80
    Number of basis function: 236
    Number of Cartesian functions: 272
    Spherical Harmonics?: true
    Max angular momentum: 3

  Cached 100.0% of DFT collocation blocks in 0.410 [GiB].

  Minimum eigenvalue in the overlap matrix is 3.8568108127E-05.
  Using Symmetric Orthogonalization.

  SCF Guess: Superposition of Atomic Densities via on-the-fly atomic UHF.

  ==> Iterations <==

                           Total Energy        Delta E     RMS |[F,P]|

   @DF-RKS iter SAD:   -76.53059338534455   -7.65306e+01   0.00000e+00 
   @DF-RKS iter   1:   -77.19091229913724   -6.60319e-01   1.59458e-02 DIIS
   @DF-RKS iter   2:   -77.24131969408225   -5.04074e-02   1.17689e-02 DIIS
   @DF-RKS iter   3:   -77.30140189793603   -6.00822e-02   3.07069e-04 DIIS
   @DF-RKS iter   4:   -77.30144211161193   -4.02137e-05   1.61452e-05 DIIS
   @DF-RKS iter   5:   -77.30144225546969   -1.43858e-07   2.66354e-06 DIIS
   @DF-RKS iter   6:   -77.30144225783739   -2.36770e-09   3.26055e-07 DIIS
   @DF-RKS iter   7:   -77.30144225791021   -7.28164e-11   4.36325e-08 DIIS
   @DF-RKS iter   8:   -77.30144225791162   -1.40687e-12   2.67959e-09 DIIS
  Energy and wave function converged.


  ==> Post-Iterations <==

    Orbital Energies [Eh]
    ---------------------

    Doubly Occupied:                                                      

       1Ag   -10.569231     1B3u  -10.567015     2Ag    -0.846192  
       2B3u   -0.646420     3Ag    -0.560635     1B1u   -0.351499  
       1B2u   -0.351499  

    Virtual:                                                              

       4Ag     0.004166     3B3u    0.012064     1B1g    0.039895  
       1B2g    0.039895     2B1u    0.070958     2B2u    0.070958  
       5Ag     0.077594     4B3u    0.096604     2B1g    0.131909  
       2B2g    0.131909     6Ag     0.134011     5B3u    0.181563  
       6B3u    0.258983     7Ag     0.265580     3B1u    0.316665  
       3B2u    0.316665     1B3g    0.338284     8Ag     0.338284  
       3B1g    0.403709     3B2g    0.403709     7B3u    0.434564  
       9Ag     0.441987    10Ag     0.492050     1Au     0.503139  
       8B3u    0.503139     9B3u    0.583027     4B1u    0.638977  
       4B2u    0.638977     4B2g    0.705873     4B1g    0.705873  
       5B1u    0.709386     5B2u    0.709386    10B3u    0.719328  
      11Ag     0.829967    11B3u    1.019334     5B2g    1.035549  
       5B1g    1.035549    12Ag     1.198986    13Ag     1.362435  
       2B3g    1.362436    12B3u    1.422989     6B1u    1.460793  
       6B2u    1.460793    14Ag     1.491053    13B3u    1.662808  
       2Au     1.662813     6B2g    1.722270     6B1g    1.722270  
       7B1u    1.895452     7B2u    1.895452    14B3u    2.227983  
      15Ag     2.280389    15B3u    2.358149     7B2g    2.485091  
       7B1g    2.485091    16Ag     3.428286    16B3u    3.623795  

    Final Occupation by Irrep:
             Ag   B1g   B2g   B3g    Au   B1u   B2u   B3u 
    DOCC [     3,    0,    0,    0,    0,    1,    1,    2 ]

  @DF-RKS Final Energy:   -77.30144225791162

   => Energetics <=

    Nuclear Repulsion Energy =             24.3232181713792350
    One-Electron Energy =                -150.9241586189192503
    Two-Electron Energy =                  54.8147449650993863
    DFT Exchange-Correlation Energy =      -5.5152467754710042
    Empirical Dispersion Energy =           0.0000000000000000
    VV10 Nonlocal Energy =                  0.0000000000000000
    Total Energy =                        -77.3014422579116314

Computation Completed


Properties will be evaluated at   0.000000,   0.000000,   0.000000 [a0]

Properties computed using the SCF density matrix

  Nuclear Dipole Moment: [e a0]
     X:     0.0000      Y:     0.0000      Z:     0.0000

  Electronic Dipole Moment: [e a0]
     X:     0.0000      Y:     0.0000      Z:     0.0000

  Dipole Moment: [e a0]
     X:     0.0000      Y:     0.0000      Z:     0.0000     Total:     0.0000

  Dipole Moment: [D]
     X:     0.0000      Y:     0.0000      Z:     0.0000     Total:     0.0000


*** tstop() called on atlantis at Tue Apr 19 02:08:57 2022
Module time:
	user time   =       3.43 seconds =       0.06 minutes
	system time =       0.02 seconds =       0.00 minutes
	total time  =          4 seconds =       0.07 minutes
Total time:
	user time   =       6.24 seconds =       0.10 minutes
	system time =       0.10 seconds =       0.00 minutes
	total time  =          7 seconds =       0.12 minutes

*** tstart() called on atlantis
*** at Tue Apr 19 02:08:57 2022


         ------------------------------------------------------------
                                   SCF GRAD                          
                          Rob Parrish, Justin Turney,                
                       Andy Simmonett, and Alex Sokolov              
         ------------------------------------------------------------

  ==> Geometry <==

    Molecular point group: d2h
    Full point group: D_inf_h

    Geometry (in Angstrom), charge = 0, multiplicity = 1:

       Center              X                  Y                   Z               Mass       
    ------------   -----------------  -----------------  -----------------  -----------------
         C           -0.614460000000    -0.000000000000     0.000000000000    12.000000000000
         C            0.614460000000     0.000000000000     0.000000000000    12.000000000000
         H           -1.689230000000    -0.000000000000     0.000000000000     1.007825032230
         H            1.689230000000     0.000000000000     0.000000000000     1.007825032230

  Nuclear repulsion =   24.323218171379235

  ==> Basis Set <==

  Basis Set: AUG-CC-PVDZ
    Blend: AUG-CC-PVDZ
    Number of shells: 28
    Number of basis function: 64
    Number of Cartesian functions: 68
    Spherical Harmonics?: true
    Max angular momentum: 2

  ==> DFJKGrad: Density-Fitted SCF Gradients <==

    Gradient:                    1
    J tasked:                  Yes
    K tasked:                  Yes
    wK tasked:                  No
    OpenMP threads:              1
    Integrals threads:           1
    Memory [MiB]:              375
    Schwarz Cutoff:          0E+00
    Fitting Condition:       1E-10

   => Auxiliary Basis Set <=

  Basis Set: (AUG-CC-PVDZ AUX)
    Blend: AUG-CC-PVDZ-JKFIT
    Number of shells: 80
    Number of basis function: 236
    Number of Cartesian functions: 272
    Spherical Harmonics?: true
    Max angular momentum: 3

  ==> DFT Potential <==

   => Composite Functional: M06-2X <= 

    Hybrid M06-2X Meta-GGA XC Functional

    Y. Zhao and D. G. Truhlar,  Theor. Chem. Acc., 120, 215, 2008


    Deriv               =              1
    GGA                 =           TRUE
    Meta                =           TRUE

    Exchange Hybrid     =           TRUE
    MP2 Hybrid          =          FALSE

   => Exchange Functionals <=

    1.0000   XC_HYB_MGGA_X_M06_2X

   => Exact (HF) Exchange <=

    0.5400               HF 

   => Correlation Functionals <=

    1.0000   XC_MGGA_C_M06_2X

   => Molecular Quadrature <=

    Radial Scheme          =       TREUTLER
    Pruning Scheme         =           FLAT
    Nuclear Scheme         =       TREUTLER

    BS radius alpha        =              1
    Pruning alpha          =              1
    Radial Points          =             75
    Spherical Points       =            302
    Total Points           =          90600
    Total Blocks           =            752
    Max Points             =            256
    Max Functions          =             64


  -Total Gradient:
     Atom            X                  Y                   Z
    ------   -----------------  -----------------  -----------------
       1       -0.043962385900    -0.000000000000     0.000000000000
       2        0.043962385900     0.000000000000     0.000000000000
       3       -0.002343043453    -0.000000000000     0.000000000000
       4        0.002343043453     0.000000000000     0.000000000000


*** tstop() called on atlantis at Tue Apr 19 02:08:57 2022
Module time:
	user time   =       0.76 seconds =       0.01 minutes
	system time =       0.01 seconds =       0.00 minutes
	total time  =          0 seconds =       0.00 minutes
Total time:
	user time   =       7.00 seconds =       0.12 minutes
	system time =       0.11 seconds =       0.00 minutes
	total time  =          7 seconds =       0.12 minutes

  Based on options and gradient (rms=1.80E-02), recommend projecting translations and not projecting rotations.
hessian() will perform frequency computation by finite difference of analytic gradients.

         ----------------------------------------------------------
                                   FINDIF
                     R. A. King and Jonathon Misiewicz
         ---------------------------------------------------------

  Using finite-differences of gradients to determine vibrational frequencies and 
  normal modes.  Resulting frequencies are only valid at stationary points.
    Generating geometries for use with 3-point formula.
    Displacement size will be 5.00e-03.
    Number of atoms is 4.
    Number of irreps is 8.
    Number of SALCs is 9.
    Translations projected? 1. Rotations projected? 0.
    Index of SALCs per irrep:
     1 :  0  1 
     2 :  2  3 
     3 :  4  5 
     4 : 
     5 : 
     6 :  6 
     7 :  7 
     8 :  8 
    Number of SALCs per irrep:
     Irrep 1: 2
     Irrep 2: 2
     Irrep 3: 2
     Irrep 4: 0
     Irrep 5: 0
     Irrep 6: 1
     Irrep 7: 1
     Irrep 8: 1
    Number of geometries (including reference) is 12.
    Number of displacements per irrep:
      Irrep 1: 4
      Irrep 2: 2
      Irrep 3: 2
      Irrep 4: 0
      Irrep 5: 0
      Irrep 6: 1
      Irrep 7: 1
      Irrep 8: 1

  //>>>>>>>>>>>>>>>>>>>>>>>>>>>>>>>>>>>//
  //    Loading displacement 1 of 12   //
  //<<<<<<<<<<<<<<<<<<<<<<<<<<<<<<<<<<<//
gradient() will perform analytic gradient computation.

*** tstart() called on atlantis
*** at Tue Apr 19 02:08:58 2022

   => Loading Basis Set <=

    Name: AUG-CC-PVDZ
    Role: ORBITAL
    Keyword: BASIS
    atoms 1-2 entry C          line   178 file /home/akrom/software/anaconda3/envs/ffpenv/share/psi4/basis/aug-cc-pvdz.gbs 
    atoms 3-4 entry H          line    36 file /home/akrom/software/anaconda3/envs/ffpenv/share/psi4/basis/aug-cc-pvdz.gbs 


         ---------------------------------------------------------
                                   SCF
               by Justin Turney, Rob Parrish, Andy Simmonett
                          and Daniel G. A. Smith
                              RKS Reference
                        1 Threads,    500 MiB Core
         ---------------------------------------------------------

  ==> Geometry <==

    Molecular point group: d2h
    Full point group: D_inf_h

    Geometry (in Angstrom), charge = 0, multiplicity = 1:

       Center              X                  Y                   Z               Mass       
    ------------   -----------------  -----------------  -----------------  -----------------
         C           -0.614460000000    -0.000000000000     0.000000000000    12.000000000000
         C            0.614460000000     0.000000000000     0.000000000000    12.000000000000
         H           -1.689230000000    -0.000000000000     0.000000000000     1.007825032230
         H            1.689230000000     0.000000000000     0.000000000000     1.007825032230

  Running in d2h symmetry.

  Rotational constants: A = ************  B =      1.13802  C =      1.13802 [cm^-1]
  Rotational constants: A = ************  B =  34116.98697  C =  34116.98697 [MHz]
  Nuclear repulsion =   24.323218171379235

  Charge       = 0
  Multiplicity = 1
  Electrons    = 14
  Nalpha       = 7
  Nbeta        = 7

  ==> Algorithm <==

  SCF Algorithm Type is DF.
  DIIS enabled.
  MOM disabled.
  Fractional occupation disabled.
  Guess Type is SAD.
  Energy threshold   = 1.00e-08
  Density threshold  = 1.00e-08
  Integral threshold = 0.00e+00

  ==> Primary Basis <==

  Basis Set: AUG-CC-PVDZ
    Blend: AUG-CC-PVDZ
    Number of shells: 28
    Number of basis function: 64
    Number of Cartesian functions: 68
    Spherical Harmonics?: true
    Max angular momentum: 2

  ==> DFT Potential <==

   => Composite Functional: M06-2X <= 

    Hybrid M06-2X Meta-GGA XC Functional

    Y. Zhao and D. G. Truhlar,  Theor. Chem. Acc., 120, 215, 2008


    Deriv               =              1
    GGA                 =           TRUE
    Meta                =           TRUE

    Exchange Hybrid     =           TRUE
    MP2 Hybrid          =          FALSE

   => Exchange Functionals <=

    1.0000   XC_HYB_MGGA_X_M06_2X

   => Exact (HF) Exchange <=

    0.5400               HF 

   => Correlation Functionals <=

    1.0000   XC_MGGA_C_M06_2X

   => Molecular Quadrature <=

    Radial Scheme          =       TREUTLER
    Pruning Scheme         =           FLAT
    Nuclear Scheme         =       TREUTLER

    BS radius alpha        =              1
    Pruning alpha          =              1
    Radial Points          =             75
    Spherical Points       =            302
    Total Points           =          90600
    Total Blocks           =            752
    Max Points             =            256
    Max Functions          =             64

   => Loading Basis Set <=

    Name: (AUG-CC-PVDZ AUX)
    Role: JKFIT
    Keyword: DF_BASIS_SCF
    atoms 1-2 entry C          line   154 file /home/akrom/software/anaconda3/envs/ffpenv/share/psi4/basis/aug-cc-pvdz-jkfit.gbs 
    atoms 3-4 entry H          line    70 file /home/akrom/software/anaconda3/envs/ffpenv/share/psi4/basis/aug-cc-pvdz-jkfit.gbs 

  ==> Pre-Iterations <==

   -------------------------------------------------------
    Irrep   Nso     Nmo     Nalpha   Nbeta   Ndocc  Nsocc
   -------------------------------------------------------
     Ag        16      16       0       0       0       0
     B1g        7       7       0       0       0       0
     B2g        7       7       0       0       0       0
     B3g        2       2       0       0       0       0
     Au         2       2       0       0       0       0
     B1u        7       7       0       0       0       0
     B2u        7       7       0       0       0       0
     B3u       16      16       0       0       0       0
   -------------------------------------------------------
    Total      64      64       7       7       7       0
   -------------------------------------------------------

  ==> Integral Setup <==

  DFHelper Memory: AOs need 0.008 GiB; user supplied 0.008 GiB. Using in-core AOs.

  ==> MemDFJK: Density-Fitted J/K Matrices <==

    J tasked:                   Yes
    K tasked:                   Yes
    wK tasked:                   No
    OpenMP threads:               1
    Memory [MiB]:                 8
    Algorithm:                 Core
    Schwarz Cutoff:           1E-12
    Mask sparsity (%):       0.0000
    Fitting Condition:        1E-10

   => Auxiliary Basis Set <=

  Basis Set: (AUG-CC-PVDZ AUX)
    Blend: AUG-CC-PVDZ-JKFIT
    Number of shells: 80
    Number of basis function: 236
    Number of Cartesian functions: 272
    Spherical Harmonics?: true
    Max angular momentum: 3

  Cached 100.0% of DFT collocation blocks in 0.410 [GiB].

  Minimum eigenvalue in the overlap matrix is 3.8568108127E-05.
  Using Symmetric Orthogonalization.

  SCF Guess: Superposition of Atomic Densities via on-the-fly atomic UHF.

  ==> Iterations <==

                           Total Energy        Delta E     RMS |[F,P]|

   @DF-RKS iter SAD:   -76.53059338534455   -7.65306e+01   0.00000e+00 
   @DF-RKS iter   1:   -77.19091229913724   -6.60319e-01   1.59458e-02 DIIS
   @DF-RKS iter   2:   -77.24131969408225   -5.04074e-02   1.17689e-02 DIIS
   @DF-RKS iter   3:   -77.30140189793603   -6.00822e-02   3.07069e-04 DIIS
   @DF-RKS iter   4:   -77.30144211161193   -4.02137e-05   1.61452e-05 DIIS
   @DF-RKS iter   5:   -77.30144225546969   -1.43858e-07   2.66354e-06 DIIS
   @DF-RKS iter   6:   -77.30144225783739   -2.36770e-09   3.26055e-07 DIIS
   @DF-RKS iter   7:   -77.30144225791021   -7.28164e-11   4.36325e-08 DIIS
   @DF-RKS iter   8:   -77.30144225791162   -1.40687e-12   2.67959e-09 DIIS
  Energy and wave function converged.


  ==> Post-Iterations <==

    Orbital Energies [Eh]
    ---------------------

    Doubly Occupied:                                                      

       1Ag   -10.569231     1B3u  -10.567015     2Ag    -0.846192  
       2B3u   -0.646420     3Ag    -0.560635     1B1u   -0.351499  
       1B2u   -0.351499  

    Virtual:                                                              

       4Ag     0.004166     3B3u    0.012064     1B1g    0.039895  
       1B2g    0.039895     2B1u    0.070958     2B2u    0.070958  
       5Ag     0.077594     4B3u    0.096604     2B1g    0.131909  
       2B2g    0.131909     6Ag     0.134011     5B3u    0.181563  
       6B3u    0.258983     7Ag     0.265580     3B1u    0.316665  
       3B2u    0.316665     1B3g    0.338284     8Ag     0.338284  
       3B1g    0.403709     3B2g    0.403709     7B3u    0.434564  
       9Ag     0.441987    10Ag     0.492050     1Au     0.503139  
       8B3u    0.503139     9B3u    0.583027     4B1u    0.638977  
       4B2u    0.638977     4B2g    0.705873     4B1g    0.705873  
       5B1u    0.709386     5B2u    0.709386    10B3u    0.719328  
      11Ag     0.829967    11B3u    1.019334     5B2g    1.035549  
       5B1g    1.035549    12Ag     1.198986    13Ag     1.362435  
       2B3g    1.362436    12B3u    1.422989     6B1u    1.460793  
       6B2u    1.460793    14Ag     1.491053    13B3u    1.662808  
       2Au     1.662813     6B2g    1.722270     6B1g    1.722270  
       7B1u    1.895452     7B2u    1.895452    14B3u    2.227983  
      15Ag     2.280389    15B3u    2.358149     7B2g    2.485091  
       7B1g    2.485091    16Ag     3.428286    16B3u    3.623795  

    Final Occupation by Irrep:
             Ag   B1g   B2g   B3g    Au   B1u   B2u   B3u 
    DOCC [     3,    0,    0,    0,    0,    1,    1,    2 ]

  @DF-RKS Final Energy:   -77.30144225791162

   => Energetics <=

    Nuclear Repulsion Energy =             24.3232181713792350
    One-Electron Energy =                -150.9241586189192503
    Two-Electron Energy =                  54.8147449650993863
    DFT Exchange-Correlation Energy =      -5.5152467754710042
    Empirical Dispersion Energy =           0.0000000000000000
    VV10 Nonlocal Energy =                  0.0000000000000000
    Total Energy =                        -77.3014422579116314

Computation Completed


Properties will be evaluated at   0.000000,   0.000000,   0.000000 [a0]

Properties computed using the SCF density matrix

  Nuclear Dipole Moment: [e a0]
     X:     0.0000      Y:     0.0000      Z:     0.0000

  Electronic Dipole Moment: [e a0]
     X:     0.0000      Y:     0.0000      Z:     0.0000

  Dipole Moment: [e a0]
     X:     0.0000      Y:     0.0000      Z:     0.0000     Total:     0.0000

  Dipole Moment: [D]
     X:     0.0000      Y:     0.0000      Z:     0.0000     Total:     0.0000


*** tstop() called on atlantis at Tue Apr 19 02:09:01 2022
Module time:
	user time   =       3.39 seconds =       0.06 minutes
	system time =       0.00 seconds =       0.00 minutes
	total time  =          3 seconds =       0.05 minutes
Total time:
	user time   =      10.67 seconds =       0.18 minutes
	system time =       0.12 seconds =       0.00 minutes
	total time  =         11 seconds =       0.18 minutes

*** tstart() called on atlantis
*** at Tue Apr 19 02:09:01 2022


         ------------------------------------------------------------
                                   SCF GRAD                          
                          Rob Parrish, Justin Turney,                
                       Andy Simmonett, and Alex Sokolov              
         ------------------------------------------------------------

  ==> Geometry <==

    Molecular point group: d2h
    Full point group: D_inf_h

    Geometry (in Angstrom), charge = 0, multiplicity = 1:

       Center              X                  Y                   Z               Mass       
    ------------   -----------------  -----------------  -----------------  -----------------
         C           -0.614460000000    -0.000000000000     0.000000000000    12.000000000000
         C            0.614460000000     0.000000000000     0.000000000000    12.000000000000
         H           -1.689230000000    -0.000000000000     0.000000000000     1.007825032230
         H            1.689230000000     0.000000000000     0.000000000000     1.007825032230

  Nuclear repulsion =   24.323218171379235

  ==> Basis Set <==

  Basis Set: AUG-CC-PVDZ
    Blend: AUG-CC-PVDZ
    Number of shells: 28
    Number of basis function: 64
    Number of Cartesian functions: 68
    Spherical Harmonics?: true
    Max angular momentum: 2

  ==> DFJKGrad: Density-Fitted SCF Gradients <==

    Gradient:                    1
    J tasked:                  Yes
    K tasked:                  Yes
    wK tasked:                  No
    OpenMP threads:              1
    Integrals threads:           1
    Memory [MiB]:              375
    Schwarz Cutoff:          0E+00
    Fitting Condition:       1E-10

   => Auxiliary Basis Set <=

  Basis Set: (AUG-CC-PVDZ AUX)
    Blend: AUG-CC-PVDZ-JKFIT
    Number of shells: 80
    Number of basis function: 236
    Number of Cartesian functions: 272
    Spherical Harmonics?: true
    Max angular momentum: 3

  ==> DFT Potential <==

   => Composite Functional: M06-2X <= 

    Hybrid M06-2X Meta-GGA XC Functional

    Y. Zhao and D. G. Truhlar,  Theor. Chem. Acc., 120, 215, 2008


    Deriv               =              1
    GGA                 =           TRUE
    Meta                =           TRUE

    Exchange Hybrid     =           TRUE
    MP2 Hybrid          =          FALSE

   => Exchange Functionals <=

    1.0000   XC_HYB_MGGA_X_M06_2X

   => Exact (HF) Exchange <=

    0.5400               HF 

   => Correlation Functionals <=

    1.0000   XC_MGGA_C_M06_2X

   => Molecular Quadrature <=

    Radial Scheme          =       TREUTLER
    Pruning Scheme         =           FLAT
    Nuclear Scheme         =       TREUTLER

    BS radius alpha        =              1
    Pruning alpha          =              1
    Radial Points          =             75
    Spherical Points       =            302
    Total Points           =          90600
    Total Blocks           =            752
    Max Points             =            256
    Max Functions          =             64


  -Total Gradient:
     Atom            X                  Y                   Z
    ------   -----------------  -----------------  -----------------
       1       -0.043962385900    -0.000000000000     0.000000000000
       2        0.043962385900     0.000000000000     0.000000000000
       3       -0.002343043453    -0.000000000000     0.000000000000
       4        0.002343043453     0.000000000000     0.000000000000


*** tstop() called on atlantis at Tue Apr 19 02:09:02 2022
Module time:
	user time   =       0.75 seconds =       0.01 minutes
	system time =       0.00 seconds =       0.00 minutes
	total time  =          1 seconds =       0.02 minutes
Total time:
	user time   =      11.42 seconds =       0.19 minutes
	system time =       0.12 seconds =       0.00 minutes
	total time  =         12 seconds =       0.20 minutes

  //>>>>>>>>>>>>>>>>>>>>>>>>>>>>>>>>>>>//
  //    Loading displacement 2 of 12   //
  //<<<<<<<<<<<<<<<<<<<<<<<<<<<<<<<<<<<//
gradient() will perform analytic gradient computation.

*** tstart() called on atlantis
*** at Tue Apr 19 02:09:02 2022

   => Loading Basis Set <=

    Name: AUG-CC-PVDZ
    Role: ORBITAL
    Keyword: BASIS
    atoms 1-2 entry C          line   178 file /home/akrom/software/anaconda3/envs/ffpenv/share/psi4/basis/aug-cc-pvdz.gbs 
    atoms 3-4 entry H          line    36 file /home/akrom/software/anaconda3/envs/ffpenv/share/psi4/basis/aug-cc-pvdz.gbs 


         ---------------------------------------------------------
                                   SCF
               by Justin Turney, Rob Parrish, Andy Simmonett
                          and Daniel G. A. Smith
                              RKS Reference
                        1 Threads,    500 MiB Core
         ---------------------------------------------------------

  ==> Geometry <==

    Molecular point group: d2h
    Full point group: D_inf_h

    Geometry (in Angstrom), charge = 0, multiplicity = 1:

       Center              X                  Y                   Z               Mass       
    ------------   -----------------  -----------------  -----------------  -----------------
         C           -0.615000089229    -0.000000000000     0.000000000000    12.000000000000
         C            0.615000089229     0.000000000000     0.000000000000    12.000000000000
         H           -1.689230000000    -0.000000000000     0.000000000000     1.007825032230
         H            1.689230000000     0.000000000000     0.000000000000     1.007825032230

  Running in d2h symmetry.

  Rotational constants: A = ************  B =      1.13680  C =      1.13680 [cm^-1]
  Rotational constants: A = ************  B =  34080.32226  C =  34080.32226 [MHz]
  Nuclear repulsion =   24.311929094340595

  Charge       = 0
  Multiplicity = 1
  Electrons    = 14
  Nalpha       = 7
  Nbeta        = 7

  ==> Algorithm <==

  SCF Algorithm Type is DF.
  DIIS enabled.
  MOM disabled.
  Fractional occupation disabled.
  Guess Type is SAD.
  Energy threshold   = 1.00e-08
  Density threshold  = 1.00e-08
  Integral threshold = 0.00e+00

  ==> Primary Basis <==

  Basis Set: AUG-CC-PVDZ
    Blend: AUG-CC-PVDZ
    Number of shells: 28
    Number of basis function: 64
    Number of Cartesian functions: 68
    Spherical Harmonics?: true
    Max angular momentum: 2

  ==> DFT Potential <==

   => Composite Functional: M06-2X <= 

    Hybrid M06-2X Meta-GGA XC Functional

    Y. Zhao and D. G. Truhlar,  Theor. Chem. Acc., 120, 215, 2008


    Deriv               =              1
    GGA                 =           TRUE
    Meta                =           TRUE

    Exchange Hybrid     =           TRUE
    MP2 Hybrid          =          FALSE

   => Exchange Functionals <=

    1.0000   XC_HYB_MGGA_X_M06_2X

   => Exact (HF) Exchange <=

    0.5400               HF 

   => Correlation Functionals <=

    1.0000   XC_MGGA_C_M06_2X

   => Molecular Quadrature <=

    Radial Scheme          =       TREUTLER
    Pruning Scheme         =           FLAT
    Nuclear Scheme         =       TREUTLER

    BS radius alpha        =              1
    Pruning alpha          =              1
    Radial Points          =             75
    Spherical Points       =            302
    Total Points           =          90600
    Total Blocks           =            752
    Max Points             =            256
    Max Functions          =             64

   => Loading Basis Set <=

    Name: (AUG-CC-PVDZ AUX)
    Role: JKFIT
    Keyword: DF_BASIS_SCF
    atoms 1-2 entry C          line   154 file /home/akrom/software/anaconda3/envs/ffpenv/share/psi4/basis/aug-cc-pvdz-jkfit.gbs 
    atoms 3-4 entry H          line    70 file /home/akrom/software/anaconda3/envs/ffpenv/share/psi4/basis/aug-cc-pvdz-jkfit.gbs 

  ==> Pre-Iterations <==

   -------------------------------------------------------
    Irrep   Nso     Nmo     Nalpha   Nbeta   Ndocc  Nsocc
   -------------------------------------------------------
     Ag        16      16       0       0       0       0
     B1g        7       7       0       0       0       0
     B2g        7       7       0       0       0       0
     B3g        2       2       0       0       0       0
     Au         2       2       0       0       0       0
     B1u        7       7       0       0       0       0
     B2u        7       7       0       0       0       0
     B3u       16      16       0       0       0       0
   -------------------------------------------------------
    Total      64      64       7       7       7       0
   -------------------------------------------------------

  ==> Integral Setup <==

  DFHelper Memory: AOs need 0.008 GiB; user supplied 0.008 GiB. Using in-core AOs.

  ==> MemDFJK: Density-Fitted J/K Matrices <==

    J tasked:                   Yes
    K tasked:                   Yes
    wK tasked:                   No
    OpenMP threads:               1
    Memory [MiB]:                 8
    Algorithm:                 Core
    Schwarz Cutoff:           1E-12
    Mask sparsity (%):       0.0000
    Fitting Condition:        1E-10

   => Auxiliary Basis Set <=

  Basis Set: (AUG-CC-PVDZ AUX)
    Blend: AUG-CC-PVDZ-JKFIT
    Number of shells: 80
    Number of basis function: 236
    Number of Cartesian functions: 272
    Spherical Harmonics?: true
    Max angular momentum: 3

  Cached 100.0% of DFT collocation blocks in 0.410 [GiB].

  Minimum eigenvalue in the overlap matrix is 3.8709994698E-05.
  Using Symmetric Orthogonalization.

  SCF Guess: Superposition of Atomic Densities via on-the-fly atomic UHF.

  ==> Iterations <==

                           Total Energy        Delta E     RMS |[F,P]|

   @DF-RKS iter SAD:   -76.52975978032524   -7.65298e+01   0.00000e+00 
   @DF-RKS iter   1:   -77.19119205730411   -6.61432e-01   1.59166e-02 DIIS
   @DF-RKS iter   2:   -77.24151425095991   -5.03222e-02   1.17400e-02 DIIS
   @DF-RKS iter   3:   -77.30130958577573   -5.97953e-02   3.05783e-04 DIIS
   @DF-RKS iter   4:   -77.30134948020122   -3.98944e-05   1.61884e-05 DIIS
   @DF-RKS iter   5:   -77.30134962432348   -1.44122e-07   2.67481e-06 DIIS
   @DF-RKS iter   6:   -77.30134962670060   -2.37712e-09   3.22421e-07 DIIS
   @DF-RKS iter   7:   -77.30134962677202   -7.14238e-11   4.31278e-08 DIIS
   @DF-RKS iter   8:   -77.30134962677332   -1.29319e-12   2.65066e-09 DIIS
  Energy and wave function converged.


  ==> Post-Iterations <==

    Orbital Energies [Eh]
    ---------------------

    Doubly Occupied:                                                      

       1Ag   -10.569483     1B3u  -10.567284     2Ag    -0.845997  
       2B3u   -0.646742     3Ag    -0.560761     1B2u   -0.351340  
       1B1u   -0.351340  

    Virtual:                                                              

       4Ag     0.004155     3B3u    0.012061     1B1g    0.039713  
       1B2g    0.039713     2B2u    0.070973     2B1u    0.070973  
       5Ag     0.077617     4B3u    0.096603     2B2g    0.131732  
       2B1g    0.131732     6Ag     0.133984     5B3u    0.181493  
       6B3u    0.258917     7Ag     0.265738     3B2u    0.316659  
       3B1u    0.316659     1B3g    0.338235     8Ag     0.338235  
       3B1g    0.403648     3B2g    0.403648     7B3u    0.434304  
       9Ag     0.441975    10Ag     0.492057     1Au     0.503038  
       8B3u    0.503038     9B3u    0.582952     4B2u    0.639161  
       4B1u    0.639161     4B1g    0.705812     4B2g    0.705812  
       5B2u    0.709123     5B1u    0.709123    10B3u    0.719356  
      11Ag     0.830277    11B3u    1.018269     5B1g    1.035303  
       5B2g    1.035303    12Ag     1.198923    13Ag     1.362547  
       2B3g    1.362547    12B3u    1.422559     6B2u    1.460491  
       6B1u    1.460491    14Ag     1.490894    13B3u    1.662374  
       2Au     1.662379     6B1g    1.722200     6B2g    1.722200  
       7B2u    1.895313     7B1u    1.895313    14B3u    2.226729  
      15Ag     2.280998    15B3u    2.359478     7B1g    2.484918  
       7B2g    2.484918    16Ag     3.425843    16B3u    3.623985  

    Final Occupation by Irrep:
             Ag   B1g   B2g   B3g    Au   B1u   B2u   B3u 
    DOCC [     3,    0,    0,    0,    0,    1,    1,    2 ]

  @DF-RKS Final Energy:   -77.30134962677332

   => Energetics <=

    Nuclear Repulsion Energy =             24.3119290943405950
    One-Electron Energy =                -150.9007349857782287
    Two-Electron Energy =                  54.8024226318599830
    DFT Exchange-Correlation Energy =      -5.5149663671956635
    Empirical Dispersion Energy =           0.0000000000000000
    VV10 Nonlocal Energy =                  0.0000000000000000
    Total Energy =                        -77.3013496267733160

Computation Completed


Properties will be evaluated at   0.000000,   0.000000,   0.000000 [a0]

Properties computed using the SCF density matrix

  Nuclear Dipole Moment: [e a0]
     X:     0.0000      Y:     0.0000      Z:     0.0000

  Electronic Dipole Moment: [e a0]
     X:     0.0000      Y:     0.0000      Z:     0.0000

  Dipole Moment: [e a0]
     X:     0.0000      Y:     0.0000      Z:     0.0000     Total:     0.0000

  Dipole Moment: [D]
     X:     0.0000      Y:     0.0000      Z:     0.0000     Total:     0.0000


*** tstop() called on atlantis at Tue Apr 19 02:09:05 2022
Module time:
	user time   =       3.40 seconds =       0.06 minutes
	system time =       0.02 seconds =       0.00 minutes
	total time  =          3 seconds =       0.05 minutes
Total time:
	user time   =      14.83 seconds =       0.25 minutes
	system time =       0.14 seconds =       0.00 minutes
	total time  =         15 seconds =       0.25 minutes

*** tstart() called on atlantis
*** at Tue Apr 19 02:09:05 2022


         ------------------------------------------------------------
                                   SCF GRAD                          
                          Rob Parrish, Justin Turney,                
                       Andy Simmonett, and Alex Sokolov              
         ------------------------------------------------------------

  ==> Geometry <==

    Molecular point group: d2h
    Full point group: D_inf_h

    Geometry (in Angstrom), charge = 0, multiplicity = 1:

       Center              X                  Y                   Z               Mass       
    ------------   -----------------  -----------------  -----------------  -----------------
         C           -0.615000089229    -0.000000000000     0.000000000000    12.000000000000
         C            0.615000089229     0.000000000000     0.000000000000    12.000000000000
         H           -1.689230000000    -0.000000000000     0.000000000000     1.007825032230
         H            1.689230000000     0.000000000000     0.000000000000     1.007825032230

  Nuclear repulsion =   24.311929094340595

  ==> Basis Set <==

  Basis Set: AUG-CC-PVDZ
    Blend: AUG-CC-PVDZ
    Number of shells: 28
    Number of basis function: 64
    Number of Cartesian functions: 68
    Spherical Harmonics?: true
    Max angular momentum: 2

  ==> DFJKGrad: Density-Fitted SCF Gradients <==

    Gradient:                    1
    J tasked:                  Yes
    K tasked:                  Yes
    wK tasked:                  No
    OpenMP threads:              1
    Integrals threads:           1
    Memory [MiB]:              375
    Schwarz Cutoff:          0E+00
    Fitting Condition:       1E-10

   => Auxiliary Basis Set <=

  Basis Set: (AUG-CC-PVDZ AUX)
    Blend: AUG-CC-PVDZ-JKFIT
    Number of shells: 80
    Number of basis function: 236
    Number of Cartesian functions: 272
    Spherical Harmonics?: true
    Max angular momentum: 3

  ==> DFT Potential <==

   => Composite Functional: M06-2X <= 

    Hybrid M06-2X Meta-GGA XC Functional

    Y. Zhao and D. G. Truhlar,  Theor. Chem. Acc., 120, 215, 2008


    Deriv               =              1
    GGA                 =           TRUE
    Meta                =           TRUE

    Exchange Hybrid     =           TRUE
    MP2 Hybrid          =          FALSE

   => Exchange Functionals <=

    1.0000   XC_HYB_MGGA_X_M06_2X

   => Exact (HF) Exchange <=

    0.5400               HF 

   => Correlation Functionals <=

    1.0000   XC_MGGA_C_M06_2X

   => Molecular Quadrature <=

    Radial Scheme          =       TREUTLER
    Pruning Scheme         =           FLAT
    Nuclear Scheme         =       TREUTLER

    BS radius alpha        =              1
    Pruning alpha          =              1
    Radial Points          =             75
    Spherical Points       =            302
    Total Points           =          90600
    Total Blocks           =            752
    Max Points             =            256
    Max Functions          =             64


  -Total Gradient:
     Atom            X                  Y                   Z
    ------   -----------------  -----------------  -----------------
       1       -0.046488161159    -0.000000000000     0.000000000000
       2        0.046488161159     0.000000000000     0.000000000000
       3       -0.001907684853    -0.000000000000     0.000000000000
       4        0.001907684853     0.000000000000     0.000000000000


*** tstop() called on atlantis at Tue Apr 19 02:09:06 2022
Module time:
	user time   =       0.75 seconds =       0.01 minutes
	system time =       0.00 seconds =       0.00 minutes
	total time  =          1 seconds =       0.02 minutes
Total time:
	user time   =      15.58 seconds =       0.26 minutes
	system time =       0.14 seconds =       0.00 minutes
	total time  =         16 seconds =       0.27 minutes

  //>>>>>>>>>>>>>>>>>>>>>>>>>>>>>>>>>>>//
  //    Loading displacement 3 of 12   //
  //<<<<<<<<<<<<<<<<<<<<<<<<<<<<<<<<<<<//
gradient() will perform analytic gradient computation.

*** tstart() called on atlantis
*** at Tue Apr 19 02:09:06 2022

   => Loading Basis Set <=

    Name: AUG-CC-PVDZ
    Role: ORBITAL
    Keyword: BASIS
    atoms 1-2 entry C          line   178 file /home/akrom/software/anaconda3/envs/ffpenv/share/psi4/basis/aug-cc-pvdz.gbs 
    atoms 3-4 entry H          line    36 file /home/akrom/software/anaconda3/envs/ffpenv/share/psi4/basis/aug-cc-pvdz.gbs 


         ---------------------------------------------------------
                                   SCF
               by Justin Turney, Rob Parrish, Andy Simmonett
                          and Daniel G. A. Smith
                              RKS Reference
                        1 Threads,    500 MiB Core
         ---------------------------------------------------------

  ==> Geometry <==

    Molecular point group: d2h
    Full point group: D_inf_h

    Geometry (in Angstrom), charge = 0, multiplicity = 1:

       Center              X                  Y                   Z               Mass       
    ------------   -----------------  -----------------  -----------------  -----------------
         C           -0.613919910771    -0.000000000000     0.000000000000    12.000000000000
         C            0.613919910771     0.000000000000     0.000000000000    12.000000000000
         H           -1.689230000000    -0.000000000000     0.000000000000     1.007825032230
         H            1.689230000000     0.000000000000     0.000000000000     1.007825032230

  Running in d2h symmetry.

  Rotational constants: A = ************  B =      1.13924  C =      1.13924 [cm^-1]
  Rotational constants: A = ************  B =  34153.69835  C =  34153.69835 [MHz]
  Nuclear repulsion =   24.334534488106961

  Charge       = 0
  Multiplicity = 1
  Electrons    = 14
  Nalpha       = 7
  Nbeta        = 7

  ==> Algorithm <==

  SCF Algorithm Type is DF.
  DIIS enabled.
  MOM disabled.
  Fractional occupation disabled.
  Guess Type is SAD.
  Energy threshold   = 1.00e-08
  Density threshold  = 1.00e-08
  Integral threshold = 0.00e+00

  ==> Primary Basis <==

  Basis Set: AUG-CC-PVDZ
    Blend: AUG-CC-PVDZ
    Number of shells: 28
    Number of basis function: 64
    Number of Cartesian functions: 68
    Spherical Harmonics?: true
    Max angular momentum: 2

  ==> DFT Potential <==

   => Composite Functional: M06-2X <= 

    Hybrid M06-2X Meta-GGA XC Functional

    Y. Zhao and D. G. Truhlar,  Theor. Chem. Acc., 120, 215, 2008


    Deriv               =              1
    GGA                 =           TRUE
    Meta                =           TRUE

    Exchange Hybrid     =           TRUE
    MP2 Hybrid          =          FALSE

   => Exchange Functionals <=

    1.0000   XC_HYB_MGGA_X_M06_2X

   => Exact (HF) Exchange <=

    0.5400               HF 

   => Correlation Functionals <=

    1.0000   XC_MGGA_C_M06_2X

   => Molecular Quadrature <=

    Radial Scheme          =       TREUTLER
    Pruning Scheme         =           FLAT
    Nuclear Scheme         =       TREUTLER

    BS radius alpha        =              1
    Pruning alpha          =              1
    Radial Points          =             75
    Spherical Points       =            302
    Total Points           =          90600
    Total Blocks           =            752
    Max Points             =            256
    Max Functions          =             64

   => Loading Basis Set <=

    Name: (AUG-CC-PVDZ AUX)
    Role: JKFIT
    Keyword: DF_BASIS_SCF
    atoms 1-2 entry C          line   154 file /home/akrom/software/anaconda3/envs/ffpenv/share/psi4/basis/aug-cc-pvdz-jkfit.gbs 
    atoms 3-4 entry H          line    70 file /home/akrom/software/anaconda3/envs/ffpenv/share/psi4/basis/aug-cc-pvdz-jkfit.gbs 

  ==> Pre-Iterations <==

   -------------------------------------------------------
    Irrep   Nso     Nmo     Nalpha   Nbeta   Ndocc  Nsocc
   -------------------------------------------------------
     Ag        16      16       0       0       0       0
     B1g        7       7       0       0       0       0
     B2g        7       7       0       0       0       0
     B3g        2       2       0       0       0       0
     Au         2       2       0       0       0       0
     B1u        7       7       0       0       0       0
     B2u        7       7       0       0       0       0
     B3u       16      16       0       0       0       0
   -------------------------------------------------------
    Total      64      64       7       7       7       0
   -------------------------------------------------------

  ==> Integral Setup <==

  DFHelper Memory: AOs need 0.008 GiB; user supplied 0.008 GiB. Using in-core AOs.

  ==> MemDFJK: Density-Fitted J/K Matrices <==

    J tasked:                   Yes
    K tasked:                   Yes
    wK tasked:                   No
    OpenMP threads:               1
    Memory [MiB]:                 8
    Algorithm:                 Core
    Schwarz Cutoff:           1E-12
    Mask sparsity (%):       0.0000
    Fitting Condition:        1E-10

   => Auxiliary Basis Set <=

  Basis Set: (AUG-CC-PVDZ AUX)
    Blend: AUG-CC-PVDZ-JKFIT
    Number of shells: 80
    Number of basis function: 236
    Number of Cartesian functions: 272
    Spherical Harmonics?: true
    Max angular momentum: 3

  Cached 100.0% of DFT collocation blocks in 0.410 [GiB].

  Minimum eigenvalue in the overlap matrix is 3.8426868966E-05.
  Using Symmetric Orthogonalization.

  SCF Guess: Superposition of Atomic Densities via on-the-fly atomic UHF.

  ==> Iterations <==

                           Total Energy        Delta E     RMS |[F,P]|

   @DF-RKS iter SAD:   -76.53142549674232   -7.65314e+01   0.00000e+00 
   @DF-RKS iter   1:   -77.19062590197929   -6.59200e-01   1.59751e-02 DIIS
   @DF-RKS iter   2:   -77.24111856425965   -5.04927e-02   1.17979e-02 DIIS
   @DF-RKS iter   3:   -77.30148903910880   -6.03705e-02   3.08364e-04 DIIS
   @DF-RKS iter   4:   -77.30152957609569   -4.05370e-05   1.61047e-05 DIIS
   @DF-RKS iter   5:   -77.30152971972703   -1.43631e-07   2.65242e-06 DIIS
   @DF-RKS iter   6:   -77.30152972208637   -2.35934e-09   3.29623e-07 DIIS
   @DF-RKS iter   7:   -77.30152972216054   -7.41665e-11   4.41374e-08 DIIS
   @DF-RKS iter   8:   -77.30152972216197   -1.43530e-12   2.70801e-09 DIIS
  Energy and wave function converged.


  ==> Post-Iterations <==

    Orbital Energies [Eh]
    ---------------------

    Doubly Occupied:                                                      

       1Ag   -10.568978     1B3u  -10.566746     2Ag    -0.846388  
       2B3u   -0.646098     3Ag    -0.560508     1B2u   -0.351659  
       1B1u   -0.351659  

    Virtual:                                                              

       4Ag     0.004177     3B3u    0.012067     1B2g    0.040077  
       1B1g    0.040077     2B2u    0.070942     2B1u    0.070942  
       5Ag     0.077571     4B3u    0.096604     2B2g    0.132086  
       2B1g    0.132086     6Ag     0.134038     5B3u    0.181634  
       6B3u    0.259048     7Ag     0.265423     3B1u    0.316670  
       3B2u    0.316670     1B3g    0.338332     8Ag     0.338333  
       3B2g    0.403771     3B1g    0.403771     7B3u    0.434823  
       9Ag     0.442000    10Ag     0.492042     1Au     0.503240  
       8B3u    0.503240     9B3u    0.583100     4B1u    0.638792  
       4B2u    0.638792     4B2g    0.705935     4B1g    0.705935  
       5B1u    0.709648     5B2u    0.709648    10B3u    0.719298  
      11Ag     0.829657    11B3u    1.020402     5B2g    1.035794  
       5B1g    1.035794    12Ag     1.199049    13Ag     1.362324  
       2B3g    1.362325    12B3u    1.423419     6B1u    1.461096  
       6B2u    1.461096    14Ag     1.491211    13B3u    1.663241  
       2Au     1.663247     6B2g    1.722340     6B1g    1.722340  
       7B1u    1.895591     7B2u    1.895591    14B3u    2.229237  
      15Ag     2.279778    15B3u    2.356823     7B2g    2.485264  
       7B1g    2.485264    16Ag     3.430736    16B3u    3.623632  

    Final Occupation by Irrep:
             Ag   B1g   B2g   B3g    Au   B1u   B2u   B3u 
    DOCC [     3,    0,    0,    0,    0,    1,    1,    2 ]

  @DF-RKS Final Energy:   -77.30152972216197

   => Energetics <=

    Nuclear Repulsion Energy =             24.3345344881069607
    One-Electron Energy =                -150.9476243055840428
    Two-Electron Energy =                  54.8270883296738845
    DFT Exchange-Correlation Energy =      -5.5155282343587650
    Empirical Dispersion Energy =           0.0000000000000000
    VV10 Nonlocal Energy =                  0.0000000000000000
    Total Energy =                        -77.3015297221619733

Computation Completed


Properties will be evaluated at   0.000000,   0.000000,   0.000000 [a0]

Properties computed using the SCF density matrix

  Nuclear Dipole Moment: [e a0]
     X:     0.0000      Y:     0.0000      Z:     0.0000

  Electronic Dipole Moment: [e a0]
     X:     0.0000      Y:     0.0000      Z:     0.0000

  Dipole Moment: [e a0]
     X:     0.0000      Y:     0.0000      Z:     0.0000     Total:     0.0000

  Dipole Moment: [D]
     X:     0.0000      Y:     0.0000      Z:     0.0000     Total:     0.0000


*** tstop() called on atlantis at Tue Apr 19 02:09:10 2022
Module time:
	user time   =       3.38 seconds =       0.06 minutes
	system time =       0.02 seconds =       0.00 minutes
	total time  =          4 seconds =       0.07 minutes
Total time:
	user time   =      18.97 seconds =       0.32 minutes
	system time =       0.16 seconds =       0.00 minutes
	total time  =         20 seconds =       0.33 minutes

*** tstart() called on atlantis
*** at Tue Apr 19 02:09:10 2022


         ------------------------------------------------------------
                                   SCF GRAD                          
                          Rob Parrish, Justin Turney,                
                       Andy Simmonett, and Alex Sokolov              
         ------------------------------------------------------------

  ==> Geometry <==

    Molecular point group: d2h
    Full point group: D_inf_h

    Geometry (in Angstrom), charge = 0, multiplicity = 1:

       Center              X                  Y                   Z               Mass       
    ------------   -----------------  -----------------  -----------------  -----------------
         C           -0.613919910771    -0.000000000000     0.000000000000    12.000000000000
         C            0.613919910771     0.000000000000     0.000000000000    12.000000000000
         H           -1.689230000000    -0.000000000000     0.000000000000     1.007825032230
         H            1.689230000000     0.000000000000     0.000000000000     1.007825032230

  Nuclear repulsion =   24.334534488106961

  ==> Basis Set <==

  Basis Set: AUG-CC-PVDZ
    Blend: AUG-CC-PVDZ
    Number of shells: 28
    Number of basis function: 64
    Number of Cartesian functions: 68
    Spherical Harmonics?: true
    Max angular momentum: 2

  ==> DFJKGrad: Density-Fitted SCF Gradients <==

    Gradient:                    1
    J tasked:                  Yes
    K tasked:                  Yes
    wK tasked:                  No
    OpenMP threads:              1
    Integrals threads:           1
    Memory [MiB]:              375
    Schwarz Cutoff:          0E+00
    Fitting Condition:       1E-10

   => Auxiliary Basis Set <=

  Basis Set: (AUG-CC-PVDZ AUX)
    Blend: AUG-CC-PVDZ-JKFIT
    Number of shells: 80
    Number of basis function: 236
    Number of Cartesian functions: 272
    Spherical Harmonics?: true
    Max angular momentum: 3

  ==> DFT Potential <==

   => Composite Functional: M06-2X <= 

    Hybrid M06-2X Meta-GGA XC Functional

    Y. Zhao and D. G. Truhlar,  Theor. Chem. Acc., 120, 215, 2008


    Deriv               =              1
    GGA                 =           TRUE
    Meta                =           TRUE

    Exchange Hybrid     =           TRUE
    MP2 Hybrid          =          FALSE

   => Exchange Functionals <=

    1.0000   XC_HYB_MGGA_X_M06_2X

   => Exact (HF) Exchange <=

    0.5400               HF 

   => Correlation Functionals <=

    1.0000   XC_MGGA_C_M06_2X

   => Molecular Quadrature <=

    Radial Scheme          =       TREUTLER
    Pruning Scheme         =           FLAT
    Nuclear Scheme         =       TREUTLER

    BS radius alpha        =              1
    Pruning alpha          =              1
    Radial Points          =             75
    Spherical Points       =            302
    Total Points           =          90600
    Total Blocks           =            752
    Max Points             =            256
    Max Functions          =             64


  -Total Gradient:
     Atom            X                  Y                   Z
    ------   -----------------  -----------------  -----------------
       1       -0.041424787570    -0.000000000000     0.000000000000
       2        0.041424787570     0.000000000000     0.000000000000
       3       -0.002777079463    -0.000000000000     0.000000000000
       4        0.002777079463     0.000000000000     0.000000000000


*** tstop() called on atlantis at Tue Apr 19 02:09:10 2022
Module time:
	user time   =       0.77 seconds =       0.01 minutes
	system time =       0.00 seconds =       0.00 minutes
	total time  =          0 seconds =       0.00 minutes
Total time:
	user time   =      19.74 seconds =       0.33 minutes
	system time =       0.16 seconds =       0.00 minutes
	total time  =         20 seconds =       0.33 minutes

  //>>>>>>>>>>>>>>>>>>>>>>>>>>>>>>>>>>>//
  //    Loading displacement 4 of 12   //
  //<<<<<<<<<<<<<<<<<<<<<<<<<<<<<<<<<<<//
gradient() will perform analytic gradient computation.

*** tstart() called on atlantis
*** at Tue Apr 19 02:09:10 2022

   => Loading Basis Set <=

    Name: AUG-CC-PVDZ
    Role: ORBITAL
    Keyword: BASIS
    atoms 1-2 entry C          line   178 file /home/akrom/software/anaconda3/envs/ffpenv/share/psi4/basis/aug-cc-pvdz.gbs 
    atoms 3-4 entry H          line    36 file /home/akrom/software/anaconda3/envs/ffpenv/share/psi4/basis/aug-cc-pvdz.gbs 


         ---------------------------------------------------------
                                   SCF
               by Justin Turney, Rob Parrish, Andy Simmonett
                          and Daniel G. A. Smith
                              RKS Reference
                        1 Threads,    500 MiB Core
         ---------------------------------------------------------

  ==> Geometry <==

    Molecular point group: d2h
    Full point group: D_inf_h

    Geometry (in Angstrom), charge = 0, multiplicity = 1:

       Center              X                  Y                   Z               Mass       
    ------------   -----------------  -----------------  -----------------  -----------------
         C           -0.614460000000    -0.000000000000     0.000000000000    12.000000000000
         C            0.614460000000     0.000000000000     0.000000000000    12.000000000000
         H           -1.691093646632    -0.000000000000     0.000000000000     1.007825032230
         H            1.691093646632     0.000000000000     0.000000000000     1.007825032230

  Running in d2h symmetry.

  Rotational constants: A = ************  B =      1.13705  C =      1.13705 [cm^-1]
  Rotational constants: A = ************  B =  34087.76638  C =  34087.76638 [MHz]
  Nuclear repulsion =   24.310590060340044

  Charge       = 0
  Multiplicity = 1
  Electrons    = 14
  Nalpha       = 7
  Nbeta        = 7

  ==> Algorithm <==

  SCF Algorithm Type is DF.
  DIIS enabled.
  MOM disabled.
  Fractional occupation disabled.
  Guess Type is SAD.
  Energy threshold   = 1.00e-08
  Density threshold  = 1.00e-08
  Integral threshold = 0.00e+00

  ==> Primary Basis <==

  Basis Set: AUG-CC-PVDZ
    Blend: AUG-CC-PVDZ
    Number of shells: 28
    Number of basis function: 64
    Number of Cartesian functions: 68
    Spherical Harmonics?: true
    Max angular momentum: 2

  ==> DFT Potential <==

   => Composite Functional: M06-2X <= 

    Hybrid M06-2X Meta-GGA XC Functional

    Y. Zhao and D. G. Truhlar,  Theor. Chem. Acc., 120, 215, 2008


    Deriv               =              1
    GGA                 =           TRUE
    Meta                =           TRUE

    Exchange Hybrid     =           TRUE
    MP2 Hybrid          =          FALSE

   => Exchange Functionals <=

    1.0000   XC_HYB_MGGA_X_M06_2X

   => Exact (HF) Exchange <=

    0.5400               HF 

   => Correlation Functionals <=

    1.0000   XC_MGGA_C_M06_2X

   => Molecular Quadrature <=

    Radial Scheme          =       TREUTLER
    Pruning Scheme         =           FLAT
    Nuclear Scheme         =       TREUTLER

    BS radius alpha        =              1
    Pruning alpha          =              1
    Radial Points          =             75
    Spherical Points       =            302
    Total Points           =          90600
    Total Blocks           =            752
    Max Points             =            256
    Max Functions          =             64

   => Loading Basis Set <=

    Name: (AUG-CC-PVDZ AUX)
    Role: JKFIT
    Keyword: DF_BASIS_SCF
    atoms 1-2 entry C          line   154 file /home/akrom/software/anaconda3/envs/ffpenv/share/psi4/basis/aug-cc-pvdz-jkfit.gbs 
    atoms 3-4 entry H          line    70 file /home/akrom/software/anaconda3/envs/ffpenv/share/psi4/basis/aug-cc-pvdz-jkfit.gbs 

  ==> Pre-Iterations <==

   -------------------------------------------------------
    Irrep   Nso     Nmo     Nalpha   Nbeta   Ndocc  Nsocc
   -------------------------------------------------------
     Ag        16      16       0       0       0       0
     B1g        7       7       0       0       0       0
     B2g        7       7       0       0       0       0
     B3g        2       2       0       0       0       0
     Au         2       2       0       0       0       0
     B1u        7       7       0       0       0       0
     B2u        7       7       0       0       0       0
     B3u       16      16       0       0       0       0
   -------------------------------------------------------
    Total      64      64       7       7       7       0
   -------------------------------------------------------

  ==> Integral Setup <==

  DFHelper Memory: AOs need 0.008 GiB; user supplied 0.008 GiB. Using in-core AOs.

  ==> MemDFJK: Density-Fitted J/K Matrices <==

    J tasked:                   Yes
    K tasked:                   Yes
    wK tasked:                   No
    OpenMP threads:               1
    Memory [MiB]:                 8
    Algorithm:                 Core
    Schwarz Cutoff:           1E-12
    Mask sparsity (%):       0.0000
    Fitting Condition:        1E-10

   => Auxiliary Basis Set <=

  Basis Set: (AUG-CC-PVDZ AUX)
    Blend: AUG-CC-PVDZ-JKFIT
    Number of shells: 80
    Number of basis function: 236
    Number of Cartesian functions: 272
    Spherical Harmonics?: true
    Max angular momentum: 3

  Cached 100.0% of DFT collocation blocks in 0.410 [GiB].

  Minimum eigenvalue in the overlap matrix is 3.8587094821E-05.
  Using Symmetric Orthogonalization.

  SCF Guess: Superposition of Atomic Densities via on-the-fly atomic UHF.

  ==> Iterations <==

                           Total Energy        Delta E     RMS |[F,P]|

   @DF-RKS iter SAD:   -76.52993482083215   -7.65299e+01   0.00000e+00 
   @DF-RKS iter   1:   -77.19076235959703   -6.60828e-01   1.59529e-02 DIIS
   @DF-RKS iter   2:   -77.24103862011401   -5.02763e-02   1.17909e-02 DIIS
   @DF-RKS iter   3:   -77.30137989411422   -6.03413e-02   3.07725e-04 DIIS
   @DF-RKS iter   4:   -77.30142032463601   -4.04305e-05   1.60670e-05 DIIS
   @DF-RKS iter   5:   -77.30142046761790   -1.42982e-07   2.64386e-06 DIIS
   @DF-RKS iter   6:   -77.30142046996555   -2.34765e-09   3.29733e-07 DIIS
   @DF-RKS iter   7:   -77.30142047003987   -7.43228e-11   4.43325e-08 DIIS
   @DF-RKS iter   8:   -77.30142047004124   -1.36424e-12   2.73007e-09 DIIS
  Energy and wave function converged.


  ==> Post-Iterations <==

    Orbital Energies [Eh]
    ---------------------

    Doubly Occupied:                                                      

       1Ag   -10.569347     1B3u  -10.567131     2Ag    -0.846075  
       2B3u   -0.645812     3Ag    -0.560151     1B2u   -0.351459  
       1B1u   -0.351459  

    Virtual:                                                              

       4Ag     0.004169     3B3u    0.012016     1B1g    0.039911  
       1B2g    0.039911     2B2u    0.070967     2B1u    0.070967  
       5Ag     0.077527     4B3u    0.096480     2B1g    0.131945  
       2B2g    0.131945     6Ag     0.134034     5B3u    0.181256  
       6B3u    0.258805     7Ag     0.265036     3B2u    0.316510  
       3B1u    0.316510     1B3g    0.338307     8Ag     0.338307  
       3B1g    0.403593     3B2g    0.403593     7B3u    0.434662  
       9Ag     0.441971    10Ag     0.491890     1Au     0.503145  
       8B3u    0.503145     9B3u    0.582645     4B2u    0.638803  
       4B1u    0.638803     4B1g    0.705512     4B2g    0.705512  
       5B2u    0.709399     5B1u    0.709399    10B3u    0.719249  
      11Ag     0.829210    11B3u    1.019139     5B1g    1.035612  
       5B2g    1.035612    12Ag     1.198244    13Ag     1.362460  
       2B3g    1.362460    12B3u    1.422679     6B2u    1.460653  
       6B1u    1.460653    14Ag     1.491424    13B3u    1.662834  
       2Au     1.662839     6B1g    1.721537     6B2g    1.721537  
       7B2u    1.894032     7B1u    1.894032    14B3u    2.226589  
      15Ag     2.276374    15B3u    2.355823     7B1g    2.482853  
       7B2g    2.482853    16Ag     3.425662    16B3u    3.619091  

    Final Occupation by Irrep:
             Ag   B1g   B2g   B3g    Au   B1u   B2u   B3u 
    DOCC [     3,    0,    0,    0,    0,    1,    1,    2 ]

  @DF-RKS Final Energy:   -77.30142047004124

   => Energetics <=

    Nuclear Repulsion Energy =             24.3105900603400436
    One-Electron Energy =                -150.9014669505378095
    Two-Electron Energy =                  54.8041007978812047
    DFT Exchange-Correlation Energy =      -5.5146443777246787
    Empirical Dispersion Energy =           0.0000000000000000
    VV10 Nonlocal Energy =                  0.0000000000000000
    Total Energy =                        -77.3014204700412364

Computation Completed


Properties will be evaluated at   0.000000,   0.000000,   0.000000 [a0]

Properties computed using the SCF density matrix

  Nuclear Dipole Moment: [e a0]
     X:     0.0000      Y:     0.0000      Z:     0.0000

  Electronic Dipole Moment: [e a0]
     X:     0.0000      Y:     0.0000      Z:     0.0000

  Dipole Moment: [e a0]
     X:     0.0000      Y:     0.0000      Z:     0.0000     Total:     0.0000

  Dipole Moment: [D]
     X:     0.0000      Y:     0.0000      Z:     0.0000     Total:     0.0000


*** tstop() called on atlantis at Tue Apr 19 02:09:14 2022
Module time:
	user time   =       3.39 seconds =       0.06 minutes
	system time =       0.01 seconds =       0.00 minutes
	total time  =          4 seconds =       0.07 minutes
Total time:
	user time   =      23.13 seconds =       0.39 minutes
	system time =       0.17 seconds =       0.00 minutes
	total time  =         24 seconds =       0.40 minutes

*** tstart() called on atlantis
*** at Tue Apr 19 02:09:14 2022


         ------------------------------------------------------------
                                   SCF GRAD                          
                          Rob Parrish, Justin Turney,                
                       Andy Simmonett, and Alex Sokolov              
         ------------------------------------------------------------

  ==> Geometry <==

    Molecular point group: d2h
    Full point group: D_inf_h

    Geometry (in Angstrom), charge = 0, multiplicity = 1:

       Center              X                  Y                   Z               Mass       
    ------------   -----------------  -----------------  -----------------  -----------------
         C           -0.614460000000    -0.000000000000     0.000000000000    12.000000000000
         C            0.614460000000     0.000000000000     0.000000000000    12.000000000000
         H           -1.691093646632    -0.000000000000     0.000000000000     1.007825032230
         H            1.691093646632     0.000000000000     0.000000000000     1.007825032230

  Nuclear repulsion =   24.310590060340044

  ==> Basis Set <==

  Basis Set: AUG-CC-PVDZ
    Blend: AUG-CC-PVDZ
    Number of shells: 28
    Number of basis function: 64
    Number of Cartesian functions: 68
    Spherical Harmonics?: true
    Max angular momentum: 2

  ==> DFJKGrad: Density-Fitted SCF Gradients <==

    Gradient:                    1
    J tasked:                  Yes
    K tasked:                  Yes
    wK tasked:                  No
    OpenMP threads:              1
    Integrals threads:           1
    Memory [MiB]:              375
    Schwarz Cutoff:          0E+00
    Fitting Condition:       1E-10

   => Auxiliary Basis Set <=

  Basis Set: (AUG-CC-PVDZ AUX)
    Blend: AUG-CC-PVDZ-JKFIT
    Number of shells: 80
    Number of basis function: 236
    Number of Cartesian functions: 272
    Spherical Harmonics?: true
    Max angular momentum: 3

  ==> DFT Potential <==

   => Composite Functional: M06-2X <= 

    Hybrid M06-2X Meta-GGA XC Functional

    Y. Zhao and D. G. Truhlar,  Theor. Chem. Acc., 120, 215, 2008


    Deriv               =              1
    GGA                 =           TRUE
    Meta                =           TRUE

    Exchange Hybrid     =           TRUE
    MP2 Hybrid          =          FALSE

   => Exchange Functionals <=

    1.0000   XC_HYB_MGGA_X_M06_2X

   => Exact (HF) Exchange <=

    0.5400               HF 

   => Correlation Functionals <=

    1.0000   XC_MGGA_C_M06_2X

[...]

  ==> Pre-Iterations <==

   -------------------------------------------------------
    Irrep   Nso     Nmo     Nalpha   Nbeta   Ndocc  Nsocc
   -------------------------------------------------------
     A1        32      32       0       0       0       0
     A2         4       4       0       0       0       0
     B1        14      14       0       0       0       0
     B2        14      14       0       0       0       0
   -------------------------------------------------------
    Total      64      64       7       7       7       0
   -------------------------------------------------------

  ==> Integral Setup <==

  DFHelper Memory: AOs need 0.008 GiB; user supplied 0.008 GiB. Using in-core AOs.

  ==> MemDFJK: Density-Fitted J/K Matrices <==

    J tasked:                   Yes
    K tasked:                   Yes
    wK tasked:                   No
    OpenMP threads:               1
    Memory [MiB]:                 8
    Algorithm:                 Core
    Schwarz Cutoff:           1E-12
    Mask sparsity (%):       0.0000
    Fitting Condition:        1E-10

   => Auxiliary Basis Set <=

  Basis Set: (AUG-CC-PVDZ AUX)
    Blend: AUG-CC-PVDZ-JKFIT
    Number of shells: 80
    Number of basis function: 236
    Number of Cartesian functions: 272
    Spherical Harmonics?: true
    Max angular momentum: 3

  Cached 100.0% of DFT collocation blocks in 0.410 [GiB].

  Minimum eigenvalue in the overlap matrix is 3.8568667600E-05.
  Using Symmetric Orthogonalization.

  SCF Guess: Superposition of Atomic Densities via on-the-fly atomic UHF.

  ==> Iterations <==

                           Total Energy        Delta E     RMS |[F,P]|

   @DF-RKS iter SAD:   -76.53058953763502   -7.65306e+01   0.00000e+00 
   @DF-RKS iter   1:   -77.19090432822131   -6.60315e-01   1.12755e-02 DIIS
   @DF-RKS iter   2:   -77.24130923525934   -5.04049e-02   8.32220e-03 DIIS
   @DF-RKS iter   3:   -77.30139513577740   -6.00859e-02   2.21104e-04 DIIS
   @DF-RKS iter   4:   -77.30143237063989   -3.72349e-05   7.74741e-05 DIIS
   @DF-RKS iter   5:   -77.30143386157313   -1.49093e-06   6.33497e-05 DIIS
   @DF-RKS iter   6:   -77.30143678216498   -2.92059e-06   1.27983e-06 DIIS
   @DF-RKS iter   7:   -77.30143678331184   -1.14686e-09   1.54476e-07 DIIS
   @DF-RKS iter   8:   -77.30143678334444   -3.25997e-11   2.07162e-08 DIIS
   @DF-RKS iter   9:   -77.30143678334507   -6.25278e-13   1.27008e-09 DIIS
  Energy and wave function converged.


  ==> Post-Iterations <==

    Orbital Energies [Eh]
    ---------------------

    Doubly Occupied:                                                      

       1A1   -10.569241     2A1   -10.567004     3A1    -0.846193  
       4A1    -0.646424     5A1    -0.560632     1B1    -0.351499  
       1B2    -0.351499  

    Virtual:                                                              

       6A1     0.004166     7A1     0.012064     2B1     0.039895  
       2B2     0.039895     3B1     0.070958     3B2     0.070958  
       8A1     0.077593     9A1     0.096603     4B2     0.131909  
       4B1     0.131909    10A1     0.134011    11A1     0.181561  
      12A1     0.258975    13A1     0.265590     5B2     0.316664  
       5B1     0.316664     1A2     0.338284    14A1     0.338284  
       6B2     0.403709     6B1     0.403709    15A1     0.434564  
      16A1     0.441987    17A1     0.492049     2A2     0.503139  
      18A1     0.503139    19A1     0.583028     7B1     0.638976  
       7B2     0.638976     8B1     0.705866     8B2     0.705866  
       9B1     0.709395     9B2     0.709395    20A1     0.719328  
      21A1     0.829968    22A1     1.019333    10B1     1.035548  
      10B2     1.035548    23A1     1.198986    24A1     1.362435  
       3A2     1.362436    25A1     1.422985    11B1     1.460794  
      11B2     1.460794    26A1     1.491061    27A1     1.662808  
       4A2     1.662813    12B1     1.722271    12B2     1.722271  
      13B1     1.895453    13B2     1.895453    28A1     2.227864  
      29A1     2.280392    30A1     2.358280    14B1     2.485094  
      14B2     2.485094    31A1     3.428217    32A1     3.623883  

    Final Occupation by Irrep:
             A1    A2    B1    B2 
    DOCC [     5,    0,    1,    1 ]

  @DF-RKS Final Energy:   -77.30143678334507

   => Energetics <=

    Nuclear Repulsion Energy =             24.3232393838559098
    One-Electron Energy =                -150.9241873975612407
    Two-Electron Energy =                  54.8147590608994975
    DFT Exchange-Correlation Energy =      -5.5152478305392281
    Empirical Dispersion Energy =           0.0000000000000000
    VV10 Nonlocal Energy =                  0.0000000000000000
    Total Energy =                        -77.3014367833450677

Computation Completed


Properties will be evaluated at   0.000000,   0.000000,   0.000000 [a0]

Properties computed using the SCF density matrix

  Nuclear Dipole Moment: [e a0]
     X:     0.0034      Y:     0.0000      Z:     0.0000

  Electronic Dipole Moment: [e a0]
     X:    -0.0017      Y:     0.0000      Z:     0.0000

  Dipole Moment: [e a0]
     X:     0.0017      Y:     0.0000      Z:     0.0000     Total:     0.0017

  Dipole Moment: [D]
     X:     0.0043      Y:     0.0000      Z:     0.0000     Total:     0.0043


*** tstop() called on atlantis at Tue Apr 19 02:09:47 2022
Module time:
	user time   =       3.69 seconds =       0.06 minutes
	system time =       0.01 seconds =       0.00 minutes
	total time  =          4 seconds =       0.07 minutes
Total time:
	user time   =      56.48 seconds =       0.94 minutes
	system time =       0.27 seconds =       0.00 minutes
	total time  =         57 seconds =       0.95 minutes

*** tstart() called on atlantis
*** at Tue Apr 19 02:09:47 2022


         ------------------------------------------------------------
                                   SCF GRAD                          
                          Rob Parrish, Justin Turney,                
                       Andy Simmonett, and Alex Sokolov              
         ------------------------------------------------------------

  ==> Geometry <==

    Molecular point group: c2v
    Full point group: C_inf_v

    Geometry (in Angstrom), charge = 0, multiplicity = 1:

       Center              X                  Y                   Z               Mass       
    ------------   -----------------  -----------------  -----------------  -----------------
         C           -0.614610333491     0.000000000000     0.000000000000    12.000000000000
         C            0.614309666509     0.000000000000     0.000000000000    12.000000000000
         H           -1.687440004874     0.000000000000     0.000000000000     1.007825032230
         H            1.691019995126     0.000000000000     0.000000000000     1.007825032230

  Nuclear repulsion =   24.323239383855910

  ==> Basis Set <==

  Basis Set: AUG-CC-PVDZ
    Blend: AUG-CC-PVDZ
    Number of shells: 28
    Number of basis function: 64
    Number of Cartesian functions: 68
    Spherical Harmonics?: true
    Max angular momentum: 2

  ==> DFJKGrad: Density-Fitted SCF Gradients <==

    Gradient:                    1
    J tasked:                  Yes
    K tasked:                  Yes
    wK tasked:                  No
    OpenMP threads:              1
    Integrals threads:           1
    Memory [MiB]:              375
    Schwarz Cutoff:          0E+00
    Fitting Condition:       1E-10

   => Auxiliary Basis Set <=

  Basis Set: (AUG-CC-PVDZ AUX)
    Blend: AUG-CC-PVDZ-JKFIT
    Number of shells: 80
    Number of basis function: 236
    Number of Cartesian functions: 272
    Spherical Harmonics?: true
    Max angular momentum: 3

  ==> DFT Potential <==

   => Composite Functional: M06-2X <= 

    Hybrid M06-2X Meta-GGA XC Functional

    Y. Zhao and D. G. Truhlar,  Theor. Chem. Acc., 120, 215, 2008


    Deriv               =              1
    GGA                 =           TRUE
    Meta                =           TRUE

    Exchange Hybrid     =           TRUE
    MP2 Hybrid          =          FALSE

   => Exchange Functionals <=

    1.0000   XC_HYB_MGGA_X_M06_2X

   => Exact (HF) Exchange <=

    0.5400               HF 

   => Correlation Functionals <=

    1.0000   XC_MGGA_C_M06_2X

   => Molecular Quadrature <=

    Radial Scheme          =       TREUTLER
    Pruning Scheme         =           FLAT
    Nuclear Scheme         =       TREUTLER

    BS radius alpha        =              1
    Pruning alpha          =              1
    Radial Points          =             75
    Spherical Points       =            302
    Total Points           =          90600
    Total Blocks           =            752
    Max Points             =            256
    Max Functions          =             64


  -Total Gradient:
     Atom            X                  Y                   Z
    ------   -----------------  -----------------  -----------------
       1       -0.045463085143     0.000000000000     0.000000000000
       2        0.042479360582     0.000000000000     0.000000000000
       3       -0.000843799511     0.000000000000     0.000000000000
       4        0.003825893606     0.000000000000     0.000000000000


*** tstop() called on atlantis at Tue Apr 19 02:09:48 2022
Module time:
	user time   =       0.79 seconds =       0.01 minutes
	system time =       0.00 seconds =       0.00 minutes
	total time  =          1 seconds =       0.02 minutes
Total time:
	user time   =      57.27 seconds =       0.95 minutes
	system time =       0.27 seconds =       0.00 minutes
	total time  =         58 seconds =       0.97 minutes

         ----------------------------------------------------------
                                   FINDIF
                     R. A. King and Jonathon Misiewicz
         ---------------------------------------------------------

  Computing second-derivative from gradients using projected, 
  symmetry-adapted, cartesian coordinates.

  12 gradients passed in, including the reference geometry.
  Generating complete list of displacements from unique ones.

    Operation 3 takes plus displacements of irrep B1g to minus ones.
    Operation 2 takes plus displacements of irrep B2g to minus ones.
    Operation 3 takes plus displacements of irrep B1u to minus ones.
    Operation 2 takes plus displacements of irrep B2u to minus ones.
    Operation 2 takes plus displacements of irrep B3u to minus ones.

-------------------------------------------------------------


  ==> Harmonic Vibrational Analysis <==

  non-mass-weighted Hessian:       Symmetric? True   Hermitian? True   Lin Dep Dim?  3 (0)
  projection of translations (True) and rotations (False) removed 3 degrees of freedom (5)
  total projector:                 Symmetric? True   Hermitian? True   Lin Dep Dim?  3 (3)
  mass-weighted Hessian:           Symmetric? True   Hermitian? True   Lin Dep Dim?  3 (0)
  pre-proj  low-frequency mode:    0.0000i [cm^-1]
  pre-proj  low-frequency mode:    0.0000  [cm^-1]
  pre-proj  low-frequency mode:    0.0000  [cm^-1]
  pre-proj  low-frequency mode:  234.7683  [cm^-1]
  pre-proj  low-frequency mode:  234.7687  [cm^-1]
  pre-proj  all modes:['0.0000i' '0.0000' '0.0000' '234.7683' '234.7687' '617.5713' '617.5715'
 '756.8029' '756.8033' '1976.8792' '3399.7049' '3493.4885']
  projected mass-weighted Hessian: Symmetric? True   Hermitian? True   Lin Dep Dim?  3 (3)
  post-proj low-frequency mode:    0.0000i [cm^-1] (TR)
  post-proj low-frequency mode:    0.0000  [cm^-1] (TR)
  post-proj low-frequency mode:    0.0000  [cm^-1] (TR)
  post-proj low-frequency mode:  234.7683  [cm^-1] (V)
  post-proj low-frequency mode:  234.7687  [cm^-1] (V)
  post-proj  all modes:['0.0000i' '0.0000' '0.0000' '234.7683' '234.7687' '617.5713' '617.5715'
 '756.8029' '756.8033' '1976.8792' '3399.7049' '3493.4885']

  Note that "Vibration"s include 2 un-projected rotation-like modes.
  Vibration                       4                   5                   6           
  Freq [cm^-1]                 234.7683            234.7687            617.5713       
  Irrep                          B2g                 B1g                 B1g          
  Reduced mass [u]              1.8947              1.8947              1.8255        
  Force const [mDyne/A]         0.0615              0.0615              0.4102        
  Turning point v=0 [a0]        0.5203              0.5203              0.3268        
  RMS dev v=0 [a0 u^1/2]        0.5064              0.5064              0.3122        
  Char temp [K]                337.7794            337.7799            888.5477       
  ----------------------------------------------------------------------------------
      1   C                0.00 -0.00  0.20   -0.00  0.20  0.00    0.00 -0.19  0.00   
      2   C                0.00  0.00 -0.20   -0.00 -0.20 -0.00    0.00  0.19 -0.00   
      3   H                0.00 -0.00  0.68   -0.00  0.68  0.00    0.00  0.68 -0.00   
      4   H                0.00  0.00 -0.68   -0.00 -0.68 -0.00    0.00 -0.68  0.00   

  Vibration                       7                   8                   9           
  Freq [cm^-1]                 617.5715            756.8029            756.8033       
  Irrep                          B2g                 B1u                 B2u          
  Reduced mass [u]              1.8255              1.0848              1.0848        
  Force const [mDyne/A]         0.4102              0.3661              0.3661        
  Turning point v=0 [a0]        0.3268              0.3830              0.3830        
  RMS dev v=0 [a0 u^1/2]        0.3122              0.2820              0.2820        
  Char temp [K]                888.5478           1088.8708           1088.8714       
  ----------------------------------------------------------------------------------
      1   C               -0.00 -0.00 -0.19   -0.00  0.00 -0.06    0.00 -0.06 -0.00   
      2   C               -0.00  0.00  0.19   -0.00  0.00 -0.06    0.00 -0.06 -0.00   
      3   H               -0.00  0.00  0.68   -0.00 -0.00  0.70    0.00  0.70  0.00   
      4   H               -0.00 -0.00 -0.68   -0.00 -0.00  0.70    0.00  0.70  0.00   

  Vibration                       10                  11                  12          
  Freq [cm^-1]                1976.8792           3399.7049           3493.4885       
  Irrep                           Ag                 B3u                  Ag          
  Reduced mass [u]              3.9432              1.0848              1.2166        
  Force const [mDyne/A]         9.0794              7.3874              8.7481        
  Turning point v=0 [a0]        0.1243              0.1807              0.1683        
  RMS dev v=0 [a0 u^1/2]        0.1745              0.1331              0.1313        
  Char temp [K]               2844.2891           4891.4184           5026.3521       
  ----------------------------------------------------------------------------------
      1   C                0.37  0.00 -0.00   -0.06 -0.00 -0.00   -0.10 -0.00 -0.00   
      2   C               -0.37  0.00  0.00   -0.06  0.00 -0.00    0.10  0.00  0.00   
      3   H                0.61  0.00  0.00    0.70  0.00 -0.00    0.70  0.00  0.00   
      4   H               -0.61  0.00 -0.00    0.70  0.00 -0.00   -0.70 -0.00  0.00   

  ==> Thermochemistry Components <==

  Entropy, S
    Electronic S            0.000 [cal/(mol K)]        0.000 [J/(mol K)]       0.00000000 [mEh/K] (multiplicity = 1)
    Translational S        35.704 [cal/(mol K)]      149.387 [J/(mol K)]       0.05689862 [mEh/K] (mol. weight = 26.0157 [u], P = 101325.00 [Pa])
    Rotational S           10.952 [cal/(mol K)]       45.824 [J/(mol K)]       0.01745345 [mEh/K] (symmetry no. = 2)
    Vibrational S           5.018 [cal/(mol K)]       20.994 [J/(mol K)]       0.00799610 [mEh/K]
  Total S                  51.674 [cal/(mol K)]      216.205 [J/(mol K)]       0.08234816 [mEh/K]
  Correction S              0.000 [cal/(mol K)]        0.000 [J/(mol K)]       0.00000000 [mEh/K]

  Constant volume heat capacity, Cv
    Electronic Cv           0.000 [cal/(mol K)]        0.000 [J/(mol K)]       0.00000000 [mEh/K]
    Translational Cv        2.981 [cal/(mol K)]       12.472 [J/(mol K)]       0.00475022 [mEh/K]
    Rotational Cv           1.987 [cal/(mol K)]        8.314 [J/(mol K)]       0.00316681 [mEh/K]
    Vibrational Cv          7.027 [cal/(mol K)]       29.401 [J/(mol K)]       0.01119816 [mEh/K]
  Total Cv                 11.995 [cal/(mol K)]       50.187 [J/(mol K)]       0.01911519 [mEh/K]
  Correction Cv             0.000 [cal/(mol K)]        0.000 [J/(mol K)]       0.00000000 [mEh/K]

  Constant pressure heat capacity, Cp
    Electronic Cp           0.000 [cal/(mol K)]        0.000 [J/(mol K)]       0.00000000 [mEh/K]
    Translational Cp        4.968 [cal/(mol K)]       20.786 [J/(mol K)]       0.00791703 [mEh/K]
    Rotational Cp           1.987 [cal/(mol K)]        8.314 [J/(mol K)]       0.00316681 [mEh/K]
    Vibrational Cp          7.027 [cal/(mol K)]       29.401 [J/(mol K)]       0.01119816 [mEh/K]
  Total Cp                 13.982 [cal/(mol K)]       58.501 [J/(mol K)]       0.02228200 [mEh/K]
  Correction Cp             0.000 [cal/(mol K)]        0.000 [J/(mol K)]       0.00000000 [mEh/K]

  ==> Thermochemistry Energy Analysis <==

  Raw electronic energy, E0
  Total E0, Electronic energy at well bottom at 0 [K]                  -77.30144226 [Eh]

  Zero-point energy, ZPE_vib = Sum_i nu_i / 2
    Electronic ZPE          0.000 [kcal/mol]        0.000 [kJ/mol]       0.00000000 [Eh]
    Translational ZPE       0.000 [kcal/mol]        0.000 [kJ/mol]       0.00000000 [Eh]
    Rotational ZPE          0.000 [kcal/mol]        0.000 [kJ/mol]       0.00000000 [Eh]
    Vibrational ZPE        17.281 [kcal/mol]       72.304 [kJ/mol]       0.02753931 [Eh]        6044.179 [cm^-1]
  Correction ZPE           17.281 [kcal/mol]       72.304 [kJ/mol]       0.02753931 [Eh]        6044.179 [cm^-1]
  Total ZPE, Electronic energy at 0 [K]                                -77.27390295 [Eh]

  Thermal Energy, E (includes ZPE)
    Electronic E            0.000 [kcal/mol]        0.000 [kJ/mol]       0.00000000 [Eh]
    Translational E         0.889 [kcal/mol]        3.718 [kJ/mol]       0.00141628 [Eh]
    Rotational E            0.592 [kcal/mol]        2.479 [kJ/mol]       0.00094418 [Eh]
    Vibrational E          18.224 [kcal/mol]       76.248 [kJ/mol]       0.02904114 [Eh]
  Correction E             19.705 [kcal/mol]       82.445 [kJ/mol]       0.03140160 [Eh]
  Total E, Electronic energy at  298.15 [K]                            -77.27004065 [Eh]

  Enthalpy, H_trans = E_trans + k_B * T
    Electronic H            0.000 [kcal/mol]        0.000 [kJ/mol]       0.00000000 [Eh]
    Translational H         1.481 [kcal/mol]        6.197 [kJ/mol]       0.00236046 [Eh]
    Rotational H            0.592 [kcal/mol]        2.479 [kJ/mol]       0.00094418 [Eh]
    Vibrational H          18.224 [kcal/mol]       76.248 [kJ/mol]       0.02904114 [Eh]
  Correction H             20.297 [kcal/mol]       84.924 [kJ/mol]       0.03234579 [Eh]
  Total H, Enthalpy at  298.15 [K]                                     -77.26909647 [Eh]

  Gibbs free energy, G = H - T * S
    Electronic G            0.000 [kcal/mol]        0.000 [kJ/mol]       0.00000000 [Eh]
    Translational G        -9.164 [kcal/mol]      -38.342 [kJ/mol]      -0.01460386 [Eh]
    Rotational G           -2.673 [kcal/mol]      -11.183 [kJ/mol]      -0.00425956 [Eh]
    Vibrational G          16.728 [kcal/mol]       69.988 [kJ/mol]       0.02665711 [Eh]
  Correction G              4.891 [kcal/mol]       20.462 [kJ/mol]       0.00779368 [Eh]
  Total G, Free enthalpy at  298.15 [K]                                -77.29364857 [Eh]

    Psi4 stopped on: Tuesday, 19 April 2022 02:09AM
    Psi4 wall time for execution: 0:00:57.74

*** Psi4 exiting successfully. Buy a developer a beer!
