
    -----------------------------------------------------------------------
          Psi4: An Open-Source Ab Initio Electronic Structure Package
                               Psi4 1.3.2 release

                         Git: Rev {HEAD} ecbda83 


    R. M. Parrish, L. A. Burns, D. G. A. Smith, A. C. Simmonett,
    A. E. DePrince III, E. G. Hohenstein, U. Bozkaya, A. Yu. Sokolov,
    R. Di Remigio, R. M. Richard, J. F. Gonthier, A. M. James,
    H. R. McAlexander, A. Kumar, M. Saitow, X. Wang, B. P. Pritchard,
    P. Verma, H. F. Schaefer III, K. Patkowski, R. A. King, E. F. Valeev,
    F. A. Evangelista, J. M. Turney, T. D. Crawford, and C. D. Sherrill,
    J. Chem. Theory Comput. 13(7) pp 3185--3197 (2017).
    (doi: 10.1021/acs.jctc.7b00174)


                         Additional Contributions by
    P. Kraus, H. Kruse, M. H. Lechner, M. C. Schieber, R. A. Shaw,
    A. Alenaizan, R. Galvelis, Z. L. Glick, S. Lehtola, and J. P. Misiewicz

    -----------------------------------------------------------------------


    Psi4 started on: Tuesday, 19 April 2022 12:04AM

    Process ID: 25015
    Host:       atlantis
    PSIDATADIR: /home/akrom/software/anaconda3/envs/ffpenv/share/psi4
    Memory:     500.0 MiB
    Threads:    1
    
  ==> Input File <==

--------------------------------------------------------------------------
set basis  aug-cc-pVDZ
molecule {
0 1
   O        0.00000        0.00000       -0.06797
   H        0.74903        0.00000        0.53936
   H       -0.74903        0.00000        0.53936
}
energy('scf')
frequencies('scf')


--------------------------------------------------------------------------

*** tstart() called on atlantis
*** at Tue Apr 19 00:04:44 2022

   => Loading Basis Set <=

    Name: AUG-CC-PVDZ
    Role: ORBITAL
    Keyword: BASIS
    atoms 1   entry O          line   250 file /home/akrom/software/anaconda3/envs/ffpenv/share/psi4/basis/aug-cc-pvdz.gbs 
    atoms 2-3 entry H          line    36 file /home/akrom/software/anaconda3/envs/ffpenv/share/psi4/basis/aug-cc-pvdz.gbs 


         ---------------------------------------------------------
                                   SCF
               by Justin Turney, Rob Parrish, Andy Simmonett
                          and Daniel G. A. Smith
                              RHF Reference
                        1 Threads,    500 MiB Core
         ---------------------------------------------------------

  ==> Geometry <==

    Molecular point group: c2v
    Full point group: C2v

    Geometry (in Angstrom), charge = 0, multiplicity = 1:

       Center              X                  Y                   Z               Mass       
    ------------   -----------------  -----------------  -----------------  -----------------
         O            0.000000000000     0.000000000000    -0.067969259994    15.994914619570
         H            0.749030000000     0.000000000000     0.539360740006     1.007825032230
         H           -0.749030000000    -0.000000000000     0.539360740006     1.007825032230

  Running in c2v symmetry.

  Rotational constants: A =     25.53156  B =     14.90675  C =      9.41168 [cm^-1]
  Rotational constants: A = 765416.81232  B = 446893.08836  C = 282155.15104 [MHz]
  Nuclear repulsion =    9.133433460995141

  Charge       = 0
  Multiplicity = 1
  Electrons    = 10
  Nalpha       = 5
  Nbeta        = 5

  ==> Algorithm <==

  SCF Algorithm Type is DF.
  DIIS enabled.
  MOM disabled.
  Fractional occupation disabled.
  Guess Type is SAD.
  Energy threshold   = 1.00e-06
  Density threshold  = 1.00e-06
  Integral threshold = 0.00e+00

  ==> Primary Basis <==

  Basis Set: AUG-CC-PVDZ
    Blend: AUG-CC-PVDZ
    Number of shells: 19
    Number of basis function: 41
    Number of Cartesian functions: 43
    Spherical Harmonics?: true
    Max angular momentum: 2

   => Loading Basis Set <=

    Name: (AUG-CC-PVDZ AUX)
    Role: JKFIT
    Keyword: DF_BASIS_SCF
    atoms 1   entry O          line   270 file /home/akrom/software/anaconda3/envs/ffpenv/share/psi4/basis/aug-cc-pvdz-jkfit.gbs 
    atoms 2-3 entry H          line    70 file /home/akrom/software/anaconda3/envs/ffpenv/share/psi4/basis/aug-cc-pvdz-jkfit.gbs 

  ==> Pre-Iterations <==

   -------------------------------------------------------
    Irrep   Nso     Nmo     Nalpha   Nbeta   Ndocc  Nsocc
   -------------------------------------------------------
     A1        18      18       0       0       0       0
     A2         4       4       0       0       0       0
     B1        12      12       0       0       0       0
     B2         7       7       0       0       0       0
   -------------------------------------------------------
    Total      41      41       5       5       5       0
   -------------------------------------------------------

  ==> Integral Setup <==

  DFHelper Memory: AOs need 0.002 GiB; user supplied 0.366 GiB. Using in-core AOs.

  ==> MemDFJK: Density-Fitted J/K Matrices <==

    J tasked:                   Yes
    K tasked:                   Yes
    wK tasked:                   No
    OpenMP threads:               1
    Memory [MiB]:               375
    Algorithm:                 Core
    Schwarz Cutoff:           1E-12
    Mask sparsity (%):       0.0000
    Fitting Condition:        1E-10

   => Auxiliary Basis Set <=

  Basis Set: (AUG-CC-PVDZ AUX)
    Blend: AUG-CC-PVDZ-JKFIT
    Number of shells: 52
    Number of basis function: 150
    Number of Cartesian functions: 171
    Spherical Harmonics?: true
    Max angular momentum: 3

  Minimum eigenvalue in the overlap matrix is 2.6286121429E-03.
  Using Symmetric Orthogonalization.

  SCF Guess: Superposition of Atomic Densities via on-the-fly atomic UHF.

  ==> Iterations <==

                           Total Energy        Delta E     RMS |[F,P]|

   @DF-RHF iter SAD:   -75.46052887262277   -7.54605e+01   0.00000e+00 
   @DF-RHF iter   1:   -75.95595185780351   -4.95423e-01   1.96187e-02 DIIS
   @DF-RHF iter   2:   -76.00906498737989   -5.31131e-02   1.29127e-02 DIIS
   @DF-RHF iter   3:   -76.04023206740668   -3.11671e-02   9.23865e-04 DIIS
   @DF-RHF iter   4:   -76.04061314056074   -3.81073e-04   2.10276e-04 DIIS
   @DF-RHF iter   5:   -76.04063544994899   -2.23094e-05   4.80021e-05 DIIS
   @DF-RHF iter   6:   -76.04063724021360   -1.79026e-06   9.57652e-06 DIIS
   @DF-RHF iter   7:   -76.04063731433301   -7.41194e-08   1.54321e-06 DIIS
   @DF-RHF iter   8:   -76.04063731610427   -1.77126e-09   2.37186e-07 DIIS
  Energy and wave function converged.


  ==> Post-Iterations <==

    Orbital Energies [Eh]
    ---------------------

    Doubly Occupied:                                                      

       1A1   -20.579603     2A1    -1.354877     1B1    -0.710331  
       3A1    -0.589396     1B2    -0.509597  

    Virtual:                                                              

       4A1     0.035114     2B1     0.058156     5A1     0.173842  
       2B2     0.197331     6A1     0.222499     3B1     0.232515  
       4B1     0.287351     7A1     0.334537     1A2     0.386778  
       8A1     0.398138     3B2     0.428976     5B1     0.540800  
       9A1     0.645967     6B1     0.658426     7B1     0.802089  
      10A1     0.935679     4B2     1.104322    11A1     1.119368  
       2A2     1.148197    12A1     1.293440     8B1     1.460939  
       5B2     1.477953    13A1     1.584398     3A2     2.001620  
       9B1     2.005719     6B2     2.113248    14A1     2.335699  
      10B1     2.473643    15A1     2.617774    11B1     2.706505  
      16A1     2.987365     7B2     3.674956    17A1     3.692106  
       4A2     3.700940    18A1     4.004517    12B1     4.299599  

    Final Occupation by Irrep:
             A1    A2    B1    B2 
    DOCC [     3,    0,    1,    1 ]

  @DF-RHF Final Energy:   -76.04063731610427

   => Energetics <=

    Nuclear Repulsion Energy =              9.1334334609951409
    One-Electron Energy =                -122.8605364274985732
    Two-Electron Energy =                  37.6864656503991711
    Total Energy =                        -76.0406373161042666

Computation Completed


Properties will be evaluated at   0.000000,   0.000000,   0.000000 [a0]

Properties computed using the SCF density matrix

  Nuclear Dipole Moment: [e a0]
     X:     0.0000      Y:     0.0000      Z:     1.0109

  Electronic Dipole Moment: [e a0]
     X:     0.0000      Y:     0.0000      Z:    -0.2059

  Dipole Moment: [e a0]
     X:     0.0000      Y:     0.0000      Z:     0.8050     Total:     0.8050

  Dipole Moment: [D]
     X:     0.0000      Y:     0.0000      Z:     2.0461     Total:     2.0461


*** tstop() called on atlantis at Tue Apr 19 00:04:45 2022
Module time:
	user time   =       0.30 seconds =       0.01 minutes
	system time =       0.00 seconds =       0.00 minutes
	total time  =          1 seconds =       0.02 minutes
Total time:
	user time   =       0.30 seconds =       0.01 minutes
	system time =       0.00 seconds =       0.00 minutes
	total time  =          1 seconds =       0.02 minutes
gradient() will perform analytic gradient computation.

*** tstart() called on atlantis
*** at Tue Apr 19 00:04:45 2022

   => Loading Basis Set <=

    Name: AUG-CC-PVDZ
    Role: ORBITAL
    Keyword: BASIS
    atoms 1   entry O          line   250 file /home/akrom/software/anaconda3/envs/ffpenv/share/psi4/basis/aug-cc-pvdz.gbs 
    atoms 2-3 entry H          line    36 file /home/akrom/software/anaconda3/envs/ffpenv/share/psi4/basis/aug-cc-pvdz.gbs 


         ---------------------------------------------------------
                                   SCF
               by Justin Turney, Rob Parrish, Andy Simmonett
                          and Daniel G. A. Smith
                              RHF Reference
                        1 Threads,    500 MiB Core
         ---------------------------------------------------------

  ==> Geometry <==

    Molecular point group: c2v
    Full point group: C2v

    Geometry (in Angstrom), charge = 0, multiplicity = 1:

       Center              X                  Y                   Z               Mass       
    ------------   -----------------  -----------------  -----------------  -----------------
         O            0.000000000000     0.000000000000    -0.067969259994    15.994914619570
         H            0.749030000000     0.000000000000     0.539360740006     1.007825032230
         H           -0.749030000000    -0.000000000000     0.539360740006     1.007825032230

  Running in c2v symmetry.

  Rotational constants: A =     25.53156  B =     14.90675  C =      9.41168 [cm^-1]
  Rotational constants: A = 765416.81232  B = 446893.08836  C = 282155.15104 [MHz]
  Nuclear repulsion =    9.133433460995141

  Charge       = 0
  Multiplicity = 1
  Electrons    = 10
  Nalpha       = 5
  Nbeta        = 5

  ==> Algorithm <==

  SCF Algorithm Type is DF.
  DIIS enabled.
  MOM disabled.
  Fractional occupation disabled.
  Guess Type is SAD.
  Energy threshold   = 1.00e-08
  Density threshold  = 1.00e-08
  Integral threshold = 0.00e+00

  ==> Primary Basis <==

  Basis Set: AUG-CC-PVDZ
    Blend: AUG-CC-PVDZ
    Number of shells: 19
    Number of basis function: 41
    Number of Cartesian functions: 43
    Spherical Harmonics?: true
    Max angular momentum: 2

   => Loading Basis Set <=

    Name: (AUG-CC-PVDZ AUX)
    Role: JKFIT
    Keyword: DF_BASIS_SCF
    atoms 1   entry O          line   270 file /home/akrom/software/anaconda3/envs/ffpenv/share/psi4/basis/aug-cc-pvdz-jkfit.gbs 
    atoms 2-3 entry H          line    70 file /home/akrom/software/anaconda3/envs/ffpenv/share/psi4/basis/aug-cc-pvdz-jkfit.gbs 

  ==> Pre-Iterations <==

   -------------------------------------------------------
    Irrep   Nso     Nmo     Nalpha   Nbeta   Ndocc  Nsocc
   -------------------------------------------------------
     A1        18      18       0       0       0       0
     A2         4       4       0       0       0       0
     B1        12      12       0       0       0       0
     B2         7       7       0       0       0       0
   -------------------------------------------------------
    Total      41      41       5       5       5       0
   -------------------------------------------------------

  ==> Integral Setup <==

  DFHelper Memory: AOs need 0.002 GiB; user supplied 0.366 GiB. Using in-core AOs.

  ==> MemDFJK: Density-Fitted J/K Matrices <==

    J tasked:                   Yes
    K tasked:                   Yes
    wK tasked:                   No
    OpenMP threads:               1
    Memory [MiB]:               375
    Algorithm:                 Core
    Schwarz Cutoff:           1E-12
    Mask sparsity (%):       0.0000
    Fitting Condition:        1E-10

   => Auxiliary Basis Set <=

  Basis Set: (AUG-CC-PVDZ AUX)
    Blend: AUG-CC-PVDZ-JKFIT
    Number of shells: 52
    Number of basis function: 150
    Number of Cartesian functions: 171
    Spherical Harmonics?: true
    Max angular momentum: 3

  Minimum eigenvalue in the overlap matrix is 2.6286121429E-03.
  Using Symmetric Orthogonalization.

  SCF Guess: Superposition of Atomic Densities via on-the-fly atomic UHF.

  ==> Iterations <==

                           Total Energy        Delta E     RMS |[F,P]|

   @DF-RHF iter SAD:   -75.46052887262277   -7.54605e+01   0.00000e+00 
   @DF-RHF iter   1:   -75.95595185780351   -4.95423e-01   1.96187e-02 DIIS
   @DF-RHF iter   2:   -76.00906498737989   -5.31131e-02   1.29127e-02 DIIS
   @DF-RHF iter   3:   -76.04023206740668   -3.11671e-02   9.23865e-04 DIIS
   @DF-RHF iter   4:   -76.04061314056074   -3.81073e-04   2.10276e-04 DIIS
   @DF-RHF iter   5:   -76.04063544994899   -2.23094e-05   4.80021e-05 DIIS
   @DF-RHF iter   6:   -76.04063724021360   -1.79026e-06   9.57652e-06 DIIS
   @DF-RHF iter   7:   -76.04063731433301   -7.41194e-08   1.54321e-06 DIIS
   @DF-RHF iter   8:   -76.04063731610427   -1.77126e-09   2.37186e-07 DIIS
   @DF-RHF iter   9:   -76.04063731614117   -3.69056e-11   6.18942e-08 DIIS
   @DF-RHF iter  10:   -76.04063731614366   -2.48690e-12   8.83462e-09 DIIS
  Energy and wave function converged.


  ==> Post-Iterations <==

    Orbital Energies [Eh]
    ---------------------

    Doubly Occupied:                                                      

       1A1   -20.579604     2A1    -1.354877     1B1    -0.710331  
       3A1    -0.589396     1B2    -0.509597  

    Virtual:                                                              

       4A1     0.035114     2B1     0.058156     5A1     0.173842  
       2B2     0.197331     6A1     0.222499     3B1     0.232515  
       4B1     0.287351     7A1     0.334537     1A2     0.386778  
       8A1     0.398138     3B2     0.428976     5B1     0.540800  
       9A1     0.645967     6B1     0.658426     7B1     0.802088  
      10A1     0.935679     4B2     1.104322    11A1     1.119368  
       2A2     1.148196    12A1     1.293440     8B1     1.460939  
       5B2     1.477953    13A1     1.584398     3A2     2.001620  
       9B1     2.005719     6B2     2.113247    14A1     2.335699  
      10B1     2.473642    15A1     2.617774    11B1     2.706505  
      16A1     2.987365     7B2     3.674956    17A1     3.692106  
       4A2     3.700940    18A1     4.004517    12B1     4.299599  

    Final Occupation by Irrep:
             A1    A2    B1    B2 
    DOCC [     3,    0,    1,    1 ]

  @DF-RHF Final Energy:   -76.04063731614366

   => Energetics <=

    Nuclear Repulsion Energy =              9.1334334609951409
    One-Electron Energy =                -122.8605308570024732
    Two-Electron Energy =                  37.6864600798636857
    Total Energy =                        -76.0406373161436591

Computation Completed


Properties will be evaluated at   0.000000,   0.000000,   0.000000 [a0]

Properties computed using the SCF density matrix

  Nuclear Dipole Moment: [e a0]
     X:     0.0000      Y:     0.0000      Z:     1.0109

  Electronic Dipole Moment: [e a0]
     X:     0.0000      Y:     0.0000      Z:    -0.2059

  Dipole Moment: [e a0]
     X:     0.0000      Y:     0.0000      Z:     0.8050     Total:     0.8050

  Dipole Moment: [D]
     X:     0.0000      Y:     0.0000      Z:     2.0461     Total:     2.0461


*** tstop() called on atlantis at Tue Apr 19 00:04:45 2022
Module time:
	user time   =       0.29 seconds =       0.00 minutes
	system time =       0.01 seconds =       0.00 minutes
	total time  =          0 seconds =       0.00 minutes
Total time:
	user time   =       0.60 seconds =       0.01 minutes
	system time =       0.01 seconds =       0.00 minutes
	total time  =          1 seconds =       0.02 minutes

*** tstart() called on atlantis
*** at Tue Apr 19 00:04:45 2022


         ------------------------------------------------------------
                                   SCF GRAD                          
                          Rob Parrish, Justin Turney,                
                       Andy Simmonett, and Alex Sokolov              
         ------------------------------------------------------------

  ==> Geometry <==

    Molecular point group: c2v
    Full point group: C2v

    Geometry (in Angstrom), charge = 0, multiplicity = 1:

       Center              X                  Y                   Z               Mass       
    ------------   -----------------  -----------------  -----------------  -----------------
         O            0.000000000000     0.000000000000    -0.067969259994    15.994914619570
         H            0.749030000000     0.000000000000     0.539360740006     1.007825032230
         H           -0.749030000000    -0.000000000000     0.539360740006     1.007825032230

  Nuclear repulsion =    9.133433460995141

  ==> Basis Set <==

  Basis Set: AUG-CC-PVDZ
    Blend: AUG-CC-PVDZ
    Number of shells: 19
    Number of basis function: 41
    Number of Cartesian functions: 43
    Spherical Harmonics?: true
    Max angular momentum: 2

  ==> DFJKGrad: Density-Fitted SCF Gradients <==

    Gradient:                    1
    J tasked:                  Yes
    K tasked:                  Yes
    wK tasked:                  No
    OpenMP threads:              1
    Integrals threads:           1
    Memory [MiB]:              375
    Schwarz Cutoff:          0E+00
    Fitting Condition:       1E-10

   => Auxiliary Basis Set <=

  Basis Set: (AUG-CC-PVDZ AUX)
    Blend: AUG-CC-PVDZ-JKFIT
    Number of shells: 52
    Number of basis function: 150
    Number of Cartesian functions: 171
    Spherical Harmonics?: true
    Max angular momentum: 3


  -Total Gradient:
     Atom            X                  Y                   Z
    ------   -----------------  -----------------  -----------------
       1        0.000000000000    -0.000000000000    -0.034844341893
       2        0.012618365659     0.000000000000     0.017422170947
       3       -0.012618365659    -0.000000000000     0.017422170947


*** tstop() called on atlantis at Tue Apr 19 00:04:45 2022
Module time:
	user time   =       0.10 seconds =       0.00 minutes
	system time =       0.00 seconds =       0.00 minutes
	total time  =          0 seconds =       0.00 minutes
Total time:
	user time   =       0.70 seconds =       0.01 minutes
	system time =       0.01 seconds =       0.00 minutes
	total time  =          1 seconds =       0.02 minutes

  Based on options and gradient (rms=1.54E-02), recommend projecting translations and not projecting rotations.
hessian() will perform analytic frequency computation.

*** tstart() called on atlantis
*** at Tue Apr 19 00:04:45 2022

   => Loading Basis Set <=

    Name: AUG-CC-PVDZ
    Role: ORBITAL
    Keyword: BASIS
    atoms 1   entry O          line   250 file /home/akrom/software/anaconda3/envs/ffpenv/share/psi4/basis/aug-cc-pvdz.gbs 
    atoms 2-3 entry H          line    36 file /home/akrom/software/anaconda3/envs/ffpenv/share/psi4/basis/aug-cc-pvdz.gbs 


         ---------------------------------------------------------
                                   SCF
               by Justin Turney, Rob Parrish, Andy Simmonett
                          and Daniel G. A. Smith
                              RHF Reference
                        1 Threads,    500 MiB Core
         ---------------------------------------------------------

  ==> Geometry <==

    Molecular point group: c2v
    Full point group: C2v

    Geometry (in Angstrom), charge = 0, multiplicity = 1:

       Center              X                  Y                   Z               Mass       
    ------------   -----------------  -----------------  -----------------  -----------------
         O            0.000000000000     0.000000000000    -0.067969259994    15.994914619570
         H            0.749030000000     0.000000000000     0.539360740006     1.007825032230
         H           -0.749030000000    -0.000000000000     0.539360740006     1.007825032230

  Running in c2v symmetry.

  Rotational constants: A =     25.53156  B =     14.90675  C =      9.41168 [cm^-1]
  Rotational constants: A = 765416.81232  B = 446893.08836  C = 282155.15104 [MHz]
  Nuclear repulsion =    9.133433460995141

  Charge       = 0
  Multiplicity = 1
  Electrons    = 10
  Nalpha       = 5
  Nbeta        = 5

  ==> Algorithm <==

  SCF Algorithm Type is DF.
  DIIS enabled.
  MOM disabled.
  Fractional occupation disabled.
  Guess Type is SAD.
  Energy threshold   = 1.00e-08
  Density threshold  = 1.00e-08
  Integral threshold = 0.00e+00

  ==> Primary Basis <==

  Basis Set: AUG-CC-PVDZ
    Blend: AUG-CC-PVDZ
    Number of shells: 19
    Number of basis function: 41
    Number of Cartesian functions: 43
    Spherical Harmonics?: true
    Max angular momentum: 2

   => Loading Basis Set <=

    Name: (AUG-CC-PVDZ AUX)
    Role: JKFIT
    Keyword: DF_BASIS_SCF
    atoms 1   entry O          line   270 file /home/akrom/software/anaconda3/envs/ffpenv/share/psi4/basis/aug-cc-pvdz-jkfit.gbs 
    atoms 2-3 entry H          line    70 file /home/akrom/software/anaconda3/envs/ffpenv/share/psi4/basis/aug-cc-pvdz-jkfit.gbs 

  ==> Pre-Iterations <==

   -------------------------------------------------------
    Irrep   Nso     Nmo     Nalpha   Nbeta   Ndocc  Nsocc
   -------------------------------------------------------
     A1        18      18       0       0       0       0
     A2         4       4       0       0       0       0
     B1        12      12       0       0       0       0
     B2         7       7       0       0       0       0
   -------------------------------------------------------
    Total      41      41       5       5       5       0
   -------------------------------------------------------

  ==> Integral Setup <==

  DFHelper Memory: AOs need 0.002 GiB; user supplied 0.366 GiB. Using in-core AOs.

  ==> MemDFJK: Density-Fitted J/K Matrices <==

    J tasked:                   Yes
    K tasked:                   Yes
    wK tasked:                   No
    OpenMP threads:               1
    Memory [MiB]:               375
    Algorithm:                 Core
    Schwarz Cutoff:           1E-12
    Mask sparsity (%):       0.0000
    Fitting Condition:        1E-10

   => Auxiliary Basis Set <=

  Basis Set: (AUG-CC-PVDZ AUX)
    Blend: AUG-CC-PVDZ-JKFIT
    Number of shells: 52
    Number of basis function: 150
    Number of Cartesian functions: 171
    Spherical Harmonics?: true
    Max angular momentum: 3

  Minimum eigenvalue in the overlap matrix is 2.6286121429E-03.
  Using Symmetric Orthogonalization.

  SCF Guess: Superposition of Atomic Densities via on-the-fly atomic UHF.

  ==> Iterations <==

                           Total Energy        Delta E     RMS |[F,P]|

   @DF-RHF iter SAD:   -75.46052887262277   -7.54605e+01   0.00000e+00 
   @DF-RHF iter   1:   -75.95595185780351   -4.95423e-01   1.96187e-02 DIIS
   @DF-RHF iter   2:   -76.00906498737989   -5.31131e-02   1.29127e-02 DIIS
   @DF-RHF iter   3:   -76.04023206740668   -3.11671e-02   9.23865e-04 DIIS
   @DF-RHF iter   4:   -76.04061314056074   -3.81073e-04   2.10276e-04 DIIS
   @DF-RHF iter   5:   -76.04063544994899   -2.23094e-05   4.80021e-05 DIIS
   @DF-RHF iter   6:   -76.04063724021360   -1.79026e-06   9.57652e-06 DIIS
   @DF-RHF iter   7:   -76.04063731433301   -7.41194e-08   1.54321e-06 DIIS
   @DF-RHF iter   8:   -76.04063731610427   -1.77126e-09   2.37186e-07 DIIS
   @DF-RHF iter   9:   -76.04063731614117   -3.69056e-11   6.18942e-08 DIIS
   @DF-RHF iter  10:   -76.04063731614366   -2.48690e-12   8.83462e-09 DIIS
  Energy and wave function converged.


  ==> Post-Iterations <==

    Orbital Energies [Eh]
    ---------------------

    Doubly Occupied:                                                      

       1A1   -20.579604     2A1    -1.354877     1B1    -0.710331  
       3A1    -0.589396     1B2    -0.509597  

    Virtual:                                                              

       4A1     0.035114     2B1     0.058156     5A1     0.173842  
       2B2     0.197331     6A1     0.222499     3B1     0.232515  
       4B1     0.287351     7A1     0.334537     1A2     0.386778  
       8A1     0.398138     3B2     0.428976     5B1     0.540800  
       9A1     0.645967     6B1     0.658426     7B1     0.802088  
      10A1     0.935679     4B2     1.104322    11A1     1.119368  
       2A2     1.148196    12A1     1.293440     8B1     1.460939  
       5B2     1.477953    13A1     1.584398     3A2     2.001620  
       9B1     2.005719     6B2     2.113247    14A1     2.335699  
      10B1     2.473642    15A1     2.617774    11B1     2.706505  
      16A1     2.987365     7B2     3.674956    17A1     3.692106  
       4A2     3.700940    18A1     4.004517    12B1     4.299599  

    Final Occupation by Irrep:
             A1    A2    B1    B2 
    DOCC [     3,    0,    1,    1 ]

  @DF-RHF Final Energy:   -76.04063731614366

   => Energetics <=

    Nuclear Repulsion Energy =              9.1334334609951409
    One-Electron Energy =                -122.8605308570024732
    Two-Electron Energy =                  37.6864600798636857
    Total Energy =                        -76.0406373161436591

Computation Completed


Properties will be evaluated at   0.000000,   0.000000,   0.000000 [a0]

Properties computed using the SCF density matrix

  Nuclear Dipole Moment: [e a0]
     X:     0.0000      Y:     0.0000      Z:     1.0109

  Electronic Dipole Moment: [e a0]
     X:     0.0000      Y:     0.0000      Z:    -0.2059

  Dipole Moment: [e a0]
     X:     0.0000      Y:     0.0000      Z:     0.8050     Total:     0.8050

  Dipole Moment: [D]
     X:     0.0000      Y:     0.0000      Z:     2.0461     Total:     2.0461


*** tstop() called on atlantis at Tue Apr 19 00:04:45 2022
Module time:
	user time   =       0.29 seconds =       0.00 minutes
	system time =       0.00 seconds =       0.00 minutes
	total time  =          0 seconds =       0.00 minutes
Total time:
	user time   =       0.99 seconds =       0.02 minutes
	system time =       0.01 seconds =       0.00 minutes
	total time  =          1 seconds =       0.02 minutes

*** tstart() called on atlantis
*** at Tue Apr 19 00:04:45 2022


         ------------------------------------------------------------
                                   SCF HESS                          
                          Rob Parrish, Justin Turney,                
                       Andy Simmonett, and Alex Sokolov              
         ------------------------------------------------------------

  ==> Geometry <==

    Molecular point group: c2v
    Full point group: C2v

    Geometry (in Angstrom), charge = 0, multiplicity = 1:

       Center              X                  Y                   Z               Mass       
    ------------   -----------------  -----------------  -----------------  -----------------
         O            0.000000000000     0.000000000000    -0.067969259994    15.994914619570
         H            0.749030000000     0.000000000000     0.539360740006     1.007825032230
         H           -0.749030000000    -0.000000000000     0.539360740006     1.007825032230

  Nuclear repulsion =    9.133433460995141

  ==> Basis Set <==

  Basis Set: AUG-CC-PVDZ
    Blend: AUG-CC-PVDZ
    Number of shells: 19
    Number of basis function: 41
    Number of Cartesian functions: 43
    Spherical Harmonics?: true
    Max angular momentum: 2

  ==> DFJKGrad: Density-Fitted SCF Gradients <==

    Gradient:                    2
    J tasked:                  Yes
    K tasked:                  Yes
    wK tasked:                  No
    OpenMP threads:              1
    Integrals threads:           1
    Memory [MiB]:              375
    Schwarz Cutoff:          0E+00
    Fitting Condition:       1E-10

   => Auxiliary Basis Set <=

  Basis Set: (AUG-CC-PVDZ AUX)
    Blend: AUG-CC-PVDZ-JKFIT
    Number of shells: 52
    Number of basis function: 150
    Number of Cartesian functions: 171
    Spherical Harmonics?: true
    Max angular momentum: 3

  DFHelper Memory: AOs need 0.002 GiB; user supplied 0.439 GiB. Using in-core AOs.

  ==> MemDFJK: Density-Fitted J/K Matrices <==

    J tasked:                   Yes
    K tasked:                   Yes
    wK tasked:                   No
    OpenMP threads:               1
    Memory [MiB]:               450
    Algorithm:                 Core
    Schwarz Cutoff:           1E-12
    Mask sparsity (%):       0.0000
    Fitting Condition:        1E-10

   => Auxiliary Basis Set <=

  Basis Set: (AUG-CC-PVDZ AUX)
    Blend: AUG-CC-PVDZ-JKFIT
    Number of shells: 52
    Number of basis function: 150
    Number of Cartesian functions: 171
    Spherical Harmonics?: true
    Max angular momentum: 3


         ------------------------------------------------------------
                                     CPHF                           
                                  Rob Parrish                       
         ------------------------------------------------------------

  ==> Geometry <==

    Molecular point group: c2v
    Full point group: C2v

    Geometry (in Angstrom), charge = 0, multiplicity = 1:

       Center              X                  Y                   Z               Mass       
    ------------   -----------------  -----------------  -----------------  -----------------
         O            0.000000000000     0.000000000000    -0.067969259994    15.994914619570
         H            0.749030000000     0.000000000000     0.539360740006     1.007825032230
         H           -0.749030000000    -0.000000000000     0.539360740006     1.007825032230

  Nuclear repulsion =    9.133433460995141
  Reference energy  =  -76.040637316143659

  ==> Basis Set <==

  Basis Set: AUG-CC-PVDZ
    Blend: AUG-CC-PVDZ
    Number of shells: 19
    Number of basis function: 41
    Number of Cartesian functions: 43
    Spherical Harmonics?: true
    Max angular momentum: 2

  ==> CGRSolver (by Rob Parrish) <==

   Number of roots    =         9
   Preconditioning    =    JACOBI
   Convergence cutoff =     1E-06
   Maximum iterations =       100

  ==> CPHFRHamiltonian (by Rob Parrish) <== 

  ==> MemDFJK: Density-Fitted J/K Matrices <==

    J tasked:                   Yes
    K tasked:                   Yes
    wK tasked:                   No
    OpenMP threads:               1
    Memory [MiB]:               450
    Algorithm:                 Core
    Schwarz Cutoff:           1E-12
    Mask sparsity (%):       0.0000
    Fitting Condition:        1E-10

   => Auxiliary Basis Set <=

  Basis Set: (AUG-CC-PVDZ AUX)
    Blend: AUG-CC-PVDZ-JKFIT
    Number of shells: 52
    Number of basis function: 150
    Number of Cartesian functions: 171
    Spherical Harmonics?: true
    Max angular momentum: 3

  ==> CPHF Iterations <==

  => Iterations <=

             Iter  Converged  Remaining    Residual
  CGR           1          0          9   9.656E-02
  CGR           2          0          9   2.014E-02
  CGR           3          0          9   6.029E-03
  CGR           4          0          9   1.083E-03
  CGR           5          0          9   1.506E-04
  CGR           6          0          9   3.197E-05
  CGR           7          1          8   6.515E-06
  CGR           8          5          4   1.159E-06
  CGR           9          9          0   1.860E-07

    CGRSolver converged.


*** tstop() called on atlantis at Tue Apr 19 00:05:04 2022
Module time:
	user time   =      18.50 seconds =       0.31 minutes
	system time =       0.06 seconds =       0.00 minutes
	total time  =         19 seconds =       0.32 minutes
Total time:
	user time   =      19.49 seconds =       0.32 minutes
	system time =       0.07 seconds =       0.00 minutes
	total time  =         20 seconds =       0.33 minutes


  ==> Harmonic Vibrational Analysis <==

  non-mass-weighted Hessian:       Symmetric? True   Hermitian? True   Lin Dep Dim?  0 (0)
  projection of translations (True) and rotations (False) removed 3 degrees of freedom (6)
  total projector:                 Symmetric? True   Hermitian? True   Lin Dep Dim?  3 (3)
  mass-weighted Hessian:           Symmetric? True   Hermitian? True   Lin Dep Dim?  0 (0)
  pre-proj  low-frequency mode:    0.0000i [cm^-1]
  pre-proj  low-frequency mode:    0.0000i [cm^-1]
  pre-proj  low-frequency mode:    0.0181  [cm^-1]
  pre-proj  low-frequency mode:  483.4642  [cm^-1]
  pre-proj  low-frequency mode:  558.6413  [cm^-1]
  pre-proj  low-frequency mode:  669.4585  [cm^-1]
  pre-proj  all modes:['0.0050i' '0.0047i' '0.0181' '483.4642' '558.6413' '669.4585' '1829.3232'
 '3862.5362' '3935.0662']
  projected mass-weighted Hessian: Symmetric? True   Hermitian? True   Lin Dep Dim?  3 (3)
  post-proj low-frequency mode:    0.0001i [cm^-1] (TR)
  post-proj low-frequency mode:    0.0000  [cm^-1] (TR)
  post-proj low-frequency mode:    0.0000  [cm^-1] (TR)
  post-proj low-frequency mode:  483.4642  [cm^-1] (V)
  post-proj low-frequency mode:  558.6413  [cm^-1] (V)
  post-proj low-frequency mode:  669.4585  [cm^-1] (V)
  post-proj  all modes:['0.0001i' '0.0000' '0.0000' '483.4642' '558.6413' '669.4585' '1829.3232'
 '3862.5362' '3935.0662']

  Note that "Vibration"s include 3 un-projected rotation-like modes.
  Vibration                       4                   5                   6           
  Freq [cm^-1]                 483.4642            558.6413            669.4585       
  Irrep                           A2                  B1                  B2          
  Reduced mass [u]              1.0078              1.0476              1.1259        
  Force const [mDyne/A]         0.1388              0.1926              0.2973        
  Turning point v=0 [a0]        0.4971              0.4536              0.3997        
  RMS dev v=0 [a0 u^1/2]        0.3529              0.3283              0.2999        
  IR activ [km/mol]             0.0000             97.6452             267.9347       
  Char temp [K]                695.5973            803.7604            963.2018       
  ----------------------------------------------------------------------------------
      1   O                0.00 -0.00 -0.00    0.05 -0.00 -0.00    0.00 -0.09 -0.00   
      2   H               -0.00  0.71  0.00   -0.41 -0.00  0.58   -0.00  0.70  0.00   
      3   H               -0.00 -0.71 -0.00   -0.41  0.00 -0.58   -0.00  0.70 -0.00   

  Vibration                       7                   8                   9           
  Freq [cm^-1]                1829.3232           3862.5362           3935.0662       
  Irrep                           A1                  A1                  B1          
  Reduced mass [u]              1.0805              1.0472              1.0801        
  Force const [mDyne/A]         2.1304              9.2048              9.8539        
  Turning point v=0 [a0]        0.2468              0.1725              0.1683        
  RMS dev v=0 [a0 u^1/2]        0.1814              0.1248              0.1237        
  IR activ [km/mol]            85.9133             13.9537             69.6614        
  Char temp [K]               2631.9888           5557.3297           5661.6841       
  ----------------------------------------------------------------------------------
      1   O               -0.00  0.00 -0.07    0.00 -0.00 -0.05   -0.07  0.00 -0.00   
      2   H               -0.44 -0.00  0.55    0.58 -0.00  0.41    0.55  0.00  0.44   
      3   H                0.44 -0.00  0.55   -0.58  0.00  0.41    0.55 -0.00 -0.44   

  ==> Thermochemistry Components <==

  Entropy, S
    Electronic S            0.000 [cal/(mol K)]        0.000 [J/(mol K)]       0.00000000 [mEh/K] (multiplicity = 1)
    Translational S        34.608 [cal/(mol K)]      144.801 [J/(mol K)]       0.05515177 [mEh/K] (mol. weight = 18.0106 [u], P = 101325.00 [Pa])
    Rotational S           10.508 [cal/(mol K)]       43.968 [J/(mol K)]       0.01674635 [mEh/K] (symmetry no. = 2)
    Vibrational S           1.575 [cal/(mol K)]        6.588 [J/(mol K)]       0.00250929 [mEh/K]
  Total S                  46.691 [cal/(mol K)]      195.357 [J/(mol K)]       0.07440742 [mEh/K]
  Correction S              0.000 [cal/(mol K)]        0.000 [J/(mol K)]       0.00000000 [mEh/K]

  Constant volume heat capacity, Cv
    Electronic Cv           0.000 [cal/(mol K)]        0.000 [J/(mol K)]       0.00000000 [mEh/K]
    Translational Cv        2.981 [cal/(mol K)]       12.472 [J/(mol K)]       0.00475022 [mEh/K]
    Rotational Cv           2.981 [cal/(mol K)]       12.472 [J/(mol K)]       0.00475022 [mEh/K]
    Vibrational Cv          3.319 [cal/(mol K)]       13.887 [J/(mol K)]       0.00528928 [mEh/K]
  Total Cv                  9.281 [cal/(mol K)]       38.830 [J/(mol K)]       0.01478972 [mEh/K]
  Correction Cv             0.000 [cal/(mol K)]        0.000 [J/(mol K)]       0.00000000 [mEh/K]

  Constant pressure heat capacity, Cp
    Electronic Cp           0.000 [cal/(mol K)]        0.000 [J/(mol K)]       0.00000000 [mEh/K]
    Translational Cp        4.968 [cal/(mol K)]       20.786 [J/(mol K)]       0.00791703 [mEh/K]
    Rotational Cp           2.981 [cal/(mol K)]       12.472 [J/(mol K)]       0.00475022 [mEh/K]
    Vibrational Cp          3.319 [cal/(mol K)]       13.887 [J/(mol K)]       0.00528928 [mEh/K]
  Total Cp                 11.268 [cal/(mol K)]       47.145 [J/(mol K)]       0.01795653 [mEh/K]
  Correction Cp             0.000 [cal/(mol K)]        0.000 [J/(mol K)]       0.00000000 [mEh/K]

  ==> Thermochemistry Energy Analysis <==

  Raw electronic energy, E0
  Total E0, Electronic energy at well bottom at 0 [K]                  -76.04063732 [Eh]

  Zero-point energy, ZPE_vib = Sum_i nu_i / 2
    Electronic ZPE          0.000 [kcal/mol]        0.000 [kJ/mol]       0.00000000 [Eh]
    Translational ZPE       0.000 [kcal/mol]        0.000 [kJ/mol]       0.00000000 [Eh]
    Rotational ZPE          0.000 [kcal/mol]        0.000 [kJ/mol]       0.00000000 [Eh]
    Vibrational ZPE        16.209 [kcal/mol]       67.819 [kJ/mol]       0.02583098 [Eh]        5669.245 [cm^-1]
  Correction ZPE           16.209 [kcal/mol]       67.819 [kJ/mol]       0.02583098 [Eh]        5669.245 [cm^-1]
  Total ZPE, Electronic energy at 0 [K]                                -76.01480634 [Eh]

  Thermal Energy, E (includes ZPE)
    Electronic E            0.000 [kcal/mol]        0.000 [kJ/mol]       0.00000000 [Eh]
    Translational E         0.889 [kcal/mol]        3.718 [kJ/mol]       0.00141628 [Eh]
    Rotational E            0.889 [kcal/mol]        3.718 [kJ/mol]       0.00141628 [Eh]
    Vibrational E          16.553 [kcal/mol]       69.257 [kJ/mol]       0.02637859 [Eh]
  Correction E             18.330 [kcal/mol]       76.694 [kJ/mol]       0.02921114 [Eh]
  Total E, Electronic energy at  298.15 [K]                            -76.01142617 [Eh]

  Enthalpy, H_trans = E_trans + k_B * T
    Electronic H            0.000 [kcal/mol]        0.000 [kJ/mol]       0.00000000 [Eh]
    Translational H         1.481 [kcal/mol]        6.197 [kJ/mol]       0.00236046 [Eh]
    Rotational H            0.889 [kcal/mol]        3.718 [kJ/mol]       0.00141628 [Eh]
    Vibrational H          16.553 [kcal/mol]       69.257 [kJ/mol]       0.02637859 [Eh]
  Correction H             18.923 [kcal/mol]       79.173 [kJ/mol]       0.03015533 [Eh]
  Total H, Enthalpy at  298.15 [K]                                     -76.01048199 [Eh]

  Gibbs free energy, G = H - T * S
    Electronic G            0.000 [kcal/mol]        0.000 [kJ/mol]       0.00000000 [Eh]
    Translational G        -8.837 [kcal/mol]      -36.975 [kJ/mol]      -0.01408304 [Eh]
    Rotational G           -2.244 [kcal/mol]       -9.390 [kJ/mol]      -0.00357665 [Eh]
    Vibrational G          16.083 [kcal/mol]       67.293 [kJ/mol]       0.02563045 [Eh]
  Correction G              5.002 [kcal/mol]       20.927 [kJ/mol]       0.00797076 [Eh]
  Total G, Free enthalpy at  298.15 [K]                                -76.03266656 [Eh]

    Psi4 stopped on: Tuesday, 19 April 2022 12:05AM
    Psi4 wall time for execution: 0:00:19.62

*** Psi4 exiting successfully. Buy a developer a beer!
