
    -----------------------------------------------------------------------
          Psi4: An Open-Source Ab Initio Electronic Structure Package
                               Psi4 1.3.2 release

                         Git: Rev {HEAD} ecbda83 


    R. M. Parrish, L. A. Burns, D. G. A. Smith, A. C. Simmonett,
    A. E. DePrince III, E. G. Hohenstein, U. Bozkaya, A. Yu. Sokolov,
    R. Di Remigio, R. M. Richard, J. F. Gonthier, A. M. James,
    H. R. McAlexander, A. Kumar, M. Saitow, X. Wang, B. P. Pritchard,
    P. Verma, H. F. Schaefer III, K. Patkowski, R. A. King, E. F. Valeev,
    F. A. Evangelista, J. M. Turney, T. D. Crawford, and C. D. Sherrill,
    J. Chem. Theory Comput. 13(7) pp 3185--3197 (2017).
    (doi: 10.1021/acs.jctc.7b00174)


                         Additional Contributions by
    P. Kraus, H. Kruse, M. H. Lechner, M. C. Schieber, R. A. Shaw,
    A. Alenaizan, R. Galvelis, Z. L. Glick, S. Lehtola, and J. P. Misiewicz

    -----------------------------------------------------------------------


    Psi4 started on: Tuesday, 19 April 2022 11:06PM

    Process ID: 10547
    Host:       atlantis
    PSIDATADIR: /home/akrom/software/anaconda3/envs/ffpenv/share/psi4
    Memory:     500.0 MiB
    Threads:    1
    
  ==> Input File <==

--------------------------------------------------------------------------
set basis  aug-cc-pVDZ
molecule {
0 1
   C       -1.22151       -0.69325        0.00000
   C       -1.21114        0.71122        0.00000
   C       -0.01037       -1.40452        0.00000
   C        0.01037        1.40452        0.00000
   C        1.21114       -0.71122        0.00000
   C        1.22151        0.69325        0.00000
   H       -2.17311       -1.23332        0.00000
   H       -2.15464        1.26533        0.00000
   H       -0.01848       -2.49865        0.00000
   H        0.01848        2.49865        0.00000
   H        2.15464       -1.26533        0.00000
   H        2.17311        1.23332        0.00000
}
energy('MP2')
frequencies('MP2')
--------------------------------------------------------------------------
    SCF Algorithm Type (re)set to DF.

*** tstart() called on atlantis
*** at Tue Apr 19 23:06:50 2022

   => Loading Basis Set <=

    Name: AUG-CC-PVDZ
    Role: ORBITAL
    Keyword: BASIS
    atoms 1-6  entry C          line   178 file /home/akrom/software/anaconda3/envs/ffpenv/share/psi4/basis/aug-cc-pvdz.gbs 
    atoms 7-12 entry H          line    36 file /home/akrom/software/anaconda3/envs/ffpenv/share/psi4/basis/aug-cc-pvdz.gbs 


         ---------------------------------------------------------
                                   SCF
               by Justin Turney, Rob Parrish, Andy Simmonett
                          and Daniel G. A. Smith
                              RHF Reference
                        1 Threads,    500 MiB Core
         ---------------------------------------------------------

  ==> Geometry <==

    Molecular point group: c2h
    Full point group: C2h

    Geometry (in Angstrom), charge = 0, multiplicity = 1:

       Center              X                  Y                   Z               Mass       
    ------------   -----------------  -----------------  -----------------  -----------------
         C           -1.221510000000    -0.693250000000     0.000000000000    12.000000000000
         C           -1.211140000000     0.711220000000     0.000000000000    12.000000000000
         C           -0.010370000000    -1.404520000000     0.000000000000    12.000000000000
         C            0.010370000000     1.404520000000     0.000000000000    12.000000000000
         C            1.211140000000    -0.711220000000     0.000000000000    12.000000000000
         C            1.221510000000     0.693250000000     0.000000000000    12.000000000000
         H           -2.173110000000    -1.233320000000     0.000000000000     1.007825032230
         H           -2.154640000000     1.265330000000     0.000000000000     1.007825032230
         H           -0.018480000000    -2.498650000000     0.000000000000     1.007825032230
         H            0.018480000000     2.498650000000     0.000000000000     1.007825032230
         H            2.154640000000    -1.265330000000     0.000000000000     1.007825032230
         H            2.173110000000     1.233320000000     0.000000000000     1.007825032230

  Running in c2h symmetry.

  Rotational constants: A =      0.18753  B =      0.18752  C =      0.09376 [cm^-1]
  Rotational constants: A =   5621.92707  B =   5621.82252  C =   2810.93740 [MHz]
  Nuclear repulsion =  202.013308935380167

  Charge       = 0
  Multiplicity = 1
  Electrons    = 42
  Nalpha       = 21
  Nbeta        = 21

  ==> Algorithm <==

  SCF Algorithm Type is DF.
  DIIS enabled.
  MOM disabled.
  Fractional occupation disabled.
  Guess Type is SAD.
  Energy threshold   = 1.00e-08
  Density threshold  = 1.00e-08
  Integral threshold = 0.00e+00

  ==> Primary Basis <==

  Basis Set: AUG-CC-PVDZ
    Blend: AUG-CC-PVDZ
    Number of shells: 84
    Number of basis function: 192
    Number of Cartesian functions: 204
    Spherical Harmonics?: true
    Max angular momentum: 2

   => Loading Basis Set <=

    Name: (AUG-CC-PVDZ AUX)
    Role: JKFIT
    Keyword: DF_BASIS_SCF
    atoms 1-6  entry C          line   154 file /home/akrom/software/anaconda3/envs/ffpenv/share/psi4/basis/aug-cc-pvdz-jkfit.gbs 
    atoms 7-12 entry H          line    70 file /home/akrom/software/anaconda3/envs/ffpenv/share/psi4/basis/aug-cc-pvdz-jkfit.gbs 

  ==> Pre-Iterations <==

   -------------------------------------------------------
    Irrep   Nso     Nmo     Nalpha   Nbeta   Ndocc  Nsocc
   -------------------------------------------------------
     Ag        69      69       0       0       0       0
     Bg        27      27       0       0       0       0
     Au        27      27       0       0       0       0
     Bu        69      69       0       0       0       0
   -------------------------------------------------------
    Total     192     192      21      21      21       0
   -------------------------------------------------------

  ==> Integral Setup <==

  DFHelper Memory: AOs need 0.204 GiB; user supplied 0.366 GiB. Using in-core AOs.

  ==> MemDFJK: Density-Fitted J/K Matrices <==

    J tasked:                   Yes
    K tasked:                   Yes
    wK tasked:                   No
    OpenMP threads:               1
    Memory [MiB]:               375
    Algorithm:                 Core
    Schwarz Cutoff:           1E-12
    Mask sparsity (%):       0.1465
    Fitting Condition:        1E-10

   => Auxiliary Basis Set <=

  Basis Set: (AUG-CC-PVDZ AUX)
    Blend: AUG-CC-PVDZ-JKFIT
    Number of shells: 240
    Number of basis function: 708
    Number of Cartesian functions: 816
    Spherical Harmonics?: true
    Max angular momentum: 3

  Minimum eigenvalue in the overlap matrix is 2.5980864004E-06.
  Using Symmetric Orthogonalization.

  SCF Guess: Superposition of Atomic Densities via on-the-fly atomic UHF.

  ==> Iterations <==

                           Total Energy        Delta E     RMS |[F,P]|

   @DF-RHF iter SAD:  -230.00733856284603   -2.30007e+02   0.00000e+00 
   @DF-RHF iter   1:  -230.55501430384470   -5.47676e-01   4.83854e-03 DIIS
   @DF-RHF iter   2:  -230.69119565074240   -1.36181e-01   2.37244e-03 DIIS
   @DF-RHF iter   3:  -230.72441307845321   -3.32174e-02   3.82524e-04 DIIS
   @DF-RHF iter   4:  -230.72585766972941   -1.44459e-03   4.03591e-05 DIIS
   @DF-RHF iter   5:  -230.72587781427052   -2.01445e-05   7.71346e-06 DIIS
   @DF-RHF iter   6:  -230.72587858232524   -7.68055e-07   8.40221e-07 DIIS
   @DF-RHF iter   7:  -230.72587859220994   -9.88470e-09   1.12323e-07 DIIS
   @DF-RHF iter   8:  -230.72587859242716   -2.17227e-10   2.44474e-08 DIIS
   @DF-RHF iter   9:  -230.72587859243626   -9.09495e-12   7.52528e-09 DIIS
  Energy and wave function converged.


  ==> Post-Iterations <==

    Orbital Energies [Eh]
    ---------------------

    Doubly Occupied:                                                      

       1Ag   -11.247553     1Bu   -11.247024     2Bu   -11.247021  
       2Ag   -11.245867     3Ag   -11.245864     3Bu   -11.245300  
       4Ag    -1.146872     4Bu    -1.013293     5Bu    -1.013286  
       5Ag    -0.822465     6Ag    -0.822453     7Ag    -0.704430  
       6Bu    -0.643071     7Bu    -0.616273     8Bu    -0.585517  
       9Bu    -0.585515     1Au    -0.497924     8Ag    -0.493653  
       9Ag    -0.493623     1Bg    -0.335013     2Bg    -0.335003  

    Virtual:                                                              

      10Ag     0.035962    10Bu     0.042574    11Bu     0.042575  
      11Ag     0.057440    12Ag     0.057440    12Bu     0.076189  
       2Au     0.105564     3Au     0.105574     4Au     0.123271  
       3Bg     0.143418     4Bg     0.143418    13Bu     0.145815  
      14Bu     0.148350    15Bu     0.148352    13Ag     0.149442  
      14Ag     0.153068    15Ag     0.153068    16Bu     0.167937  
      17Bu     0.167938    16Ag     0.168531    18Bu     0.184599  
      17Ag     0.190725    18Ag     0.190726     5Bg     0.192074  
       5Au     0.198159     6Au     0.198164    19Ag     0.266382  
      19Bu     0.301293    20Bu     0.301296    20Ag     0.313008  
      21Ag     0.313010    22Ag     0.324081     7Au     0.337391  
       6Bg     0.343022    23Ag     0.354128    24Ag     0.354131  
      21Bu     0.366221    22Bu     0.376566    23Bu     0.376573  
      24Bu     0.386884    25Bu     0.408183     7Bg     0.426945  
       8Bg     0.426946    26Bu     0.429089    27Bu     0.429092  
      25Ag     0.440681    26Ag     0.440686     8Au     0.503355  
       9Au     0.503358    27Ag     0.505484     9Bg     0.562651  
      10Bg     0.569503    28Bu     0.570949    29Bu     0.570968  
      28Ag     0.584980    29Ag     0.584987    30Ag     0.591973  
      31Ag     0.596197    10Au     0.608153    32Ag     0.615219  
      30Bu     0.662103    31Bu     0.662107    32Bu     0.683032  
      11Au     0.686394    12Au     0.686396    33Bu     0.690387  
      34Bu     0.690389    33Ag     0.692519    34Ag     0.692525  
      11Bg     0.756993    12Bg     0.756996    35Bu     0.762517  
      36Bu     0.774142    35Ag     0.774764    36Ag     0.774771  
      13Au     0.840014    37Ag     0.848670    37Bu     0.849221  
      38Bu     0.849226    38Ag     0.886794    39Ag     0.886796  
      13Bg     0.920118    14Bg     0.920123    14Au     0.924002  
      15Au     0.924004    15Bg     0.956726    40Ag     0.966809  
      41Ag     0.966818    16Bg     0.977440    17Bg     0.977442  
      39Bu     0.996402    42Ag     1.006579    40Bu     1.056434  
      16Au     1.076754    41Bu     1.094083    42Bu     1.094115  
      17Au     1.177432    18Au     1.177442    43Ag     1.189461  
      43Bu     1.343873    44Bu     1.343925    18Bg     1.420149  
      19Bg     1.480656    45Bu     1.501673    46Bu     1.529495  
      47Bu     1.529542    44Ag     1.537292    45Ag     1.537295  
      19Au     1.550301    48Bu     1.585905    46Ag     1.609222  
      49Bu     1.630541    50Bu     1.630551    47Ag     1.642084  
      48Ag     1.642100    49Ag     1.644934    20Au     1.704174  
      21Au     1.704178    20Bg     1.712502    21Bg     1.712504  
      50Ag     1.783758    51Ag     1.783768    51Bu     1.783953  
      52Ag     1.831869    22Au     1.890098    23Au     1.890106  
      53Ag     1.896038    54Ag     1.933705    52Bu     1.947464  
      53Bu     1.947470    55Ag     1.966419    56Ag     1.966435  
      22Bg     1.980637    54Bu     1.989180    24Au     2.086180  
      55Bu     2.087831    56Bu     2.087859    23Bg     2.114097  
      24Bg     2.114106    25Bg     2.198581    26Bg     2.198630  
      57Ag     2.206022    58Ag     2.206046    57Bu     2.254562  
      58Bu     2.254569    59Bu     2.275718    59Ag     2.354489  
      25Au     2.360410    26Au     2.360420    60Bu     2.377728  
      60Ag     2.434296    61Ag     2.434342    27Au     2.607208  
      27Bg     2.655825    62Ag     2.765191    63Ag     2.765220  
      61Bu     2.769906    62Bu     2.769952    64Ag     2.773623  
      63Bu     2.948098    64Bu     2.949606    65Bu     2.949639  
      65Ag     3.109696    66Ag     3.109736    66Bu     3.110647  
      67Bu     3.110678    67Ag     3.357256    68Ag     3.527018  
      69Ag     3.527088    68Bu     3.841463    69Bu     4.765978  

    Final Occupation by Irrep:
             Ag    Bg    Au    Bu 
    DOCC [     9,    2,    1,    9 ]

  @DF-RHF Final Energy:  -230.72587859243626

   => Energetics <=

    Nuclear Repulsion Energy =            202.0133089353801665
    One-Electron Energy =                -710.3043380141194802
    Two-Electron Energy =                 277.5651504863030823
    Total Energy =                       -230.7258785924362314

Computation Completed


Properties will be evaluated at   0.000000,   0.000000,   0.000000 [a0]

Properties computed using the SCF density matrix

  Nuclear Dipole Moment: [e a0]
     X:    -0.0000      Y:    -0.0000      Z:     0.0000

  Electronic Dipole Moment: [e a0]
     X:     0.0000      Y:     0.0000      Z:     0.0000

  Dipole Moment: [e a0]
     X:    -0.0000      Y:    -0.0000      Z:     0.0000     Total:     0.0000

  Dipole Moment: [D]
     X:    -0.0000      Y:    -0.0000      Z:     0.0000     Total:     0.0000


*** tstop() called on atlantis at Tue Apr 19 23:06:53 2022
Module time:
	user time   =       3.22 seconds =       0.05 minutes
	system time =       0.12 seconds =       0.00 minutes
	total time  =          3 seconds =       0.05 minutes
Total time:
	user time   =       3.22 seconds =       0.05 minutes
	system time =       0.12 seconds =       0.00 minutes
	total time  =          3 seconds =       0.05 minutes

*** tstart() called on atlantis
*** at Tue Apr 19 23:06:53 2022


  //>>>>>>>>>>>>>>>>>>>>>>>>>>>>>>>>>>>//
  //               DFMP2               //
  //<<<<<<<<<<<<<<<<<<<<<<<<<<<<<<<<<<<//

   => Loading Basis Set <=

    Name: (AUG-CC-PVDZ AUX)
    Role: RIFIT
    Keyword: DF_BASIS_MP2
    atoms 1-6  entry C          line   112 file /home/akrom/software/anaconda3/envs/ffpenv/share/psi4/basis/aug-cc-pvdz-ri.gbs 
    atoms 7-12 entry H          line    30 file /home/akrom/software/anaconda3/envs/ffpenv/share/psi4/basis/aug-cc-pvdz-ri.gbs 

	 --------------------------------------------------------
	                          DF-MP2                         
	      2nd-Order Density-Fitted Moller-Plesset Theory     
	              RMP2 Wavefunction,   1 Threads             
	                                                         
	        Rob Parrish, Justin Turney, Andy Simmonett,      
	           Ed Hohenstein, and C. David Sherrill          
	 --------------------------------------------------------

   => Auxiliary Basis Set <=

  Basis Set: (AUG-CC-PVDZ AUX)
    Blend: AUG-CC-PVDZ-RI
    Number of shells: 186
    Number of basis function: 570
    Number of Cartesian functions: 666
    Spherical Harmonics?: true
    Max angular momentum: 3

	 --------------------------------------------------------
	                 NBF =   192, NAUX =   570
	 --------------------------------------------------------
	   CLASS    FOCC     OCC    AOCC    AVIR     VIR    FVIR
	   PAIRS       0      21      21     171     171       0
	 --------------------------------------------------------

	-----------------------------------------------------------
	 ==================> DF-MP2 Energies <==================== 
	-----------------------------------------------------------
	 Reference Energy          =    -230.7258785924362599 [Eh]
	 Singles Energy            =      -0.0000000000000000 [Eh]
	 Same-Spin Energy          =      -0.2183581015098892 [Eh]
	 Opposite-Spin Energy      =      -0.6123648218944018 [Eh]
	 Correlation Energy        =      -0.8307229234042910 [Eh]
	 Total Energy              =    -231.5566015158405548 [Eh]
	-----------------------------------------------------------
	 ================> DF-SCS-MP2 Energies <================== 
	-----------------------------------------------------------
	 SCS Same-Spin Scale       =       0.3333333333333333 [-]
	 SCS Opposite-Spin Scale   =       1.2000000000000000 [-]
	 SCS Same-Spin Energy      =      -0.0727860338366297 [Eh]
	 SCS Opposite-Spin Energy  =      -0.7348377862732821 [Eh]
	 SCS Correlation Energy    =      -0.8076238201099118 [Eh]
	 SCS Total Energy          =    -231.5335024125461700 [Eh]
	-----------------------------------------------------------


*** tstop() called on atlantis at Tue Apr 19 23:06:54 2022
Module time:
	user time   =       1.07 seconds =       0.02 minutes
	system time =       0.06 seconds =       0.00 minutes
	total time  =          1 seconds =       0.02 minutes
Total time:
	user time   =       4.29 seconds =       0.07 minutes
	system time =       0.18 seconds =       0.00 minutes
	total time  =          4 seconds =       0.07 minutes
gradient() will perform analytic gradient computation.
    SCF Algorithm Type (re)set to DF.

*** tstart() called on atlantis
*** at Tue Apr 19 23:06:54 2022

   => Loading Basis Set <=

    Name: AUG-CC-PVDZ
    Role: ORBITAL
    Keyword: BASIS
    atoms 1-6  entry C          line   178 file /home/akrom/software/anaconda3/envs/ffpenv/share/psi4/basis/aug-cc-pvdz.gbs 
    atoms 7-12 entry H          line    36 file /home/akrom/software/anaconda3/envs/ffpenv/share/psi4/basis/aug-cc-pvdz.gbs 


         ---------------------------------------------------------
                                   SCF
               by Justin Turney, Rob Parrish, Andy Simmonett
                          and Daniel G. A. Smith
                              RHF Reference
                        1 Threads,    500 MiB Core
         ---------------------------------------------------------

  ==> Geometry <==

    Molecular point group: c2h
    Full point group: C2h

    Geometry (in Angstrom), charge = 0, multiplicity = 1:

       Center              X                  Y                   Z               Mass       
    ------------   -----------------  -----------------  -----------------  -----------------
         C           -1.221510000000    -0.693250000000     0.000000000000    12.000000000000
         C           -1.211140000000     0.711220000000     0.000000000000    12.000000000000
         C           -0.010370000000    -1.404520000000     0.000000000000    12.000000000000
         C            0.010370000000     1.404520000000     0.000000000000    12.000000000000
         C            1.211140000000    -0.711220000000     0.000000000000    12.000000000000
         C            1.221510000000     0.693250000000     0.000000000000    12.000000000000
         H           -2.173110000000    -1.233320000000     0.000000000000     1.007825032230
         H           -2.154640000000     1.265330000000     0.000000000000     1.007825032230
         H           -0.018480000000    -2.498650000000     0.000000000000     1.007825032230
         H            0.018480000000     2.498650000000     0.000000000000     1.007825032230
         H            2.154640000000    -1.265330000000     0.000000000000     1.007825032230
         H            2.173110000000     1.233320000000     0.000000000000     1.007825032230

  Running in c2h symmetry.

  Rotational constants: A =      0.18753  B =      0.18752  C =      0.09376 [cm^-1]
  Rotational constants: A =   5621.92707  B =   5621.82252  C =   2810.93740 [MHz]
  Nuclear repulsion =  202.013308935380167

  Charge       = 0
  Multiplicity = 1
  Electrons    = 42
  Nalpha       = 21
  Nbeta        = 21

  ==> Algorithm <==

  SCF Algorithm Type is DF.
  DIIS enabled.
  MOM disabled.
  Fractional occupation disabled.
  Guess Type is SAD.
  Energy threshold   = 1.00e-10
  Density threshold  = 1.00e-10
  Integral threshold = 0.00e+00

  ==> Primary Basis <==

  Basis Set: AUG-CC-PVDZ
    Blend: AUG-CC-PVDZ
    Number of shells: 84
    Number of basis function: 192
    Number of Cartesian functions: 204
    Spherical Harmonics?: true
    Max angular momentum: 2

   => Loading Basis Set <=

    Name: (AUG-CC-PVDZ AUX)
    Role: JKFIT
    Keyword: DF_BASIS_SCF
    atoms 1-6  entry C          line   154 file /home/akrom/software/anaconda3/envs/ffpenv/share/psi4/basis/aug-cc-pvdz-jkfit.gbs 
    atoms 7-12 entry H          line    70 file /home/akrom/software/anaconda3/envs/ffpenv/share/psi4/basis/aug-cc-pvdz-jkfit.gbs 

  ==> Pre-Iterations <==

   -------------------------------------------------------
    Irrep   Nso     Nmo     Nalpha   Nbeta   Ndocc  Nsocc
   -------------------------------------------------------
     Ag        69      69       0       0       0       0
     Bg        27      27       0       0       0       0
     Au        27      27       0       0       0       0
     Bu        69      69       0       0       0       0
   -------------------------------------------------------
    Total     192     192      21      21      21       0
   -------------------------------------------------------

  ==> Integral Setup <==

  DFHelper Memory: AOs need 0.204 GiB; user supplied 0.366 GiB. Using in-core AOs.

  ==> MemDFJK: Density-Fitted J/K Matrices <==

    J tasked:                   Yes
    K tasked:                   Yes
    wK tasked:                   No
    OpenMP threads:               1
    Memory [MiB]:               375
    Algorithm:                 Core
    Schwarz Cutoff:           1E-12
    Mask sparsity (%):       0.1465
    Fitting Condition:        1E-10

   => Auxiliary Basis Set <=

  Basis Set: (AUG-CC-PVDZ AUX)
    Blend: AUG-CC-PVDZ-JKFIT
    Number of shells: 240
    Number of basis function: 708
    Number of Cartesian functions: 816
    Spherical Harmonics?: true
    Max angular momentum: 3

  Minimum eigenvalue in the overlap matrix is 2.5980864000E-06.
  Using Symmetric Orthogonalization.

  SCF Guess: Superposition of Atomic Densities via on-the-fly atomic UHF.

  ==> Iterations <==

                           Total Energy        Delta E     RMS |[F,P]|

   @DF-RHF iter SAD:  -230.00733856041626   -2.30007e+02   0.00000e+00 
   @DF-RHF iter   1:  -230.55501430147251   -5.47676e-01   4.83854e-03 DIIS
   @DF-RHF iter   2:  -230.69119564835893   -1.36181e-01   2.37244e-03 DIIS
   @DF-RHF iter   3:  -230.72441307607463   -3.32174e-02   3.82524e-04 DIIS
   @DF-RHF iter   4:  -230.72585766735094   -1.44459e-03   4.03591e-05 DIIS
   @DF-RHF iter   5:  -230.72587781189225   -2.01445e-05   7.71346e-06 DIIS
   @DF-RHF iter   6:  -230.72587857994665   -7.68054e-07   8.40221e-07 DIIS
   @DF-RHF iter   7:  -230.72587858983204   -9.88538e-09   1.12323e-07 DIIS
   @DF-RHF iter   8:  -230.72587859004830   -2.16261e-10   2.44474e-08 DIIS
   @DF-RHF iter   9:  -230.72587859005750   -9.20863e-12   7.52531e-09 DIIS
   @DF-RHF iter  10:  -230.72587859005759   -8.52651e-14   1.81677e-09 DIIS
   @DF-RHF iter  11:  -230.72587859005824   -6.53699e-13   2.06655e-10 DIIS
   @DF-RHF iter  12:  -230.72587859005790    3.41061e-13   1.83765e-11 DIIS
  Energy and wave function converged.


  ==> Post-Iterations <==

    Orbital Energies [Eh]
    ---------------------

    Doubly Occupied:                                                      

       1Ag   -11.247553     1Bu   -11.247024     2Bu   -11.247022  
       2Ag   -11.245867     3Ag   -11.245864     3Bu   -11.245300  
       4Ag    -1.146872     4Bu    -1.013293     5Bu    -1.013286  
       5Ag    -0.822465     6Ag    -0.822453     7Ag    -0.704429  
       6Bu    -0.643071     7Bu    -0.616273     8Bu    -0.585517  
       9Bu    -0.585515     1Au    -0.497924     8Ag    -0.493653  
       9Ag    -0.493623     1Bg    -0.335013     2Bg    -0.335003  

    Virtual:                                                              

      10Ag     0.035962    10Bu     0.042574    11Bu     0.042575  
      11Ag     0.057440    12Ag     0.057440    12Bu     0.076190  
       2Au     0.105564     3Au     0.105574     4Au     0.123271  
       3Bg     0.143418     4Bg     0.143418    13Bu     0.145815  
      14Bu     0.148350    15Bu     0.148352    13Ag     0.149442  
      14Ag     0.153068    15Ag     0.153068    16Bu     0.167937  
      17Bu     0.167938    16Ag     0.168531    18Bu     0.184599  
      17Ag     0.190725    18Ag     0.190726     5Bg     0.192074  
       5Au     0.198159     6Au     0.198164    19Ag     0.266380  
      19Bu     0.301293    20Bu     0.301296    20Ag     0.313008  
      21Ag     0.313010    22Ag     0.324081     7Au     0.337391  
       6Bg     0.343022    23Ag     0.354128    24Ag     0.354131  
      21Bu     0.366221    22Bu     0.376566    23Bu     0.376573  
      24Bu     0.386885    25Bu     0.408183     7Bg     0.426945  
       8Bg     0.426946    26Bu     0.429089    27Bu     0.429092  
      25Ag     0.440681    26Ag     0.440686     8Au     0.503355  
       9Au     0.503358    27Ag     0.505484     9Bg     0.562651  
      10Bg     0.569503    28Bu     0.570949    29Bu     0.570968  
      28Ag     0.584980    29Ag     0.584987    30Ag     0.591973  
      31Ag     0.596197    10Au     0.608153    32Ag     0.615219  
      30Bu     0.662103    31Bu     0.662106    32Bu     0.683032  
      11Au     0.686394    12Au     0.686396    33Bu     0.690387  
      34Bu     0.690389    33Ag     0.692519    34Ag     0.692525  
      11Bg     0.756993    12Bg     0.756996    35Bu     0.762517  
      36Bu     0.774142    35Ag     0.774764    36Ag     0.774771  
      13Au     0.840014    37Ag     0.848670    37Bu     0.849221  
      38Bu     0.849226    38Ag     0.886794    39Ag     0.886796  
      13Bg     0.920118    14Bg     0.920123    14Au     0.924002  
      15Au     0.924004    15Bg     0.956726    40Ag     0.966809  
      41Ag     0.966818    16Bg     0.977440    17Bg     0.977442  
      39Bu     0.996402    42Ag     1.006579    40Bu     1.056434  
      16Au     1.076754    41Bu     1.094083    42Bu     1.094115  
      17Au     1.177432    18Au     1.177442    43Ag     1.189461  
      43Bu     1.343873    44Bu     1.343925    18Bg     1.420149  
      19Bg     1.480656    45Bu     1.501673    46Bu     1.529496  
      47Bu     1.529542    44Ag     1.537292    45Ag     1.537295  
      19Au     1.550301    48Bu     1.585905    46Ag     1.609222  
      49Bu     1.630541    50Bu     1.630551    47Ag     1.642084  
      48Ag     1.642100    49Ag     1.644934    20Au     1.704174  
      21Au     1.704178    20Bg     1.712502    21Bg     1.712504  
      50Ag     1.783758    51Ag     1.783768    51Bu     1.783953  
      52Ag     1.831869    22Au     1.890098    23Au     1.890106  
      53Ag     1.896038    54Ag     1.933704    52Bu     1.947464  
      53Bu     1.947470    55Ag     1.966419    56Ag     1.966435  
      22Bg     1.980637    54Bu     1.989180    24Au     2.086180  
      55Bu     2.087831    56Bu     2.087859    23Bg     2.114097  
      24Bg     2.114106    25Bg     2.198581    26Bg     2.198630  
      57Ag     2.206022    58Ag     2.206046    57Bu     2.254562  
      58Bu     2.254569    59Bu     2.275718    59Ag     2.354489  
      25Au     2.360410    26Au     2.360420    60Bu     2.377728  
      60Ag     2.434296    61Ag     2.434342    27Au     2.607208  
      27Bg     2.655825    62Ag     2.765191    63Ag     2.765220  
      61Bu     2.769906    62Bu     2.769952    64Ag     2.773623  
      63Bu     2.948098    64Bu     2.949606    65Bu     2.949639  
      65Ag     3.109696    66Ag     3.109736    66Bu     3.110647  
      67Bu     3.110678    67Ag     3.357256    68Ag     3.527018  
      69Ag     3.527088    68Bu     3.841463    69Bu     4.765978  

    Final Occupation by Irrep:
             Ag    Bg    Au    Bu 
    DOCC [     9,    2,    1,    9 ]

  @DF-RHF Final Energy:  -230.72587859005790

   => Energetics <=

    Nuclear Repulsion Energy =            202.0133089353801665
    One-Electron Energy =                -710.3043380282799717
    Two-Electron Energy =                 277.5651505028419024
    Total Energy =                       -230.7258785900579028

Computation Completed


Properties will be evaluated at   0.000000,   0.000000,   0.000000 [a0]

Properties computed using the SCF density matrix

  Nuclear Dipole Moment: [e a0]
     X:    -0.0000      Y:    -0.0000      Z:     0.0000

  Electronic Dipole Moment: [e a0]
     X:     0.0000      Y:     0.0000      Z:     0.0000

  Dipole Moment: [e a0]
     X:    -0.0000      Y:    -0.0000      Z:     0.0000     Total:     0.0000

  Dipole Moment: [D]
     X:    -0.0000      Y:    -0.0000      Z:     0.0000     Total:     0.0000


*** tstop() called on atlantis at Tue Apr 19 23:06:58 2022
Module time:
	user time   =       3.60 seconds =       0.06 minutes
	system time =       0.09 seconds =       0.00 minutes
	total time  =          4 seconds =       0.07 minutes
Total time:
	user time   =       7.89 seconds =       0.13 minutes
	system time =       0.27 seconds =       0.00 minutes
	total time  =          8 seconds =       0.13 minutes

*** tstart() called on atlantis
*** at Tue Apr 19 23:06:58 2022


  //>>>>>>>>>>>>>>>>>>>>>>>>>>>>>>>>>>>//
  //               DFMP2               //
  //<<<<<<<<<<<<<<<<<<<<<<<<<<<<<<<<<<<//

   => Loading Basis Set <=

    Name: (AUG-CC-PVDZ AUX)
    Role: RIFIT
    Keyword: DF_BASIS_MP2
    atoms 1-6  entry C          line   112 file /home/akrom/software/anaconda3/envs/ffpenv/share/psi4/basis/aug-cc-pvdz-ri.gbs 
    atoms 7-12 entry H          line    30 file /home/akrom/software/anaconda3/envs/ffpenv/share/psi4/basis/aug-cc-pvdz-ri.gbs 

	 --------------------------------------------------------
	                          DF-MP2                         
	      2nd-Order Density-Fitted Moller-Plesset Theory     
	              RMP2 Wavefunction,   1 Threads             
	                                                         
	        Rob Parrish, Justin Turney, Andy Simmonett,      
	           Ed Hohenstein, and C. David Sherrill          
	 --------------------------------------------------------

   => Auxiliary Basis Set <=

  Basis Set: (AUG-CC-PVDZ AUX)
    Blend: AUG-CC-PVDZ-RI
    Number of shells: 186
    Number of basis function: 570
    Number of Cartesian functions: 666
    Spherical Harmonics?: true
    Max angular momentum: 3

	 --------------------------------------------------------
	                 NBF =   192, NAUX =   570
	 --------------------------------------------------------
	   CLASS    FOCC     OCC    AOCC    AVIR     VIR    FVIR
	   PAIRS       0      21      21     171     171       0
	 --------------------------------------------------------

  DFHelper Memory: AOs need 0.204 GiB; user supplied 0.366 GiB. Using in-core AOs.


         ------------------------------------------------------------
                                     CPHF                           
                                  Rob Parrish                       
         ------------------------------------------------------------

  ==> Geometry <==

    Molecular point group: c2h
    Full point group: C2h

    Geometry (in Angstrom), charge = 0, multiplicity = 1:

       Center              X                  Y                   Z               Mass       
    ------------   -----------------  -----------------  -----------------  -----------------
         C           -1.221510000000    -0.693250000000     0.000000000000    12.000000000000
         C           -1.211140000000     0.711220000000     0.000000000000    12.000000000000
         C           -0.010370000000    -1.404520000000     0.000000000000    12.000000000000
         C            0.010370000000     1.404520000000     0.000000000000    12.000000000000
         C            1.211140000000    -0.711220000000     0.000000000000    12.000000000000
         C            1.221510000000     0.693250000000     0.000000000000    12.000000000000
         H           -2.173110000000    -1.233320000000     0.000000000000     1.007825032230
         H           -2.154640000000     1.265330000000     0.000000000000     1.007825032230
         H           -0.018480000000    -2.498650000000     0.000000000000     1.007825032230
         H            0.018480000000     2.498650000000     0.000000000000     1.007825032230
         H            2.154640000000    -1.265330000000     0.000000000000     1.007825032230
         H            2.173110000000     1.233320000000     0.000000000000     1.007825032230

  Nuclear repulsion =  202.013308935380167
  Reference energy  = -230.725878590057903

  ==> Basis Set <==

  Basis Set: AUG-CC-PVDZ
    Blend: AUG-CC-PVDZ
    Number of shells: 84
    Number of basis function: 192
    Number of Cartesian functions: 204
    Spherical Harmonics?: true
    Max angular momentum: 2

  ==> CGRSolver (by Rob Parrish) <==

   Number of roots    =         1
   Preconditioning    =    JACOBI
   Convergence cutoff =     1E-06
   Maximum iterations =       100

  ==> CPHFRHamiltonian (by Rob Parrish) <== 

  ==> MemDFJK: Density-Fitted J/K Matrices <==

    J tasked:                   Yes
    K tasked:                   Yes
    wK tasked:                   No
    OpenMP threads:               1
    Memory [MiB]:               375
    Algorithm:                 Core
    Schwarz Cutoff:           1E-12
    Mask sparsity (%):       0.1465
    Fitting Condition:        1E-10

   => Auxiliary Basis Set <=

  Basis Set: (AUG-CC-PVDZ AUX)
    Blend: AUG-CC-PVDZ-JKFIT
    Number of shells: 240
    Number of basis function: 708
    Number of Cartesian functions: 816
    Spherical Harmonics?: true
    Max angular momentum: 3

  ==> CPHF Iterations <==

  => Iterations <=

             Iter  Converged  Remaining    Residual
  CGR           1          0          1   6.430E-02
  CGR           2          0          1   1.073E-02
  CGR           3          0          1   2.280E-03
  CGR           4          0          1   4.616E-04
  CGR           5          0          1   6.310E-05
  CGR           6          0          1   6.432E-06
  CGR           7          1          0   6.916E-07

    CGRSolver converged.

  ==> DFCorrGrad: Density-Fitted Correlated Gradients <==

    OpenMP threads:              1
    Integrals threads:           1
    Memory [GiB]:            0.366
    Schwarz Cutoff:          0E+00
    Fitting Condition:       1E-10

   => Auxiliary Basis Set <=

  Basis Set: (AUG-CC-PVDZ AUX)
    Blend: AUG-CC-PVDZ-JKFIT
    Number of shells: 240
    Number of basis function: 708
    Number of Cartesian functions: 816
    Spherical Harmonics?: true
    Max angular momentum: 3

	-----------------------------------------------------------
	 ==================> DF-MP2 Energies <==================== 
	-----------------------------------------------------------
	 Reference Energy          =    -230.7258785900579028 [Eh]
	 Singles Energy            =      -0.0000000000000000 [Eh]
	 Same-Spin Energy          =      -0.2183581033802326 [Eh]
	 Opposite-Spin Energy      =      -0.6123648350893367 [Eh]
	 Correlation Energy        =      -0.8307229384695693 [Eh]
	 Total Energy              =    -231.5566015285274659 [Eh]
	-----------------------------------------------------------
	 ================> DF-SCS-MP2 Energies <================== 
	-----------------------------------------------------------
	 SCS Same-Spin Scale       =       0.3333333333333333 [-]
	 SCS Opposite-Spin Scale   =       1.2000000000000000 [-]
	 SCS Same-Spin Energy      =      -0.0727860344600775 [Eh]
	 SCS Opposite-Spin Energy  =      -0.7348378021072041 [Eh]
	 SCS Correlation Energy    =      -0.8076238365672816 [Eh]
	 SCS Total Energy          =    -231.5335024266251764 [Eh]
	-----------------------------------------------------------


  -Total Gradient:
     Atom            X                  Y                   Z
    ------   -----------------  -----------------  -----------------
       1        0.002289999881     0.001333086512     0.000000000000
       2        0.002270775273    -0.001373855541     0.000000000000
       3        0.000027318719     0.002606636891     0.000000000000
       4       -0.000027318719    -0.002606636891     0.000000000000
       5       -0.002270775273     0.001373855541     0.000000000000
       6       -0.002289999881    -0.001333086512     0.000000000000
       7       -0.000623155916    -0.000354194598     0.000000000000
       8       -0.000618435607     0.000369669474     0.000000000000
       9       -0.000007881774    -0.000708781936     0.000000000000
      10        0.000007881774     0.000708781936     0.000000000000
      11        0.000618435607    -0.000369669474     0.000000000000
      12        0.000623155916     0.000354194598     0.000000000000


*** tstop() called on atlantis at Tue Apr 19 23:07:14 2022
Module time:
	user time   =      14.92 seconds =       0.25 minutes
	system time =       0.57 seconds =       0.01 minutes
	total time  =         16 seconds =       0.27 minutes
Total time:
	user time   =      22.81 seconds =       0.38 minutes
	system time =       0.84 seconds =       0.01 minutes
	total time  =         24 seconds =       0.40 minutes

  Based on options and gradient (rms=1.12E-03), recommend projecting translations and projecting rotations.
hessian() will perform frequency computation by finite difference of analytic gradients.

         ----------------------------------------------------------
                                   FINDIF
                     R. A. King and Jonathon Misiewicz
         ---------------------------------------------------------

  Using finite-differences of gradients to determine vibrational frequencies and 
  normal modes.  Resulting frequencies are only valid at stationary points.
    Generating geometries for use with 3-point formula.
    Displacement size will be 5.00e-03.
    Number of atoms is 12.
    Number of irreps is 4.
    Number of SALCs is 30.
    Translations projected? 1. Rotations projected? 1.
    Index of SALCs per irrep:
     1 :  0  1  2  3  4  5  6  7  8  9  10 
     2 :  11  12  13  14 
     3 :  15  16  17  18  19 
     4 :  20  21  22  23  24  25  26  27  28  29 
    Number of SALCs per irrep:
     Irrep 1: 11
     Irrep 2: 4
     Irrep 3: 5
     Irrep 4: 10
    Number of geometries (including reference) is 42.
    Number of displacements per irrep:
      Irrep 1: 22
      Irrep 2: 4
      Irrep 3: 5
      Irrep 4: 10

  //>>>>>>>>>>>>>>>>>>>>>>>>>>>>>>>>>>>//
  //    Loading displacement 1 of 42   //
  //<<<<<<<<<<<<<<<<<<<<<<<<<<<<<<<<<<<//
gradient() will perform analytic gradient computation.
    SCF Algorithm Type (re)set to DF.

*** tstart() called on atlantis
*** at Tue Apr 19 23:07:14 2022

   => Loading Basis Set <=

    Name: AUG-CC-PVDZ
    Role: ORBITAL
    Keyword: BASIS
    atoms 1-6  entry C          line   178 file /home/akrom/software/anaconda3/envs/ffpenv/share/psi4/basis/aug-cc-pvdz.gbs 
    atoms 7-12 entry H          line    36 file /home/akrom/software/anaconda3/envs/ffpenv/share/psi4/basis/aug-cc-pvdz.gbs 


         ---------------------------------------------------------
                                   SCF
               by Justin Turney, Rob Parrish, Andy Simmonett
                          and Daniel G. A. Smith
                              RHF Reference
                        1 Threads,    500 MiB Core
         ---------------------------------------------------------

  ==> Geometry <==

    Molecular point group: c2h
    Full point group: C2h

    Geometry (in Angstrom), charge = 0, multiplicity = 1:

       Center              X                  Y                   Z               Mass       
    ------------   -----------------  -----------------  -----------------  -----------------
         C           -1.221510000000    -0.693250000000     0.000000000000    12.000000000000
         C           -1.211140000000     0.711220000000     0.000000000000    12.000000000000
         C           -0.010370000000    -1.404520000000     0.000000000000    12.000000000000
         C            0.010370000000     1.404520000000     0.000000000000    12.000000000000
         C            1.211140000000    -0.711220000000     0.000000000000    12.000000000000
         C            1.221510000000     0.693250000000     0.000000000000    12.000000000000
         H           -2.173110000000    -1.233320000000     0.000000000000     1.007825032230
         H           -2.154640000000     1.265330000000     0.000000000000     1.007825032230
         H           -0.018480000000    -2.498650000000     0.000000000000     1.007825032230
         H            0.018480000000     2.498650000000     0.000000000000     1.007825032230
         H            2.154640000000    -1.265330000000     0.000000000000     1.007825032230
         H            2.173110000000     1.233320000000     0.000000000000     1.007825032230

  Running in c2h symmetry.

  Rotational constants: A =      0.18753  B =      0.18752  C =      0.09376 [cm^-1]
  Rotational constants: A =   5621.92707  B =   5621.82252  C =   2810.93740 [MHz]
  Nuclear repulsion =  202.013308935380167

  Charge       = 0
  Multiplicity = 1
  Electrons    = 42
  Nalpha       = 21
  Nbeta        = 21

  ==> Algorithm <==

  SCF Algorithm Type is DF.
  DIIS enabled.
  MOM disabled.
  Fractional occupation disabled.
  Guess Type is SAD.
  Energy threshold   = 1.00e-10
  Density threshold  = 1.00e-10
  Integral threshold = 0.00e+00

  ==> Primary Basis <==

  Basis Set: AUG-CC-PVDZ
    Blend: AUG-CC-PVDZ
    Number of shells: 84
    Number of basis function: 192
    Number of Cartesian functions: 204
    Spherical Harmonics?: true
    Max angular momentum: 2

   => Loading Basis Set <=

    Name: (AUG-CC-PVDZ AUX)
    Role: JKFIT
    Keyword: DF_BASIS_SCF
    atoms 1-6  entry C          line   154 file /home/akrom/software/anaconda3/envs/ffpenv/share/psi4/basis/aug-cc-pvdz-jkfit.gbs 
    atoms 7-12 entry H          line    70 file /home/akrom/software/anaconda3/envs/ffpenv/share/psi4/basis/aug-cc-pvdz-jkfit.gbs 

  ==> Pre-Iterations <==

   -------------------------------------------------------
    Irrep   Nso     Nmo     Nalpha   Nbeta   Ndocc  Nsocc
   -------------------------------------------------------
     Ag        69      69       0       0       0       0
     Bg        27      27       0       0       0       0
     Au        27      27       0       0       0       0
     Bu        69      69       0       0       0       0
   -------------------------------------------------------
    Total     192     192      21      21      21       0
   -------------------------------------------------------

  ==> Integral Setup <==

  DFHelper Memory: AOs need 0.204 GiB; user supplied 0.366 GiB. Using in-core AOs.

  ==> MemDFJK: Density-Fitted J/K Matrices <==

    J tasked:                   Yes
    K tasked:                   Yes
    wK tasked:                   No
    OpenMP threads:               1
    Memory [MiB]:               375
    Algorithm:                 Core
    Schwarz Cutoff:           1E-12
    Mask sparsity (%):       0.1465
    Fitting Condition:        1E-10

   => Auxiliary Basis Set <=

  Basis Set: (AUG-CC-PVDZ AUX)
    Blend: AUG-CC-PVDZ-JKFIT
    Number of shells: 240
    Number of basis function: 708
    Number of Cartesian functions: 816
    Spherical Harmonics?: true
    Max angular momentum: 3

  Minimum eigenvalue in the overlap matrix is 2.5980864000E-06.
  Using Symmetric Orthogonalization.

  SCF Guess: Superposition of Atomic Densities via on-the-fly atomic UHF.

  ==> Iterations <==

                           Total Energy        Delta E     RMS |[F,P]|

   @DF-RHF iter SAD:  -230.00733855774172   -2.30007e+02   0.00000e+00 
   @DF-RHF iter   1:  -230.55501429903944   -5.47676e-01   4.83854e-03 DIIS
   @DF-RHF iter   2:  -230.69119564593905   -1.36181e-01   2.37244e-03 DIIS
   @DF-RHF iter   3:  -230.72441307368092   -3.32174e-02   3.82524e-04 DIIS
   @DF-RHF iter   4:  -230.72585766495658   -1.44459e-03   4.03591e-05 DIIS
   @DF-RHF iter   5:  -230.72587780949905   -2.01445e-05   7.71346e-06 DIIS
   @DF-RHF iter   6:  -230.72587857755238   -7.68053e-07   8.40221e-07 DIIS
   @DF-RHF iter   7:  -230.72587858743881   -9.88643e-09   1.12323e-07 DIIS
   @DF-RHF iter   8:  -230.72587858765314   -2.14328e-10   2.44474e-08 DIIS
   @DF-RHF iter   9:  -230.72587858766443   -1.12834e-11   7.52531e-09 DIIS
   @DF-RHF iter  10:  -230.72587858766468   -2.55795e-13   1.81678e-09 DIIS
   @DF-RHF iter  11:  -230.72587858766445    2.27374e-13   2.06659e-10 DIIS
   @DF-RHF iter  12:  -230.72587858766448   -2.84217e-14   1.83510e-11 DIIS
  Energy and wave function converged.


  ==> Post-Iterations <==

    Orbital Energies [Eh]
    ---------------------

    Doubly Occupied:                                                      

       1Ag   -11.247553     1Bu   -11.247024     2Bu   -11.247022  
       2Ag   -11.245867     3Ag   -11.245864     3Bu   -11.245300  
       4Ag    -1.146872     4Bu    -1.013293     5Bu    -1.013286  
       5Ag    -0.822465     6Ag    -0.822453     7Ag    -0.704429  
       6Bu    -0.643071     7Bu    -0.616273     8Bu    -0.585517  
       9Bu    -0.585515     1Au    -0.497924     8Ag    -0.493653  
       9Ag    -0.493623     1Bg    -0.335013     2Bg    -0.335003  

    Virtual:                                                              

      10Ag     0.035962    10Bu     0.042574    11Bu     0.042575  
      11Ag     0.057440    12Ag     0.057440    12Bu     0.076189  
       2Au     0.105564     3Au     0.105574     4Au     0.123271  
       3Bg     0.143418     4Bg     0.143418    13Bu     0.145815  
      14Bu     0.148350    15Bu     0.148352    13Ag     0.149442  
      14Ag     0.153068    15Ag     0.153068    16Bu     0.167937  
      17Bu     0.167938    16Ag     0.168531    18Bu     0.184599  
      17Ag     0.190725    18Ag     0.190726     5Bg     0.192074  
       5Au     0.198159     6Au     0.198164    19Ag     0.266379  
      19Bu     0.301293    20Bu     0.301296    20Ag     0.313008  
      21Ag     0.313010    22Ag     0.324081     7Au     0.337391  
       6Bg     0.343022    23Ag     0.354128    24Ag     0.354131  
      21Bu     0.366219    22Bu     0.376566    23Bu     0.376573  
      24Bu     0.386885    25Bu     0.408183     7Bg     0.426945  
       8Bg     0.426946    26Bu     0.429089    27Bu     0.429092  
      25Ag     0.440681    26Ag     0.440686     8Au     0.503355  
       9Au     0.503358    27Ag     0.505484     9Bg     0.562651  
      10Bg     0.569503    28Bu     0.570949    29Bu     0.570968  
      28Ag     0.584980    29Ag     0.584987    30Ag     0.591973  
      31Ag     0.596197    10Au     0.608153    32Ag     0.615219  
      30Bu     0.662103    31Bu     0.662107    32Bu     0.683032  
      11Au     0.686394    12Au     0.686396    33Bu     0.690387  
      34Bu     0.690389    33Ag     0.692519    34Ag     0.692525  
      11Bg     0.756993    12Bg     0.756996    35Bu     0.762517  
      36Bu     0.774141    35Ag     0.774764    36Ag     0.774771  
      13Au     0.840014    37Ag     0.848669    37Bu     0.849221  
      38Bu     0.849226    38Ag     0.886794    39Ag     0.886796  
      13Bg     0.920118    14Bg     0.920123    14Au     0.924002  
      15Au     0.924004    15Bg     0.956726    40Ag     0.966809  
      41Ag     0.966818    16Bg     0.977440    17Bg     0.977442  
      39Bu     0.996402    42Ag     1.006579    40Bu     1.056434  
      16Au     1.076754    41Bu     1.094083    42Bu     1.094115  
      17Au     1.177432    18Au     1.177442    43Ag     1.189461  
      43Bu     1.343873    44Bu     1.343925    18Bg     1.420149  
      19Bg     1.480656    45Bu     1.501673    46Bu     1.529495  
      47Bu     1.529542    44Ag     1.537292    45Ag     1.537295  
      19Au     1.550301    48Bu     1.585905    46Ag     1.609222  
      49Bu     1.630541    50Bu     1.630551    47Ag     1.642084  
      48Ag     1.642100    49Ag     1.644934    20Au     1.704174  
      21Au     1.704178    20Bg     1.712502    21Bg     1.712504  
      50Ag     1.783758    51Ag     1.783768    51Bu     1.783953  
      52Ag     1.831869    22Au     1.890098    23Au     1.890106  
      53Ag     1.896038    54Ag     1.933703    52Bu     1.947464  
      53Bu     1.947470    55Ag     1.966419    56Ag     1.966435  
      22Bg     1.980637    54Bu     1.989180    24Au     2.086180  
      55Bu     2.087831    56Bu     2.087859    23Bg     2.114097  
      24Bg     2.114106    25Bg     2.198581    26Bg     2.198630  
      57Ag     2.206022    58Ag     2.206046    57Bu     2.254562  
      58Bu     2.254569    59Bu     2.275718    59Ag     2.354489  
      25Au     2.360410    26Au     2.360420    60Bu     2.377728  
      60Ag     2.434296    61Ag     2.434342    27Au     2.607208  
      27Bg     2.655825    62Ag     2.765191    63Ag     2.765220  
      61Bu     2.769906    62Bu     2.769952    64Ag     2.773623  
      63Bu     2.948098    64Bu     2.949606    65Bu     2.949639  
      65Ag     3.109696    66Ag     3.109736    66Bu     3.110647  
      67Bu     3.110678    67Ag     3.357256    68Ag     3.527018  
      69Ag     3.527088    68Bu     3.841463    69Bu     4.765978  

    Final Occupation by Irrep:
             Ag    Bg    Au    Bu 
    DOCC [     9,    2,    1,    9 ]

  @DF-RHF Final Energy:  -230.72587858766448

   => Energetics <=

    Nuclear Repulsion Energy =            202.0133089353801665
    One-Electron Energy =                -710.3043380271058140
    Two-Electron Energy =                 277.5651505040611937
    Total Energy =                       -230.7258785876644538

Computation Completed


Properties will be evaluated at   0.000000,   0.000000,   0.000000 [a0]

Properties computed using the SCF density matrix

  Nuclear Dipole Moment: [e a0]
     X:    -0.0000      Y:    -0.0000      Z:     0.0000

  Electronic Dipole Moment: [e a0]
     X:     0.0000      Y:     0.0000      Z:     0.0000

  Dipole Moment: [e a0]
     X:    -0.0000      Y:    -0.0000      Z:     0.0000     Total:     0.0000

  Dipole Moment: [D]
     X:    -0.0000      Y:    -0.0000      Z:     0.0000     Total:     0.0000


*** tstop() called on atlantis at Tue Apr 19 23:07:18 2022
Module time:
	user time   =       3.60 seconds =       0.06 minutes
	system time =       0.06 seconds =       0.00 minutes
	total time  =          4 seconds =       0.07 minutes
Total time:
	user time   =      26.69 seconds =       0.44 minutes
	system time =       0.92 seconds =       0.02 minutes
	total time  =         28 seconds =       0.47 minutes

*** tstart() called on atlantis
*** at Tue Apr 19 23:07:18 2022


  //>>>>>>>>>>>>>>>>>>>>>>>>>>>>>>>>>>>//
  //               DFMP2               //
  //<<<<<<<<<<<<<<<<<<<<<<<<<<<<<<<<<<<//

   => Loading Basis Set <=

    Name: (AUG-CC-PVDZ AUX)
    Role: RIFIT
    Keyword: DF_BASIS_MP2
    atoms 1-6  entry C          line   112 file /home/akrom/software/anaconda3/envs/ffpenv/share/psi4/basis/aug-cc-pvdz-ri.gbs 
    atoms 7-12 entry H          line    30 file /home/akrom/software/anaconda3/envs/ffpenv/share/psi4/basis/aug-cc-pvdz-ri.gbs 

	 --------------------------------------------------------
	                          DF-MP2                         
	      2nd-Order Density-Fitted Moller-Plesset Theory     
	              RMP2 Wavefunction,   1 Threads             
	                                                         
	        Rob Parrish, Justin Turney, Andy Simmonett,      
	           Ed Hohenstein, and C. David Sherrill          
	 --------------------------------------------------------

   => Auxiliary Basis Set <=

  Basis Set: (AUG-CC-PVDZ AUX)
    Blend: AUG-CC-PVDZ-RI
    Number of shells: 186
    Number of basis function: 570
    Number of Cartesian functions: 666
    Spherical Harmonics?: true
    Max angular momentum: 3

	 --------------------------------------------------------
	                 NBF =   192, NAUX =   570
	 --------------------------------------------------------
	   CLASS    FOCC     OCC    AOCC    AVIR     VIR    FVIR
	   PAIRS       0      21      21     171     171       0
	 --------------------------------------------------------

  DFHelper Memory: AOs need 0.204 GiB; user supplied 0.366 GiB. Using in-core AOs.


         ------------------------------------------------------------
                                     CPHF                           
                                  Rob Parrish                       
         ------------------------------------------------------------

  ==> Geometry <==

    Molecular point group: c2h
    Full point group: C2h

    Geometry (in Angstrom), charge = 0, multiplicity = 1:

       Center              X                  Y                   Z               Mass       
    ------------   -----------------  -----------------  -----------------  -----------------
         C           -1.221510000000    -0.693250000000     0.000000000000    12.000000000000
         C           -1.211140000000     0.711220000000     0.000000000000    12.000000000000
         C           -0.010370000000    -1.404520000000     0.000000000000    12.000000000000
         C            0.010370000000     1.404520000000     0.000000000000    12.000000000000
         C            1.211140000000    -0.711220000000     0.000000000000    12.000000000000
         C            1.221510000000     0.693250000000     0.000000000000    12.000000000000
         H           -2.173110000000    -1.233320000000     0.000000000000     1.007825032230
         H           -2.154640000000     1.265330000000     0.000000000000     1.007825032230
         H           -0.018480000000    -2.498650000000     0.000000000000     1.007825032230
         H            0.018480000000     2.498650000000     0.000000000000     1.007825032230
         H            2.154640000000    -1.265330000000     0.000000000000     1.007825032230
         H            2.173110000000     1.233320000000     0.000000000000     1.007825032230

  Nuclear repulsion =  202.013308935380167
  Reference energy  = -230.725878587664482

  ==> Basis Set <==

  Basis Set: AUG-CC-PVDZ
    Blend: AUG-CC-PVDZ
    Number of shells: 84
    Number of basis function: 192
    Number of Cartesian functions: 204
    Spherical Harmonics?: true
    Max angular momentum: 2

  ==> CGRSolver (by Rob Parrish) <==

   Number of roots    =         1
   Preconditioning    =    JACOBI
   Convergence cutoff =     1E-06
   Maximum iterations =       100

  ==> CPHFRHamiltonian (by Rob Parrish) <== 

  ==> MemDFJK: Density-Fitted J/K Matrices <==

    J tasked:                   Yes
    K tasked:                   Yes
    wK tasked:                   No
    OpenMP threads:               1
    Memory [MiB]:               375
    Algorithm:                 Core
    Schwarz Cutoff:           1E-12
    Mask sparsity (%):       0.1465
    Fitting Condition:        1E-10

   => Auxiliary Basis Set <=

  Basis Set: (AUG-CC-PVDZ AUX)
    Blend: AUG-CC-PVDZ-JKFIT
    Number of shells: 240
    Number of basis function: 708
    Number of Cartesian functions: 816
    Spherical Harmonics?: true
    Max angular momentum: 3

  ==> CPHF Iterations <==

  => Iterations <=

             Iter  Converged  Remaining    Residual
  CGR           1          0          1   6.430E-02
  CGR           2          0          1   1.073E-02
  CGR           3          0          1   2.280E-03
  CGR           4          0          1   4.616E-04
  CGR           5          0          1   6.310E-05
  CGR           6          0          1   6.432E-06
  CGR           7          1          0   6.916E-07

    CGRSolver converged.

  ==> DFCorrGrad: Density-Fitted Correlated Gradients <==

    OpenMP threads:              1
    Integrals threads:           1
    Memory [GiB]:            0.366
    Schwarz Cutoff:          0E+00
    Fitting Condition:       1E-10

   => Auxiliary Basis Set <=

  Basis Set: (AUG-CC-PVDZ AUX)
    Blend: AUG-CC-PVDZ-JKFIT
    Number of shells: 240
    Number of basis function: 708
    Number of Cartesian functions: 816
    Spherical Harmonics?: true
    Max angular momentum: 3

	-----------------------------------------------------------
	 ==================> DF-MP2 Energies <==================== 
	-----------------------------------------------------------
	 Reference Energy          =    -230.7258785876644822 [Eh]
	 Singles Energy            =      -0.0000000000000000 [Eh]
	 Same-Spin Energy          =      -0.2183581034056964 [Eh]
	 Opposite-Spin Energy      =      -0.6123648352093419 [Eh]
	 Correlation Energy        =      -0.8307229386150383 [Eh]
	 Total Energy              =    -231.5566015262795077 [Eh]
	-----------------------------------------------------------
	 ================> DF-SCS-MP2 Energies <================== 
	-----------------------------------------------------------
	 SCS Same-Spin Scale       =       0.3333333333333333 [-]
	 SCS Opposite-Spin Scale   =       1.2000000000000000 [-]
	 SCS Same-Spin Energy      =      -0.0727860344685655 [Eh]
	 SCS Opposite-Spin Energy  =      -0.7348378022512103 [Eh]
	 SCS Correlation Energy    =      -0.8076238367197758 [Eh]
	 SCS Total Energy          =    -231.5335024243842668 [Eh]
	-----------------------------------------------------------


  -Total Gradient:
     Atom            X                  Y                   Z
    ------   -----------------  -----------------  -----------------
       1        0.002290025238     0.001333018088     0.000000000000
       2        0.002270736468    -0.001373814110     0.000000000000
       3        0.000027262776     0.002606650783     0.000000000000
       4       -0.000027262776    -0.002606650783     0.000000000000
       5       -0.002270736468     0.001373814110     0.000000000000
       6       -0.002290025238    -0.001333018088     0.000000000000
       7       -0.000623061275    -0.000354164940     0.000000000000
       8       -0.000618390705     0.000369654485     0.000000000000
       9       -0.000007892426    -0.000708670177     0.000000000000
      10        0.000007892426     0.000708670177     0.000000000000
      11        0.000618390705    -0.000369654485     0.000000000000
      12        0.000623061275     0.000354164940     0.000000000000


*** tstop() called on atlantis at Tue Apr 19 23:07:33 2022
Module time:
	user time   =      14.85 seconds =       0.25 minutes
	system time =       0.64 seconds =       0.01 minutes
	total time  =         15 seconds =       0.25 minutes
Total time:
	user time   =      41.54 seconds =       0.69 minutes
	system time =       1.56 seconds =       0.03 minutes
	total time  =         43 seconds =       0.72 minutes

  //>>>>>>>>>>>>>>>>>>>>>>>>>>>>>>>>>>>//
  //    Loading displacement 2 of 42   //
  //<<<<<<<<<<<<<<<<<<<<<<<<<<<<<<<<<<<//
gradient() will perform analytic gradient computation.
    SCF Algorithm Type (re)set to DF.

*** tstart() called on atlantis
*** at Tue Apr 19 23:07:33 2022

   => Loading Basis Set <=

    Name: AUG-CC-PVDZ
    Role: ORBITAL
    Keyword: BASIS
    atoms 1-6  entry C          line   178 file /home/akrom/software/anaconda3/envs/ffpenv/share/psi4/basis/aug-cc-pvdz.gbs 
    atoms 7-12 entry H          line    36 file /home/akrom/software/anaconda3/envs/ffpenv/share/psi4/basis/aug-cc-pvdz.gbs 


         ---------------------------------------------------------
                                   SCF
               by Justin Turney, Rob Parrish, Andy Simmonett
                          and Daniel G. A. Smith
                              RHF Reference
                        1 Threads,    500 MiB Core
         ---------------------------------------------------------

  ==> Geometry <==

    Molecular point group: c2h
    Full point group: C2h

    Geometry (in Angstrom), charge = 0, multiplicity = 1:

       Center              X                  Y                   Z               Mass       
    ------------   -----------------  -----------------  -----------------  -----------------
         C           -1.222032477591    -0.693313109608     0.000000000000    12.000000000000
         C           -1.211176745353     0.711157426160     0.000000000000    12.000000000000
         C           -0.010297435136    -1.404520535769     0.000000000000    12.000000000000
         C            0.010297435136     1.404520535769     0.000000000000    12.000000000000
         C            1.211176745353    -0.711157426160     0.000000000000    12.000000000000
         C            1.222032477591     0.693313109608     0.000000000000    12.000000000000
         H           -2.173046280225    -1.233432274252     0.000000000000     1.007825032230
         H           -2.154705373579     1.265218680005     0.000000000000     1.007825032230
         H           -0.018350906646    -2.498650954774     0.000000000000     1.007825032230
         H            0.018350906646     2.498650954774     0.000000000000     1.007825032230
         H            2.154705373579    -1.265218680005     0.000000000000     1.007825032230
         H            2.173046280225     1.233432274252     0.000000000000     1.007825032230

  Running in c2h symmetry.

  Rotational constants: A =      0.18753  B =      0.18745  C =      0.09375 [cm^-1]
  Rotational constants: A =   5621.97670  B =   5619.72613  C =   2810.42560 [MHz]
  Nuclear repulsion =  201.998047561272216

  Charge       = 0
  Multiplicity = 1
  Electrons    = 42
  Nalpha       = 21
  Nbeta        = 21

  ==> Algorithm <==

  SCF Algorithm Type is DF.
  DIIS enabled.
  MOM disabled.
  Fractional occupation disabled.
  Guess Type is SAD.
  Energy threshold   = 1.00e-10
  Density threshold  = 1.00e-10
  Integral threshold = 0.00e+00

  ==> Primary Basis <==

  Basis Set: AUG-CC-PVDZ
    Blend: AUG-CC-PVDZ
    Number of shells: 84
    Number of basis function: 192
    Number of Cartesian functions: 204
    Spherical Harmonics?: true
    Max angular momentum: 2

   => Loading Basis Set <=

    Name: (AUG-CC-PVDZ AUX)
    Role: JKFIT
    Keyword: DF_BASIS_SCF
    atoms 1-6  entry C          line   154 file /home/akrom/software/anaconda3/envs/ffpenv/share/psi4/basis/aug-cc-pvdz-jkfit.gbs 
    atoms 7-12 entry H          line    70 file /home/akrom/software/anaconda3/envs/ffpenv/share/psi4/basis/aug-cc-pvdz-jkfit.gbs 

  ==> Pre-Iterations <==

   -------------------------------------------------------
    Irrep   Nso     Nmo     Nalpha   Nbeta   Ndocc  Nsocc
   -------------------------------------------------------
     Ag        69      69       0       0       0       0
     Bg        27      27       0       0       0       0
     Au        27      27       0       0       0       0
     Bu        69      69       0       0       0       0
   -------------------------------------------------------
    Total     192     192      21      21      21       0
   -------------------------------------------------------

  ==> Integral Setup <==

  DFHelper Memory: AOs need 0.204 GiB; user supplied 0.366 GiB. Using in-core AOs.

  ==> MemDFJK: Density-Fitted J/K Matrices <==

    J tasked:                   Yes
    K tasked:                   Yes
    wK tasked:                   No
    OpenMP threads:               1
    Memory [MiB]:               375
    Algorithm:                 Core
    Schwarz Cutoff:           1E-12
    Mask sparsity (%):       0.1465
    Fitting Condition:        1E-10

   => Auxiliary Basis Set <=

  Basis Set: (AUG-CC-PVDZ AUX)
    Blend: AUG-CC-PVDZ-JKFIT
    Number of shells: 240
    Number of basis function: 708
    Number of Cartesian functions: 816
    Spherical Harmonics?: true
    Max angular momentum: 3

  Minimum eigenvalue in the overlap matrix is 2.6017390529E-06.
  Using Symmetric Orthogonalization.

  SCF Guess: Superposition of Atomic Densities via on-the-fly atomic UHF.

  ==> Iterations <==

                           Total Energy        Delta E     RMS |[F,P]|

   @DF-RHF iter SAD:  -230.00613478064491   -2.30006e+02   0.00000e+00 
   @DF-RHF iter   1:  -230.55511550398631   -5.48981e-01   4.83661e-03 DIIS
   @DF-RHF iter   2:  -230.69123184968652   -1.36116e-01   2.37068e-03 DIIS
   @DF-RHF iter   3:  -230.72440172482862   -3.31699e-02   3.82468e-04 DIIS
   @DF-RHF iter   4:  -230.72584592747424   -1.44420e-03   4.03519e-05 DIIS
   @DF-RHF iter   5:  -230.72586606558252   -2.01381e-05   7.71171e-06 DIIS
   @DF-RHF iter   6:  -230.72586683298169   -7.67399e-07   8.47784e-07 DIIS
   @DF-RHF iter   7:  -230.72586684285787   -9.87617e-09   1.53754e-07 DIIS
   @DF-RHF iter   8:  -230.72586684310610   -2.48235e-10   6.25002e-08 DIIS
   @DF-RHF iter   9:  -230.72586684314388   -3.77725e-11   1.20780e-08 DIIS
   @DF-RHF iter  10:  -230.72586684314552   -1.64846e-12   1.61131e-09 DIIS
   @DF-RHF iter  11:  -230.72586684314678   -1.25056e-12   2.06485e-10 DIIS
   @DF-RHF iter  12:  -230.72586684314530    1.47793e-12   2.00573e-11 DIIS
  Energy and wave function converged.


  ==> Post-Iterations <==

    Orbital Energies [Eh]
    ---------------------

    Doubly Occupied:                                                      

       1Ag   -11.247580     1Bu   -11.247064     2Bu   -11.247036  
       2Ag   -11.245909     3Ag   -11.245878     3Bu   -11.245329  
       4Ag    -1.146775     4Bu    -1.013324     5Bu    -1.013180  
       5Ag    -0.822557     6Ag    -0.822376     7Ag    -0.704432  
       6Bu    -0.643184     7Bu    -0.616205     8Bu    -0.585624  
       9Bu    -0.585448     1Au    -0.497850     8Ag    -0.493837  
       9Ag    -0.493499     1Bg    -0.335048     2Bg    -0.334901  

    Virtual:                                                              

      10Ag     0.035964    10Bu     0.042571    11Bu     0.042578  
      11Ag     0.057438    12Ag     0.057439    12Bu     0.076189  
       2Au     0.105485     3Au     0.105597     4Au     0.123280  
       3Bg     0.143418     4Bg     0.143427    13Bu     0.145813  
      14Bu     0.148346    15Bu     0.148370    13Ag     0.149458  
      14Ag     0.153062    15Ag     0.153069    16Bu     0.167935  
      17Bu     0.167949    16Ag     0.168538    18Bu     0.184598  
      17Ag     0.190719    18Ag     0.190726     5Bg     0.192068  
       5Au     0.198116     6Au     0.198182    19Ag     0.266376  
      19Bu     0.301259    20Bu     0.301295    20Ag     0.312983  
      21Ag     0.313009    22Ag     0.324126     7Au     0.337395  
       6Bg     0.342950    23Ag     0.354096    24Ag     0.354131  
      21Bu     0.366214    22Bu     0.376560    23Bu     0.376650  
      24Bu     0.386894    25Bu     0.408185     7Bg     0.426948  
       8Bg     0.426956    26Bu     0.429046    27Bu     0.429088  
      25Ag     0.440673    26Ag     0.440719     8Au     0.503344  
       9Au     0.503371    27Ag     0.505511     9Bg     0.562618  
      10Bg     0.569481    28Bu     0.570799    29Bu     0.571015  
      28Ag     0.584826    29Ag     0.584978    30Ag     0.591953  
      31Ag     0.596205    10Au     0.608138    32Ag     0.615199  
      30Bu     0.662071    31Bu     0.662104    32Bu     0.682976  
      11Au     0.686340    12Au     0.686385    33Bu     0.690391  
      34Bu     0.690430    33Ag     0.692479    34Ag     0.692537  
      11Bg     0.757001    12Bg     0.757049    35Bu     0.762544  
      36Bu     0.774122    35Ag     0.774772    36Ag     0.774823  
      13Au     0.840062    37Ag     0.848522    37Bu     0.849152  
      38Bu     0.849275    38Ag     0.886801    39Ag     0.886875  
      13Bg     0.920044    14Bg     0.920088    14Au     0.923996  
      15Au     0.924024    15Bg     0.956727    40Ag     0.966662  
      41Ag     0.966843    16Bg     0.977384    17Bg     0.977446  
      39Bu     0.996305    42Ag     1.006531    40Bu     1.056345  
      16Au     1.076713    41Bu     1.093918    42Bu     1.094252  
      17Au     1.177315    18Au     1.177431    43Ag     1.189383  
      43Bu     1.343605    44Bu     1.344147    18Bg     1.420131  
      19Bg     1.480587    45Bu     1.501681    46Bu     1.529180  
      47Bu     1.529670    44Ag     1.537192    45Ag     1.537334  
      19Au     1.550281    48Bu     1.585922    46Ag     1.609178  
      49Bu     1.630455    50Bu     1.630563    47Ag     1.641965  
      48Ag     1.642170    49Ag     1.644930    20Au     1.704099  
      21Au     1.704119    20Bg     1.712501    21Bg     1.712532  
      50Ag     1.783613    51Ag     1.783784    51Bu     1.783867  
      52Ag     1.831977    22Au     1.890056    23Au     1.890137  
      53Ag     1.896152    54Ag     1.933738    52Bu     1.947344  
      53Bu     1.947452    55Ag     1.966276    56Ag     1.966446  
      22Bg     1.980638    54Bu     1.989097    24Au     2.086292  
      55Bu     2.087707    56Bu     2.088064    23Bg     2.114104  
      24Bg     2.114169    25Bg     2.198270    26Bg     2.198794  
      57Ag     2.205765    58Ag     2.206087    57Bu     2.254465  
      58Bu     2.254542    59Bu     2.275727    59Ag     2.354442  
      25Au     2.360329    26Au     2.360568    60Bu     2.377598  
      60Ag     2.434078    61Ag     2.434498    27Au     2.606970  
      27Bg     2.655796    62Ag     2.765088    63Ag     2.765616  
      61Bu     2.769674    62Bu     2.770268    64Ag     2.774052  
      63Bu     2.948154    64Bu     2.949481    65Bu     2.949885  
      65Ag     3.109283    66Ag     3.109745    66Bu     3.110120  
      67Bu     3.110501    67Ag     3.357227    68Ag     3.526429  
      69Ag     3.527031    68Bu     3.841411    69Bu     4.765731  

    Final Occupation by Irrep:
             Ag    Bg    Au    Bu 
    DOCC [     9,    2,    1,    9 ]

  @DF-RHF Final Energy:  -230.72586684314530

   => Energetics <=

    Nuclear Repulsion Energy =            201.9980475612722159
    One-Electron Energy =                -710.2737607307885810
    Two-Electron Energy =                 277.5498463263710960
    Total Energy =                       -230.7258668431452975

Computation Completed


Properties will be evaluated at   0.000000,   0.000000,   0.000000 [a0]

Properties computed using the SCF density matrix

  Nuclear Dipole Moment: [e a0]
     X:     0.0000      Y:     0.0000      Z:     0.0000

  Electronic Dipole Moment: [e a0]
     X:     0.0000      Y:     0.0000      Z:     0.0000

  Dipole Moment: [e a0]
     X:     0.0000      Y:     0.0000      Z:     0.0000     Total:     0.0000

  Dipole Moment: [D]
     X:     0.0000      Y:     0.0000      Z:     0.0000     Total:     0.0000


*** tstop() called on atlantis at Tue Apr 19 23:07:37 2022
Module time:
	user time   =       3.58 seconds =       0.06 minutes
	system time =       0.08 seconds =       0.00 minutes
	total time  =          4 seconds =       0.07 minutes
Total time:
	user time   =      45.12 seconds =       0.75 minutes
	system time =       1.64 seconds =       0.03 minutes
	total time  =         47 seconds =       0.78 minutes

*** tstart() called on atlantis
*** at Tue Apr 19 23:07:37 2022


  //>>>>>>>>>>>>>>>>>>>>>>>>>>>>>>>>>>>//
  //               DFMP2               //
  //<<<<<<<<<<<<<<<<<<<<<<<<<<<<<<<<<<<//

   => Loading Basis Set <=

    Name: (AUG-CC-PVDZ AUX)
    Role: RIFIT
    Keyword: DF_BASIS_MP2
    atoms 1-6  entry C          line   112 file /home/akrom/software/anaconda3/envs/ffpenv/share/psi4/basis/aug-cc-pvdz-ri.gbs 
    atoms 7-12 entry H          line    30 file /home/akrom/software/anaconda3/envs/ffpenv/share/psi4/basis/aug-cc-pvdz-ri.gbs 

	 --------------------------------------------------------
	                          DF-MP2                         
	      2nd-Order Density-Fitted Moller-Plesset Theory     
	              RMP2 Wavefunction,   1 Threads             
	                                                         
	        Rob Parrish, Justin Turney, Andy Simmonett,      
	           Ed Hohenstein, and C. David Sherrill          
	 --------------------------------------------------------

   => Auxiliary Basis Set <=

  Basis Set: (AUG-CC-PVDZ AUX)
    Blend: AUG-CC-PVDZ-RI
    Number of shells: 186
    Number of basis function: 570
    Number of Cartesian functions: 666
    Spherical Harmonics?: true
    Max angular momentum: 3

	 --------------------------------------------------------
	                 NBF =   192, NAUX =   570
	 --------------------------------------------------------
	   CLASS    FOCC     OCC    AOCC    AVIR     VIR    FVIR
	   PAIRS       0      21      21     171     171       0
	 --------------------------------------------------------

  DFHelper Memory: AOs need 0.204 GiB; user supplied 0.366 GiB. Using in-core AOs.


         ------------------------------------------------------------
                                     CPHF                           
                                  Rob Parrish                       
         ------------------------------------------------------------

  ==> Geometry <==

    Molecular point group: c2h
    Full point group: C2h

    Geometry (in Angstrom), charge = 0, multiplicity = 1:

       Center              X                  Y                   Z               Mass       
    ------------   -----------------  -----------------  -----------------  -----------------
         C           -1.222032477591    -0.693313109608     0.000000000000    12.000000000000
         C           -1.211176745353     0.711157426160     0.000000000000    12.000000000000
         C           -0.010297435136    -1.404520535769     0.000000000000    12.000000000000
         C            0.010297435136     1.404520535769     0.000000000000    12.000000000000
         C            1.211176745353    -0.711157426160     0.000000000000    12.000000000000
         C            1.222032477591     0.693313109608     0.000000000000    12.000000000000
         H           -2.173046280225    -1.233432274252     0.000000000000     1.007825032230
         H           -2.154705373579     1.265218680005     0.000000000000     1.007825032230
         H           -0.018350906646    -2.498650954774     0.000000000000     1.007825032230
         H            0.018350906646     2.498650954774     0.000000000000     1.007825032230
         H            2.154705373579    -1.265218680005     0.000000000000     1.007825032230
         H            2.173046280225     1.233432274252     0.000000000000     1.007825032230

  Nuclear repulsion =  201.998047561272216
  Reference energy  = -230.725866843145297

  ==> Basis Set <==

  Basis Set: AUG-CC-PVDZ
    Blend: AUG-CC-PVDZ
    Number of shells: 84
    Number of basis function: 192
    Number of Cartesian functions: 204
    Spherical Harmonics?: true
    Max angular momentum: 2

  ==> CGRSolver (by Rob Parrish) <==

   Number of roots    =         1
   Preconditioning    =    JACOBI
   Convergence cutoff =     1E-06
   Maximum iterations =       100

  ==> CPHFRHamiltonian (by Rob Parrish) <== 

  ==> MemDFJK: Density-Fitted J/K Matrices <==

    J tasked:                   Yes
    K tasked:                   Yes
    wK tasked:                   No
    OpenMP threads:               1
    Memory [MiB]:               375
    Algorithm:                 Core
    Schwarz Cutoff:           1E-12
    Mask sparsity (%):       0.1465
    Fitting Condition:        1E-10

   => Auxiliary Basis Set <=

  Basis Set: (AUG-CC-PVDZ AUX)
    Blend: AUG-CC-PVDZ-JKFIT
    Number of shells: 240
    Number of basis function: 708
    Number of Cartesian functions: 816
    Spherical Harmonics?: true
    Max angular momentum: 3

  ==> CPHF Iterations <==

  => Iterations <=

             Iter  Converged  Remaining    Residual
  CGR           1          0          1   6.430E-02
  CGR           2          0          1   1.073E-02
  CGR           3          0          1   2.281E-03
  CGR           4          0          1   4.619E-04
  CGR           5          0          1   6.329E-05
  CGR           6          0          1   7.895E-06
  CGR           7          0          1   2.595E-06
  CGR           8          1          0   3.020E-07

    CGRSolver converged.

  ==> DFCorrGrad: Density-Fitted Correlated Gradients <==

    OpenMP threads:              1
    Integrals threads:           1
    Memory [GiB]:            0.366
    Schwarz Cutoff:          0E+00
    Fitting Condition:       1E-10

   => Auxiliary Basis Set <=

  Basis Set: (AUG-CC-PVDZ AUX)
    Blend: AUG-CC-PVDZ-JKFIT
    Number of shells: 240
    Number of basis function: 708
    Number of Cartesian functions: 816
    Spherical Harmonics?: true
    Max angular momentum: 3

	-----------------------------------------------------------
	 ==================> DF-MP2 Energies <==================== 
	-----------------------------------------------------------
	 Reference Energy          =    -230.7258668431452975 [Eh]
	 Singles Energy            =      -0.0000000000000000 [Eh]
	 Same-Spin Energy          =      -0.2183604807665366 [Eh]
	 Opposite-Spin Energy      =      -0.6123782100661723 [Eh]
	 Correlation Energy        =      -0.8307386908327089 [Eh]
	 Total Energy              =    -231.5566055339780007 [Eh]
	-----------------------------------------------------------
	 ================> DF-SCS-MP2 Energies <================== 
	-----------------------------------------------------------
	 SCS Same-Spin Scale       =       0.3333333333333333 [-]
	 SCS Opposite-Spin Scale   =       1.2000000000000000 [-]
	 SCS Same-Spin Energy      =      -0.0727868269221789 [Eh]
	 SCS Opposite-Spin Energy  =      -0.7348538520794068 [Eh]
	 SCS Correlation Energy    =      -0.8076406790015856 [Eh]
	 SCS Total Energy          =    -231.5335075221468912 [Eh]
	-----------------------------------------------------------


  -Total Gradient:
     Atom            X                  Y                   Z
    ------   -----------------  -----------------  -----------------
       1        0.001513513977     0.001328968885     0.000000000000
       2        0.002337614923    -0.001360585519     0.000000000000
       3        0.000363984696     0.002437868166     0.000000000000
       4       -0.000363984696    -0.002437868166     0.000000000000
       5       -0.002337614923     0.001360585519     0.000000000000
       6       -0.001513513977    -0.001328968885     0.000000000000
       7       -0.000333983674    -0.000221408163     0.000000000000
       8       -0.000625856606     0.000337813592     0.000000000000
       9       -0.000017245230    -0.000707601467     0.000000000000
      10        0.000017245230     0.000707601467     0.000000000000
      11        0.000625856606    -0.000337813592     0.000000000000
      12        0.000333983674     0.000221408163     0.000000000000


*** tstop() called on atlantis at Tue Apr 19 23:07:53 2022
Module time:
	user time   =      15.12 seconds =       0.25 minutes
	system time =       0.63 seconds =       0.01 minutes
	total time  =         16 seconds =       0.27 minutes
Total time:
	user time   =      60.24 seconds =       1.00 minutes
	system time =       2.27 seconds =       0.04 minutes
	total time  =         63 seconds =       1.05 minutes

  //>>>>>>>>>>>>>>>>>>>>>>>>>>>>>>>>>>>//
  //    Loading displacement 3 of 42   //
  //<<<<<<<<<<<<<<<<<<<<<<<<<<<<<<<<<<<//
gradient() will perform analytic gradient computation.
    SCF Algorithm Type (re)set to DF.

*** tstart() called on atlantis
*** at Tue Apr 19 23:07:53 2022

   => Loading Basis Set <=

    Name: AUG-CC-PVDZ
    Role: ORBITAL
    Keyword: BASIS
    atoms 1-6  entry C          line   178 file /home/akrom/software/anaconda3/envs/ffpenv/share/psi4/basis/aug-cc-pvdz.gbs 
    atoms 7-12 entry H          line    36 file /home/akrom/software/anaconda3/envs/ffpenv/share/psi4/basis/aug-cc-pvdz.gbs 


         ---------------------------------------------------------
                                   SCF
[...]
      5   C                0.23 -0.22  0.00    0.22  0.02  0.00   -0.00  0.00 -0.03   
      6   C               -0.24 -0.22 -0.00    0.22 -0.03 -0.00   -0.00  0.00 -0.03   
      7   H                0.33  0.05  0.00   -0.05 -0.26 -0.00   -0.00 -0.00  0.41   
      8   H               -0.33  0.05 -0.00   -0.06  0.26 -0.00    0.00 -0.00  0.41   
      9   H               -0.23 -0.00  0.00    0.00  0.36  0.00    0.00 -0.00  0.41   
     10   H                0.23  0.00  0.00   -0.00 -0.36  0.00    0.00  0.00  0.41   
     11   H                0.33 -0.05  0.00    0.06 -0.26  0.00   -0.00  0.00  0.41   
     12   H               -0.33 -0.05 -0.00    0.05  0.26 -0.00    0.00 -0.00  0.41   

  Vibration                       13                  14                  15          
  Freq [cm^-1]                 850.7850            850.8704            908.2811       
  Irrep                           Bg                  Bg                  Bg          
  Reduced mass [u]              1.2479              1.2479              1.0247        
  Force const [mDyne/A]         0.5322              0.5323              0.4981        
  Turning point v=0 [a0]        0.3368              0.3367              0.3597        
  RMS dev v=0 [a0 u^1/2]        0.2660              0.2660              0.2574        
  Char temp [K]               1224.0901           1224.2131           1306.8143       
  ----------------------------------------------------------------------------------
      1   C                0.00  0.00 -0.05    0.00 -0.00 -0.07    0.00 -0.00 -0.02   
      2   C                0.00 -0.00  0.03    0.00 -0.00 -0.08    0.00 -0.00  0.02   
      3   C                0.00 -0.00 -0.08   -0.00 -0.00  0.01   -0.00 -0.00  0.02   
      4   C               -0.00 -0.00  0.08    0.00  0.00 -0.01    0.00  0.00 -0.02   
      5   C                0.00  0.00 -0.03   -0.00  0.00  0.08   -0.00  0.00 -0.02   
      6   C               -0.00  0.00  0.05   -0.00  0.00  0.07    0.00  0.00  0.02   
      7   H                0.00  0.00  0.36   -0.00  0.00  0.45   -0.00  0.00  0.41   
      8   H                0.00 -0.00 -0.21   -0.00 -0.00  0.53   -0.00 -0.00 -0.41   
      9   H               -0.00 -0.00  0.56    0.00 -0.00 -0.09    0.00 -0.00 -0.41   
     10   H                0.00 -0.00 -0.56    0.00  0.00  0.09    0.00  0.00  0.41   
     11   H                0.00  0.00  0.21   -0.00 -0.00 -0.53   -0.00 -0.00  0.41   
     12   H               -0.00  0.00 -0.36   -0.00  0.00 -0.45   -0.00  0.00 -0.41   

  Vibration                       16                  17                  18          
  Freq [cm^-1]                 931.4862            931.5770            971.9774       
  Irrep                           Au                  Au                  Bu          
  Reduced mass [u]              1.3342              1.3341              6.5861        
  Force const [mDyne/A]         0.6820              0.6821              3.6660        
  Turning point v=0 [a0]        0.3113              0.3113              0.1371        
  RMS dev v=0 [a0 u^1/2]        0.2542              0.2542              0.2489        
  Char temp [K]               1340.2013           1340.3319           1398.4590       
  ----------------------------------------------------------------------------------
      1   C                0.00 -0.00  0.03    0.00  0.00 -0.09   -0.25 -0.14  0.00   
      2   C                0.00 -0.00  0.06    0.00  0.00  0.08    0.25 -0.15 -0.00   
      3   C               -0.00  0.00 -0.10    0.00  0.00  0.02    0.00  0.29 -0.00   
      4   C                0.00  0.00 -0.10   -0.00 -0.00  0.02    0.00  0.29  0.00   
      5   C               -0.00  0.00  0.06    0.00  0.00  0.08    0.25 -0.15 -0.00   
      6   C               -0.00 -0.00  0.03   -0.00 -0.00 -0.09   -0.25 -0.14  0.00   
      7   H                0.00 -0.00 -0.20    0.00 -0.00  0.53   -0.25 -0.14 -0.00   
      8   H                0.00  0.00 -0.36    0.00  0.00 -0.44    0.25 -0.14  0.00   
      9   H               -0.00  0.00  0.56   -0.00  0.00 -0.09    0.00  0.29 -0.00   
     10   H               -0.00  0.00  0.56   -0.00 -0.00 -0.09    0.00  0.29 -0.00   
     11   H                0.00  0.00 -0.36    0.00  0.00 -0.44    0.25 -0.14  0.00   
     12   H                0.00 -0.00 -0.20    0.00 -0.00  0.53   -0.25 -0.14 -0.00   

  Vibration                       19                  20                  21          
  Freq [cm^-1]                1013.2405           1056.8125           1057.1740       
  Irrep                           Ag                  Bu                  Bu          
  Reduced mass [u]              5.9393              1.6484              1.6482        
  Force const [mDyne/A]         3.5926              1.0847              1.0853        
  Turning point v=0 [a0]        0.1414              0.2629              0.2629        
  RMS dev v=0 [a0 u^1/2]        0.2437              0.2387              0.2386        
  Char temp [K]               1457.8275           1520.5179           1521.0380       
  ----------------------------------------------------------------------------------
      1   C                0.24  0.14  0.00   -0.03  0.08  0.00   -0.10 -0.05  0.00   
      2   C                0.24 -0.14 -0.00    0.11 -0.03 -0.00   -0.00  0.09 -0.00   
      3   C                0.00  0.27  0.00   -0.05 -0.09  0.00    0.06 -0.07  0.00   
      4   C               -0.00 -0.27  0.00   -0.05 -0.09 -0.00    0.06 -0.07  0.00   
      5   C               -0.24  0.14 -0.00    0.11 -0.03 -0.00   -0.00  0.09 -0.00   
      6   C               -0.24 -0.14  0.00   -0.03  0.08  0.00   -0.10 -0.05  0.00   
      7   H                0.27  0.15 -0.00   -0.25  0.48 -0.00   -0.14 -0.00  0.00   
      8   H                0.26 -0.15  0.00    0.21  0.12  0.00    0.21  0.46  0.00   
      9   H                0.00  0.30 -0.00   -0.33 -0.10 -0.00    0.43 -0.08 -0.00   
     10   H               -0.00 -0.30 -0.00   -0.33 -0.10 -0.00    0.43 -0.08 -0.00   
     11   H               -0.26  0.15  0.00    0.21  0.12  0.00    0.21  0.46  0.00   
     12   H               -0.27 -0.15 -0.00   -0.25  0.48 -0.00   -0.14 -0.00 -0.00   

  Vibration                       22                  23                  24          
  Freq [cm^-1]                1160.1346           1187.5097           1187.5690       
  Irrep                           Bu                  Ag                  Ag          
  Reduced mass [u]              1.0227              1.1126              1.1126        
  Force const [mDyne/A]         0.8110              0.9244              0.9245        
  Turning point v=0 [a0]        0.3186              0.3019              0.3019        
  RMS dev v=0 [a0 u^1/2]        0.2278              0.2252              0.2251        
  Char temp [K]               1669.1754           1708.5620           1708.6474       
  ----------------------------------------------------------------------------------
      1   C               -0.01  0.01 -0.00   -0.00  0.02 -0.00   -0.03  0.05  0.00   
      2   C               -0.01 -0.01  0.00    0.02  0.04 -0.00   -0.02 -0.03 -0.00   
      3   C                0.02 -0.00 -0.00    0.05 -0.00 -0.00    0.01  0.01  0.00   
      4   C                0.02 -0.00 -0.00   -0.05  0.00  0.00   -0.01 -0.01  0.00   
      5   C               -0.01 -0.01  0.00   -0.02 -0.04 -0.00    0.02  0.03 -0.00   
      6   C               -0.01  0.01 -0.00    0.00 -0.02 -0.00    0.03 -0.05  0.00   
      7   H               -0.20  0.35  0.00   -0.07  0.13  0.00   -0.28  0.48 -0.00   
      8   H               -0.21 -0.35 -0.00    0.20  0.35 -0.00   -0.21 -0.35  0.00   
      9   H                0.41 -0.00  0.00    0.56 -0.01  0.00    0.15  0.00 -0.00   
     10   H                0.41 -0.00 -0.00   -0.56  0.01 -0.00   -0.15 -0.00  0.00   
     11   H               -0.21 -0.35 -0.00   -0.20 -0.35  0.00    0.21  0.35  0.00   
     12   H               -0.20  0.35  0.00    0.07 -0.13 -0.00    0.28 -0.48 -0.00   

  Vibration                       25                  26                  27          
  Freq [cm^-1]                1326.8306           1474.6293           1474.7358       
  Irrep                           Ag                  Bu                  Bu          
  Reduced mass [u]              1.2479              2.0866              2.0877        
  Force const [mDyne/A]         1.2943              2.6734              2.6752        
  Turning point v=0 [a0]        0.2697              0.1978              0.1978        
  RMS dev v=0 [a0 u^1/2]        0.2130              0.2020              0.2020        
  Char temp [K]               1909.0138           2121.6632           2121.8164       
  ----------------------------------------------------------------------------------
      1   C               -0.03  0.05 -0.00   -0.03 -0.11 -0.00    0.11 -0.08 -0.00   
      2   C                0.03  0.05 -0.00   -0.04  0.10 -0.00   -0.11 -0.10  0.00   
      3   C               -0.06  0.00  0.00    0.15  0.01 -0.00   -0.01  0.10  0.00   
      4   C                0.06 -0.00 -0.00    0.15  0.01  0.00   -0.01  0.10  0.00   
      5   C               -0.03 -0.05  0.00   -0.04  0.10 -0.00   -0.11 -0.10 -0.00   
      6   C                0.03 -0.05 -0.00   -0.03 -0.11  0.00    0.11 -0.08 -0.00   
      7   H                0.20 -0.35  0.00   -0.23  0.21  0.00   -0.16  0.42  0.00   
      8   H               -0.20 -0.35 -0.00   -0.21 -0.15 -0.00    0.20  0.44 -0.00   
      9   H                0.40 -0.00  0.00   -0.53  0.01  0.00    0.04  0.12  0.00   
     10   H               -0.40  0.00 -0.00   -0.53  0.01 -0.00    0.04  0.12 -0.00   
     11   H                0.20  0.35 -0.00   -0.21 -0.15 -0.00    0.20  0.44 -0.00   
     12   H               -0.20  0.35  0.00   -0.23  0.21  0.00   -0.16  0.42  0.00   

  Vibration                       28                  29                  30          
  Freq [cm^-1]                1485.2305           1633.1210           1633.2148       
  Irrep                           Bu                  Ag                  Ag          
  Reduced mass [u]             10.2330              5.9940              5.9946        
  Force const [mDyne/A]        13.2997              9.4190              9.4211        
  Turning point v=0 [a0]        0.0890              0.1109              0.1109        
  RMS dev v=0 [a0 u^1/2]        0.2013              0.1920              0.1920        
  Char temp [K]               2136.9161           2349.6975           2349.8325       
  ----------------------------------------------------------------------------------
      1   C               -0.18  0.32 -0.00   -0.21  0.09 -0.00   -0.08  0.31 -0.00   
      2   C               -0.19 -0.32 -0.00    0.20  0.08  0.00   -0.09 -0.31  0.00   
      3   C                0.37 -0.00 -0.00    0.36 -0.01  0.00   -0.01 -0.16 -0.00   
      4   C                0.37 -0.00  0.00   -0.36  0.01 -0.00    0.01  0.16  0.00   
      5   C               -0.19 -0.32  0.00   -0.20 -0.08 -0.00    0.09  0.31  0.00   
      6   C               -0.18  0.32 -0.00    0.21 -0.09  0.00    0.08 -0.31 -0.00   
      7   H                0.08 -0.14  0.00   -0.03 -0.25 -0.00    0.24 -0.24  0.00   
      8   H                0.08  0.14  0.00    0.04 -0.24  0.00    0.25  0.25 -0.00   
      9   H               -0.16  0.00  0.00   -0.39 -0.00 -0.00    0.01 -0.18  0.00   
     10   H               -0.16  0.00 -0.00    0.39  0.00  0.00   -0.01  0.18 -0.00   
     11   H                0.08  0.14 -0.00   -0.04  0.24  0.00   -0.25 -0.25 -0.00   
     12   H                0.08 -0.14  0.00    0.03  0.25 -0.00   -0.24  0.24  0.00   

  Vibration                       31                  32                  33          
  Freq [cm^-1]                3192.3597           3203.2617           3203.3733       
  Irrep                           Bu                  Ag                  Ag          
  Reduced mass [u]              1.0826              1.0879              1.0879        
  Force const [mDyne/A]         6.5002              6.5770              6.5774        
  Turning point v=0 [a0]        0.1867              0.1859              0.1859        
  RMS dev v=0 [a0 u^1/2]        0.1373              0.1371              0.1371        
  Char temp [K]               4593.0948           4608.7804           4608.9410       
  ----------------------------------------------------------------------------------
      1   C                0.03  0.02 -0.00    0.03  0.02  0.00    0.03  0.02  0.00   
      2   C               -0.03  0.02  0.00   -0.04  0.02  0.00    0.01 -0.01  0.00   
      3   C               -0.00 -0.03 -0.00   -0.00  0.01  0.00   -0.00 -0.05 -0.00   
      4   C               -0.00 -0.03 -0.00    0.00 -0.01 -0.00    0.00  0.05  0.00   
      5   C               -0.03  0.02 -0.00    0.04 -0.02 -0.00   -0.01  0.01  0.00   
      6   C                0.03  0.02 -0.00   -0.03 -0.02 -0.00   -0.03 -0.02 -0.00   
      7   H               -0.35 -0.20  0.00   -0.40 -0.22 -0.00   -0.32 -0.18  0.00   
      8   H                0.35 -0.21 -0.00    0.46 -0.27  0.00   -0.17  0.10 -0.00   
      9   H                0.00  0.41  0.00    0.00 -0.11 -0.00    0.00  0.57  0.00   
     10   H                0.00  0.41 -0.00   -0.00  0.11  0.00   -0.00 -0.57 -0.00   
     11   H                0.35 -0.21 -0.00   -0.46  0.27  0.00    0.17 -0.10 -0.00   
     12   H               -0.35 -0.20 -0.00    0.40  0.22 -0.00    0.32  0.18  0.00   

  Vibration                       34                  35                  36          
  Freq [cm^-1]                3219.6126           3219.7367           3229.8258       
  Irrep                           Bu                  Bu                  Ag          
  Reduced mass [u]              1.0970              1.0970              1.1023        
  Force const [mDyne/A]         6.6999              6.7004              6.7749        
  Turning point v=0 [a0]        0.1846              0.1846              0.1839        
  RMS dev v=0 [a0 u^1/2]        0.1367              0.1367              0.1365        
  Char temp [K]               4632.3057           4632.4843           4647.0001       
  ----------------------------------------------------------------------------------
      1   C               -0.04 -0.03  0.00   -0.01 -0.00  0.00   -0.03 -0.02  0.00   
      2   C               -0.03  0.02 -0.00    0.04 -0.02  0.00   -0.03  0.02  0.00   
      3   C                0.00 -0.02  0.00   -0.00 -0.05  0.00   -0.00 -0.04 -0.00   
      4   C                0.00 -0.02  0.00   -0.00 -0.05 -0.00    0.00  0.04 -0.00   
      5   C               -0.03  0.02  0.00    0.04 -0.02 -0.00    0.03 -0.02 -0.00   
      6   C               -0.04 -0.03 -0.00   -0.01 -0.00  0.00    0.03  0.02 -0.00   
      7   H                0.50  0.28 -0.00    0.07  0.04 -0.00    0.34  0.19  0.00   
      8   H                0.30 -0.18  0.00   -0.39  0.23 -0.00    0.36 -0.21 -0.00   
      9   H               -0.00  0.21 -0.00    0.01  0.53 -0.00    0.00  0.40  0.00   
     10   H               -0.00  0.21 -0.00    0.01  0.53  0.00   -0.00 -0.40  0.00   
     11   H                0.30 -0.18 -0.00   -0.39  0.23  0.00   -0.36  0.21 -0.00   
     12   H                0.50  0.28  0.00    0.07  0.04 -0.00   -0.34 -0.19 -0.00   

  ==> Thermochemistry Components <==

  Entropy, S
    Electronic S            0.000 [cal/(mol K)]        0.000 [J/(mol K)]       0.00000000 [mEh/K] (multiplicity = 1)
    Translational S        38.979 [cal/(mol K)]      163.089 [J/(mol K)]       0.06211726 [mEh/K] (mol. weight = 78.0470 [u], P = 101325.00 [Pa])
    Rotational S           24.318 [cal/(mol K)]      101.746 [J/(mol K)]       0.03875307 [mEh/K] (symmetry no. = 2)
    Vibrational S           5.005 [cal/(mol K)]       20.942 [J/(mol K)]       0.00797645 [mEh/K]
  Total S                  68.302 [cal/(mol K)]      285.777 [J/(mol K)]       0.10884678 [mEh/K]
  Correction S              0.000 [cal/(mol K)]        0.000 [J/(mol K)]       0.00000000 [mEh/K]

  Constant volume heat capacity, Cv
    Electronic Cv           0.000 [cal/(mol K)]        0.000 [J/(mol K)]       0.00000000 [mEh/K]
    Translational Cv        2.981 [cal/(mol K)]       12.472 [J/(mol K)]       0.00475022 [mEh/K]
    Rotational Cv           2.981 [cal/(mol K)]       12.472 [J/(mol K)]       0.00475022 [mEh/K]
    Vibrational Cv         12.101 [cal/(mol K)]       50.630 [J/(mol K)]       0.01928410 [mEh/K]
  Total Cv                 18.063 [cal/(mol K)]       75.574 [J/(mol K)]       0.02878453 [mEh/K]
  Correction Cv             0.000 [cal/(mol K)]        0.000 [J/(mol K)]       0.00000000 [mEh/K]

  Constant pressure heat capacity, Cp
    Electronic Cp           0.000 [cal/(mol K)]        0.000 [J/(mol K)]       0.00000000 [mEh/K]
    Translational Cp        4.968 [cal/(mol K)]       20.786 [J/(mol K)]       0.00791703 [mEh/K]
    Rotational Cp           2.981 [cal/(mol K)]       12.472 [J/(mol K)]       0.00475022 [mEh/K]
    Vibrational Cp         12.101 [cal/(mol K)]       50.630 [J/(mol K)]       0.01928410 [mEh/K]
  Total Cp                 20.050 [cal/(mol K)]       83.888 [J/(mol K)]       0.03195134 [mEh/K]
  Correction Cp             0.000 [cal/(mol K)]        0.000 [J/(mol K)]       0.00000000 [mEh/K]

  ==> Thermochemistry Energy Analysis <==

  Raw electronic energy, E0
  Total E0, Electronic energy at well bottom at 0 [K]                 -231.55660153 [Eh]

  Zero-point energy, ZPE_vib = Sum_i nu_i / 2
    Electronic ZPE          0.000 [kcal/mol]        0.000 [kJ/mol]       0.00000000 [Eh]
    Translational ZPE       0.000 [kcal/mol]        0.000 [kJ/mol]       0.00000000 [Eh]
    Rotational ZPE          0.000 [kcal/mol]        0.000 [kJ/mol]       0.00000000 [Eh]
    Vibrational ZPE        62.376 [kcal/mol]      260.979 [kJ/mol]       0.09940172 [Eh]       21816.155 [cm^-1]
  Correction ZPE           62.376 [kcal/mol]      260.979 [kJ/mol]       0.09940172 [Eh]       21816.155 [cm^-1]
  Total ZPE, Electronic energy at 0 [K]                               -231.45719981 [Eh]

  Thermal Energy, E (includes ZPE)
    Electronic E            0.000 [kcal/mol]        0.000 [kJ/mol]       0.00000000 [Eh]
    Translational E         0.889 [kcal/mol]        3.718 [kJ/mol]       0.00141628 [Eh]
    Rotational E            0.889 [kcal/mol]        3.718 [kJ/mol]       0.00141628 [Eh]
    Vibrational E          63.477 [kcal/mol]      265.589 [kJ/mol]       0.10115755 [Eh]
  Correction E             65.255 [kcal/mol]      273.026 [kJ/mol]       0.10399010 [Eh]
  Total E, Electronic energy at  298.15 [K]                           -231.45261142 [Eh]

  Enthalpy, H_trans = E_trans + k_B * T
    Electronic H            0.000 [kcal/mol]        0.000 [kJ/mol]       0.00000000 [Eh]
    Translational H         1.481 [kcal/mol]        6.197 [kJ/mol]       0.00236046 [Eh]
    Rotational H            0.889 [kcal/mol]        3.718 [kJ/mol]       0.00141628 [Eh]
    Vibrational H          63.477 [kcal/mol]      265.589 [kJ/mol]       0.10115755 [Eh]
  Correction H             65.847 [kcal/mol]      275.505 [kJ/mol]       0.10493429 [Eh]
  Total H, Enthalpy at  298.15 [K]                                    -231.45166724 [Eh]

  Gibbs free energy, G = H - T * S
    Electronic G            0.000 [kcal/mol]        0.000 [kJ/mol]       0.00000000 [Eh]
    Translational G       -10.140 [kcal/mol]      -42.428 [kJ/mol]      -0.01615980 [Eh]
    Rotational G           -6.362 [kcal/mol]      -26.617 [kJ/mol]      -0.01013795 [Eh]
    Vibrational G          61.985 [kcal/mol]      259.345 [kJ/mol]       0.09877937 [Eh]
  Correction G             45.483 [kcal/mol]      190.300 [kJ/mol]       0.07248162 [Eh]
  Total G, Free enthalpy at  298.15 [K]                               -231.48411991 [Eh]

    Psi4 stopped on: Tuesday, 19 April 2022 11:20PM
    Psi4 wall time for execution: 0:14:02.60

*** Psi4 exiting successfully. Buy a developer a beer!
