
    -----------------------------------------------------------------------
          Psi4: An Open-Source Ab Initio Electronic Structure Package
                               Psi4 1.3.2 release

                         Git: Rev {HEAD} ecbda83 


    R. M. Parrish, L. A. Burns, D. G. A. Smith, A. C. Simmonett,
    A. E. DePrince III, E. G. Hohenstein, U. Bozkaya, A. Yu. Sokolov,
    R. Di Remigio, R. M. Richard, J. F. Gonthier, A. M. James,
    H. R. McAlexander, A. Kumar, M. Saitow, X. Wang, B. P. Pritchard,
    P. Verma, H. F. Schaefer III, K. Patkowski, R. A. King, E. F. Valeev,
    F. A. Evangelista, J. M. Turney, T. D. Crawford, and C. D. Sherrill,
    J. Chem. Theory Comput. 13(7) pp 3185--3197 (2017).
    (doi: 10.1021/acs.jctc.7b00174)


                         Additional Contributions by
    P. Kraus, H. Kruse, M. H. Lechner, M. C. Schieber, R. A. Shaw,
    A. Alenaizan, R. Galvelis, Z. L. Glick, S. Lehtola, and J. P. Misiewicz

    -----------------------------------------------------------------------


    Psi4 started on: Tuesday, 19 April 2022 02:08AM

    Process ID: 26013
    Host:       atlantis
    PSIDATADIR: /home/akrom/software/anaconda3/envs/ffpenv/share/psi4
    Memory:     500.0 MiB
    Threads:    1
    
  ==> Input File <==

--------------------------------------------------------------------------
set basis  6-31g
molecule {
0 1
   C       -0.61446        0.00000        0.00000
   C        0.61446        0.00000        0.00000
   H       -1.68923        0.00000        0.00000
   H        1.68923        0.00000        0.00000
}
energy('m06-2x')
frequencies('m06-2x')
--------------------------------------------------------------------------

*** tstart() called on atlantis
*** at Tue Apr 19 02:08:21 2022

   => Loading Basis Set <=

    Name: 6-31G
    Role: ORBITAL
    Keyword: BASIS
    atoms 1-2 entry C          line    87 file /home/akrom/software/anaconda3/envs/ffpenv/share/psi4/basis/6-31g.gbs 
    atoms 3-4 entry H          line    26 file /home/akrom/software/anaconda3/envs/ffpenv/share/psi4/basis/6-31g.gbs 


         ---------------------------------------------------------
                                   SCF
               by Justin Turney, Rob Parrish, Andy Simmonett
                          and Daniel G. A. Smith
                              RKS Reference
                        1 Threads,    500 MiB Core
         ---------------------------------------------------------

  ==> Geometry <==

    Molecular point group: d2h
    Full point group: D_inf_h

    Geometry (in Angstrom), charge = 0, multiplicity = 1:

       Center              X                  Y                   Z               Mass       
    ------------   -----------------  -----------------  -----------------  -----------------
         C           -0.614460000000    -0.000000000000     0.000000000000    12.000000000000
         C            0.614460000000     0.000000000000     0.000000000000    12.000000000000
         H           -1.689230000000    -0.000000000000     0.000000000000     1.007825032230
         H            1.689230000000     0.000000000000     0.000000000000     1.007825032230

  Running in d2h symmetry.

  Rotational constants: A = ************  B =      1.13802  C =      1.13802 [cm^-1]
  Rotational constants: A = ************  B =  34116.98697  C =  34116.98697 [MHz]
  Nuclear repulsion =   24.323218171379235

  Charge       = 0
  Multiplicity = 1
  Electrons    = 14
  Nalpha       = 7
  Nbeta        = 7

  ==> Algorithm <==

  SCF Algorithm Type is DF.
  DIIS enabled.
  MOM disabled.
  Fractional occupation disabled.
  Guess Type is SAD.
  Energy threshold   = 1.00e-06
  Density threshold  = 1.00e-06
  Integral threshold = 0.00e+00

  ==> Primary Basis <==

  Basis Set: 6-31G
    Blend: 6-31G
    Number of shells: 14
    Number of basis function: 22
    Number of Cartesian functions: 22
    Spherical Harmonics?: false
    Max angular momentum: 1

  ==> DFT Potential <==

   => Composite Functional: M06-2X <= 

    Hybrid M06-2X Meta-GGA XC Functional

    Y. Zhao and D. G. Truhlar,  Theor. Chem. Acc., 120, 215, 2008


    Deriv               =              1
    GGA                 =           TRUE
    Meta                =           TRUE

    Exchange Hybrid     =           TRUE
    MP2 Hybrid          =          FALSE

   => Exchange Functionals <=

    1.0000   XC_HYB_MGGA_X_M06_2X

   => Exact (HF) Exchange <=

    0.5400               HF 

   => Correlation Functionals <=

    1.0000   XC_MGGA_C_M06_2X

   => Molecular Quadrature <=

    Radial Scheme          =       TREUTLER
    Pruning Scheme         =           FLAT
    Nuclear Scheme         =       TREUTLER

    BS radius alpha        =              1
    Pruning alpha          =              1
    Radial Points          =             75
    Spherical Points       =            302
    Total Points           =          86838
    Total Blocks           =            730
    Max Points             =            255
    Max Functions          =             22

   => Loading Basis Set <=

    Name: (6-31G AUX)
    Role: JKFIT
    Keyword: DF_BASIS_SCF
    atoms 1-2 entry C          line   121 file /home/akrom/software/anaconda3/envs/ffpenv/share/psi4/basis/cc-pvdz-jkfit.gbs 
    atoms 3-4 entry H          line    51 file /home/akrom/software/anaconda3/envs/ffpenv/share/psi4/basis/cc-pvdz-jkfit.gbs 

  ==> Pre-Iterations <==

   -------------------------------------------------------
    Irrep   Nso     Nmo     Nalpha   Nbeta   Ndocc  Nsocc
   -------------------------------------------------------
     Ag         7       7       0       0       0       0
     B1g        2       2       0       0       0       0
     B2g        2       2       0       0       0       0
     B3g        0       0       0       0       0       0
     Au         0       0       0       0       0       0
     B1u        2       2       0       0       0       0
     B2u        2       2       0       0       0       0
     B3u        7       7       0       0       0       0
   -------------------------------------------------------
    Total      22      22       7       7       7       0
   -------------------------------------------------------

  ==> Integral Setup <==

  DFHelper Memory: AOs need 0.001 GiB; user supplied 0.233 GiB. Using in-core AOs.

  ==> MemDFJK: Density-Fitted J/K Matrices <==

    J tasked:                   Yes
    K tasked:                   Yes
    wK tasked:                   No
    OpenMP threads:               1
    Memory [MiB]:               238
    Algorithm:                 Core
    Schwarz Cutoff:           1E-12
    Mask sparsity (%):       0.0000
    Fitting Condition:        1E-10

   => Auxiliary Basis Set <=

  Basis Set: (6-31G AUX)
    Blend: CC-PVDZ-JKFIT
    Number of shells: 66
    Number of basis function: 212
    Number of Cartesian functions: 212
    Spherical Harmonics?: false
    Max angular momentum: 3

  Cached 100.0% of DFT collocation blocks in 0.133 [GiB].

  Minimum eigenvalue in the overlap matrix is 1.3292833189E-03.
  Using Symmetric Orthogonalization.

  SCF Guess: Superposition of Atomic Densities via on-the-fly atomic UHF.

  ==> Iterations <==

                           Total Energy        Delta E     RMS |[F,P]|

   @DF-RKS iter SAD:   -76.62617827536506   -7.66262e+01   0.00000e+00 
   @DF-RKS iter   1:   -77.21502575567678   -5.88847e-01   2.82867e-02 DIIS
   @DF-RKS iter   2:   -77.25318914483320   -3.81634e-02   1.68336e-02 DIIS
   @DF-RKS iter   3:   -77.27273790844178   -1.95488e-02   1.02892e-04 DIIS
   @DF-RKS iter   4:   -77.27273895638292   -1.04794e-06   8.60392e-06 DIIS
   @DF-RKS iter   5:   -77.27273896612255   -9.73962e-09   1.12536e-06 DIIS
   @DF-RKS iter   6:   -77.27273896628981   -1.67262e-10   1.02509e-07 DIIS
  Energy and wave function converged.


  ==> Post-Iterations <==

    Orbital Energies [Eh]
    ---------------------

    Doubly Occupied:                                                      

       1Ag   -10.558120     1B3u  -10.555938     2Ag    -0.839130  
       2B3u   -0.635998     3Ag    -0.556102     1B2u   -0.341927  
       1B1u   -0.341927  

    Virtual:                                                              

       1B1g    0.092600     1B2g    0.092600     3B3u    0.151630  
       4Ag     0.199497     4B3u    0.470030     5Ag     0.535626  
       2B1u    0.597015     2B2u    0.597015     2B2g    0.710087  
       2B1g    0.710087     5B3u    0.810029     6Ag     0.884939  
       7Ag     1.083036     6B3u    1.257860     7B3u    1.586126  

    Final Occupation by Irrep:
             Ag   B1g   B2g   B3g    Au   B1u   B2u   B3u 
    DOCC [     3,    0,    0,    0,    0,    1,    1,    2 ]

  @DF-RKS Final Energy:   -77.27273896628981

   => Energetics <=

    Nuclear Repulsion Energy =             24.3232181713792350
    One-Electron Energy =                -150.9815689456991663
    Two-Electron Energy =                  54.9060836203044431
    DFT Exchange-Correlation Energy =      -5.5204718122743124
    Empirical Dispersion Energy =           0.0000000000000000
    VV10 Nonlocal Energy =                  0.0000000000000000
    Total Energy =                        -77.2727389662897934

Computation Completed


Properties will be evaluated at   0.000000,   0.000000,   0.000000 [a0]

Properties computed using the SCF density matrix

  Nuclear Dipole Moment: [e a0]
     X:     0.0000      Y:     0.0000      Z:     0.0000

  Electronic Dipole Moment: [e a0]
     X:     0.0000      Y:     0.0000      Z:     0.0000

  Dipole Moment: [e a0]
     X:     0.0000      Y:     0.0000      Z:     0.0000     Total:     0.0000

  Dipole Moment: [D]
     X:     0.0000      Y:     0.0000      Z:     0.0000     Total:     0.0000


*** tstop() called on atlantis at Tue Apr 19 02:08:23 2022
Module time:
	user time   =       1.58 seconds =       0.03 minutes
	system time =       0.04 seconds =       0.00 minutes
	total time  =          2 seconds =       0.03 minutes
Total time:
	user time   =       1.58 seconds =       0.03 minutes
	system time =       0.04 seconds =       0.00 minutes
	total time  =          2 seconds =       0.03 minutes
gradient() will perform analytic gradient computation.

*** tstart() called on atlantis
*** at Tue Apr 19 02:08:23 2022

   => Loading Basis Set <=

    Name: 6-31G
    Role: ORBITAL
    Keyword: BASIS
    atoms 1-2 entry C          line    87 file /home/akrom/software/anaconda3/envs/ffpenv/share/psi4/basis/6-31g.gbs 
    atoms 3-4 entry H          line    26 file /home/akrom/software/anaconda3/envs/ffpenv/share/psi4/basis/6-31g.gbs 


         ---------------------------------------------------------
                                   SCF
               by Justin Turney, Rob Parrish, Andy Simmonett
                          and Daniel G. A. Smith
                              RKS Reference
                        1 Threads,    500 MiB Core
         ---------------------------------------------------------

  ==> Geometry <==

    Molecular point group: d2h
    Full point group: D_inf_h

    Geometry (in Angstrom), charge = 0, multiplicity = 1:

       Center              X                  Y                   Z               Mass       
    ------------   -----------------  -----------------  -----------------  -----------------
         C           -0.614460000000    -0.000000000000     0.000000000000    12.000000000000
         C            0.614460000000     0.000000000000     0.000000000000    12.000000000000
         H           -1.689230000000    -0.000000000000     0.000000000000     1.007825032230
         H            1.689230000000     0.000000000000     0.000000000000     1.007825032230

  Running in d2h symmetry.

  Rotational constants: A = ************  B =      1.13802  C =      1.13802 [cm^-1]
  Rotational constants: A = ************  B =  34116.98697  C =  34116.98697 [MHz]
  Nuclear repulsion =   24.323218171379235

  Charge       = 0
  Multiplicity = 1
  Electrons    = 14
  Nalpha       = 7
  Nbeta        = 7

  ==> Algorithm <==

  SCF Algorithm Type is DF.
  DIIS enabled.
  MOM disabled.
  Fractional occupation disabled.
  Guess Type is SAD.
  Energy threshold   = 1.00e-08
  Density threshold  = 1.00e-08
  Integral threshold = 0.00e+00

  ==> Primary Basis <==

  Basis Set: 6-31G
    Blend: 6-31G
    Number of shells: 14
    Number of basis function: 22
    Number of Cartesian functions: 22
    Spherical Harmonics?: false
    Max angular momentum: 1

  ==> DFT Potential <==

   => Composite Functional: M06-2X <= 

    Hybrid M06-2X Meta-GGA XC Functional

    Y. Zhao and D. G. Truhlar,  Theor. Chem. Acc., 120, 215, 2008


    Deriv               =              1
    GGA                 =           TRUE
    Meta                =           TRUE

    Exchange Hybrid     =           TRUE
    MP2 Hybrid          =          FALSE

   => Exchange Functionals <=

    1.0000   XC_HYB_MGGA_X_M06_2X

   => Exact (HF) Exchange <=

    0.5400               HF 

   => Correlation Functionals <=

    1.0000   XC_MGGA_C_M06_2X

   => Molecular Quadrature <=

    Radial Scheme          =       TREUTLER
    Pruning Scheme         =           FLAT
    Nuclear Scheme         =       TREUTLER

    BS radius alpha        =              1
    Pruning alpha          =              1
    Radial Points          =             75
    Spherical Points       =            302
    Total Points           =          86838
    Total Blocks           =            730
    Max Points             =            255
    Max Functions          =             22

   => Loading Basis Set <=

    Name: (6-31G AUX)
    Role: JKFIT
    Keyword: DF_BASIS_SCF
    atoms 1-2 entry C          line   121 file /home/akrom/software/anaconda3/envs/ffpenv/share/psi4/basis/cc-pvdz-jkfit.gbs 
    atoms 3-4 entry H          line    51 file /home/akrom/software/anaconda3/envs/ffpenv/share/psi4/basis/cc-pvdz-jkfit.gbs 

  ==> Pre-Iterations <==

   -------------------------------------------------------
    Irrep   Nso     Nmo     Nalpha   Nbeta   Ndocc  Nsocc
   -------------------------------------------------------
     Ag         7       7       0       0       0       0
     B1g        2       2       0       0       0       0
     B2g        2       2       0       0       0       0
     B3g        0       0       0       0       0       0
     Au         0       0       0       0       0       0
     B1u        2       2       0       0       0       0
     B2u        2       2       0       0       0       0
     B3u        7       7       0       0       0       0
   -------------------------------------------------------
    Total      22      22       7       7       7       0
   -------------------------------------------------------

  ==> Integral Setup <==

  DFHelper Memory: AOs need 0.001 GiB; user supplied 0.233 GiB. Using in-core AOs.

  ==> MemDFJK: Density-Fitted J/K Matrices <==

    J tasked:                   Yes
    K tasked:                   Yes
    wK tasked:                   No
    OpenMP threads:               1
    Memory [MiB]:               238
    Algorithm:                 Core
    Schwarz Cutoff:           1E-12
    Mask sparsity (%):       0.0000
    Fitting Condition:        1E-10

   => Auxiliary Basis Set <=

  Basis Set: (6-31G AUX)
    Blend: CC-PVDZ-JKFIT
    Number of shells: 66
    Number of basis function: 212
    Number of Cartesian functions: 212
    Spherical Harmonics?: false
    Max angular momentum: 3

  Cached 100.0% of DFT collocation blocks in 0.133 [GiB].

  Minimum eigenvalue in the overlap matrix is 1.3292833189E-03.
  Using Symmetric Orthogonalization.

  SCF Guess: Superposition of Atomic Densities via on-the-fly atomic UHF.

  ==> Iterations <==

                           Total Energy        Delta E     RMS |[F,P]|

   @DF-RKS iter SAD:   -76.62617827536506   -7.66262e+01   0.00000e+00 
   @DF-RKS iter   1:   -77.21502575567678   -5.88847e-01   2.82867e-02 DIIS
   @DF-RKS iter   2:   -77.25318914483320   -3.81634e-02   1.68336e-02 DIIS
   @DF-RKS iter   3:   -77.27273790844178   -1.95488e-02   1.02892e-04 DIIS
   @DF-RKS iter   4:   -77.27273895638292   -1.04794e-06   8.60392e-06 DIIS
   @DF-RKS iter   5:   -77.27273896612255   -9.73962e-09   1.12536e-06 DIIS
   @DF-RKS iter   6:   -77.27273896628981   -1.67262e-10   1.02509e-07 DIIS
   @DF-RKS iter   7:   -77.27273896629113   -1.32161e-12   3.74296e-09 DIIS
  Energy and wave function converged.


  ==> Post-Iterations <==

    Orbital Energies [Eh]
    ---------------------

    Doubly Occupied:                                                      

       1Ag   -10.558120     1B3u  -10.555938     2Ag    -0.839130  
       2B3u   -0.635998     3Ag    -0.556102     1B2u   -0.341927  
       1B1u   -0.341927  

    Virtual:                                                              

       1B1g    0.092600     1B2g    0.092600     3B3u    0.151630  
       4Ag     0.199497     4B3u    0.470030     5Ag     0.535626  
       2B1u    0.597015     2B2u    0.597015     2B2g    0.710087  
       2B1g    0.710087     5B3u    0.810029     6Ag     0.884939  
       7Ag     1.083036     6B3u    1.257860     7B3u    1.586126  

    Final Occupation by Irrep:
             Ag   B1g   B2g   B3g    Au   B1u   B2u   B3u 
    DOCC [     3,    0,    0,    0,    0,    1,    1,    2 ]

  @DF-RKS Final Energy:   -77.27273896629113

   => Energetics <=

    Nuclear Repulsion Energy =             24.3232181713792350
    One-Electron Energy =                -150.9815674260354399
    Two-Electron Energy =                  54.9060819429088554
    DFT Exchange-Correlation Energy =      -5.5204716545437877
    Empirical Dispersion Energy =           0.0000000000000000
    VV10 Nonlocal Energy =                  0.0000000000000000
    Total Energy =                        -77.2727389662911293

Computation Completed


Properties will be evaluated at   0.000000,   0.000000,   0.000000 [a0]

Properties computed using the SCF density matrix

  Nuclear Dipole Moment: [e a0]
     X:     0.0000      Y:     0.0000      Z:     0.0000

  Electronic Dipole Moment: [e a0]
     X:     0.0000      Y:     0.0000      Z:     0.0000

  Dipole Moment: [e a0]
     X:     0.0000      Y:     0.0000      Z:     0.0000     Total:     0.0000

  Dipole Moment: [D]
     X:     0.0000      Y:     0.0000      Z:     0.0000     Total:     0.0000


*** tstop() called on atlantis at Tue Apr 19 02:08:25 2022
Module time:
	user time   =       1.73 seconds =       0.03 minutes
	system time =       0.01 seconds =       0.00 minutes
	total time  =          2 seconds =       0.03 minutes
Total time:
	user time   =       3.31 seconds =       0.06 minutes
	system time =       0.05 seconds =       0.00 minutes
	total time  =          4 seconds =       0.07 minutes

*** tstart() called on atlantis
*** at Tue Apr 19 02:08:25 2022


         ------------------------------------------------------------
                                   SCF GRAD                          
                          Rob Parrish, Justin Turney,                
                       Andy Simmonett, and Alex Sokolov              
         ------------------------------------------------------------

  ==> Geometry <==

    Molecular point group: d2h
    Full point group: D_inf_h

    Geometry (in Angstrom), charge = 0, multiplicity = 1:

       Center              X                  Y                   Z               Mass       
    ------------   -----------------  -----------------  -----------------  -----------------
         C           -0.614460000000    -0.000000000000     0.000000000000    12.000000000000
         C            0.614460000000     0.000000000000     0.000000000000    12.000000000000
         H           -1.689230000000    -0.000000000000     0.000000000000     1.007825032230
         H            1.689230000000     0.000000000000     0.000000000000     1.007825032230

  Nuclear repulsion =   24.323218171379235

  ==> Basis Set <==

  Basis Set: 6-31G
    Blend: 6-31G
    Number of shells: 14
    Number of basis function: 22
    Number of Cartesian functions: 22
    Spherical Harmonics?: false
    Max angular momentum: 1

  ==> DFJKGrad: Density-Fitted SCF Gradients <==

    Gradient:                    1
    J tasked:                  Yes
    K tasked:                  Yes
    wK tasked:                  No
    OpenMP threads:              1
    Integrals threads:           1
    Memory [MiB]:              375
    Schwarz Cutoff:          0E+00
    Fitting Condition:       1E-10

   => Auxiliary Basis Set <=

  Basis Set: (6-31G AUX)
    Blend: CC-PVDZ-JKFIT
    Number of shells: 66
    Number of basis function: 212
    Number of Cartesian functions: 212
    Spherical Harmonics?: false
    Max angular momentum: 3

  ==> DFT Potential <==

   => Composite Functional: M06-2X <= 

    Hybrid M06-2X Meta-GGA XC Functional

    Y. Zhao and D. G. Truhlar,  Theor. Chem. Acc., 120, 215, 2008


    Deriv               =              1
    GGA                 =           TRUE
    Meta                =           TRUE

    Exchange Hybrid     =           TRUE
    MP2 Hybrid          =          FALSE

   => Exchange Functionals <=

    1.0000   XC_HYB_MGGA_X_M06_2X

   => Exact (HF) Exchange <=

    0.5400               HF 

   => Correlation Functionals <=

    1.0000   XC_MGGA_C_M06_2X

   => Molecular Quadrature <=

    Radial Scheme          =       TREUTLER
    Pruning Scheme         =           FLAT
    Nuclear Scheme         =       TREUTLER

    BS radius alpha        =              1
    Pruning alpha          =              1
    Radial Points          =             75
    Spherical Points       =            302
    Total Points           =          86838
    Total Blocks           =            730
    Max Points             =            255
    Max Functions          =             22


  -Total Gradient:
     Atom            X                  Y                   Z
    ------   -----------------  -----------------  -----------------
       1       -0.037083495931    -0.000000000000     0.000000000000
       2        0.037083495931     0.000000000000     0.000000000000
       3       -0.007557771803    -0.000000000000     0.000000000000
       4        0.007557771803     0.000000000000     0.000000000000


*** tstop() called on atlantis at Tue Apr 19 02:08:25 2022
Module time:
	user time   =       0.31 seconds =       0.01 minutes
	system time =       0.00 seconds =       0.00 minutes
	total time  =          0 seconds =       0.00 minutes
Total time:
	user time   =       3.63 seconds =       0.06 minutes
	system time =       0.05 seconds =       0.00 minutes
	total time  =          4 seconds =       0.07 minutes

  Based on options and gradient (rms=1.55E-02), recommend projecting translations and not projecting rotations.
hessian() will perform frequency computation by finite difference of analytic gradients.

         ----------------------------------------------------------
                                   FINDIF
                     R. A. King and Jonathon Misiewicz
         ---------------------------------------------------------

  Using finite-differences of gradients to determine vibrational frequencies and 
  normal modes.  Resulting frequencies are only valid at stationary points.
    Generating geometries for use with 3-point formula.
    Displacement size will be 5.00e-03.
    Number of atoms is 4.
    Number of irreps is 8.
    Number of SALCs is 9.
    Translations projected? 1. Rotations projected? 0.
    Index of SALCs per irrep:
     1 :  0  1 
     2 :  2  3 
     3 :  4  5 
     4 : 
     5 : 
     6 :  6 
     7 :  7 
     8 :  8 
    Number of SALCs per irrep:
     Irrep 1: 2
     Irrep 2: 2
     Irrep 3: 2
     Irrep 4: 0
     Irrep 5: 0
     Irrep 6: 1
     Irrep 7: 1
     Irrep 8: 1
    Number of geometries (including reference) is 12.
    Number of displacements per irrep:
      Irrep 1: 4
      Irrep 2: 2
      Irrep 3: 2
      Irrep 4: 0
      Irrep 5: 0
      Irrep 6: 1
      Irrep 7: 1
      Irrep 8: 1

  //>>>>>>>>>>>>>>>>>>>>>>>>>>>>>>>>>>>//
  //    Loading displacement 1 of 12   //
  //<<<<<<<<<<<<<<<<<<<<<<<<<<<<<<<<<<<//
gradient() will perform analytic gradient computation.

*** tstart() called on atlantis
*** at Tue Apr 19 02:08:25 2022

   => Loading Basis Set <=

    Name: 6-31G
    Role: ORBITAL
    Keyword: BASIS
    atoms 1-2 entry C          line    87 file /home/akrom/software/anaconda3/envs/ffpenv/share/psi4/basis/6-31g.gbs 
    atoms 3-4 entry H          line    26 file /home/akrom/software/anaconda3/envs/ffpenv/share/psi4/basis/6-31g.gbs 


         ---------------------------------------------------------
                                   SCF
               by Justin Turney, Rob Parrish, Andy Simmonett
                          and Daniel G. A. Smith
                              RKS Reference
                        1 Threads,    500 MiB Core
         ---------------------------------------------------------

  ==> Geometry <==

    Molecular point group: d2h
    Full point group: D_inf_h

    Geometry (in Angstrom), charge = 0, multiplicity = 1:

       Center              X                  Y                   Z               Mass       
    ------------   -----------------  -----------------  -----------------  -----------------
         C           -0.614460000000    -0.000000000000     0.000000000000    12.000000000000
         C            0.614460000000     0.000000000000     0.000000000000    12.000000000000
         H           -1.689230000000    -0.000000000000     0.000000000000     1.007825032230
         H            1.689230000000     0.000000000000     0.000000000000     1.007825032230

  Running in d2h symmetry.

  Rotational constants: A = ************  B =      1.13802  C =      1.13802 [cm^-1]
  Rotational constants: A = ************  B =  34116.98697  C =  34116.98697 [MHz]
  Nuclear repulsion =   24.323218171379235

  Charge       = 0
  Multiplicity = 1
  Electrons    = 14
  Nalpha       = 7
  Nbeta        = 7

  ==> Algorithm <==

  SCF Algorithm Type is DF.
  DIIS enabled.
  MOM disabled.
  Fractional occupation disabled.
  Guess Type is SAD.
  Energy threshold   = 1.00e-08
  Density threshold  = 1.00e-08
  Integral threshold = 0.00e+00

  ==> Primary Basis <==

  Basis Set: 6-31G
    Blend: 6-31G
    Number of shells: 14
    Number of basis function: 22
    Number of Cartesian functions: 22
    Spherical Harmonics?: false
    Max angular momentum: 1

  ==> DFT Potential <==

   => Composite Functional: M06-2X <= 

    Hybrid M06-2X Meta-GGA XC Functional

    Y. Zhao and D. G. Truhlar,  Theor. Chem. Acc., 120, 215, 2008


    Deriv               =              1
    GGA                 =           TRUE
    Meta                =           TRUE

    Exchange Hybrid     =           TRUE
    MP2 Hybrid          =          FALSE

   => Exchange Functionals <=

    1.0000   XC_HYB_MGGA_X_M06_2X

   => Exact (HF) Exchange <=

    0.5400               HF 

   => Correlation Functionals <=

    1.0000   XC_MGGA_C_M06_2X

   => Molecular Quadrature <=

    Radial Scheme          =       TREUTLER
    Pruning Scheme         =           FLAT
    Nuclear Scheme         =       TREUTLER

    BS radius alpha        =              1
    Pruning alpha          =              1
    Radial Points          =             75
    Spherical Points       =            302
    Total Points           =          86838
    Total Blocks           =            730
    Max Points             =            255
    Max Functions          =             22

   => Loading Basis Set <=

    Name: (6-31G AUX)
    Role: JKFIT
    Keyword: DF_BASIS_SCF
    atoms 1-2 entry C          line   121 file /home/akrom/software/anaconda3/envs/ffpenv/share/psi4/basis/cc-pvdz-jkfit.gbs 
    atoms 3-4 entry H          line    51 file /home/akrom/software/anaconda3/envs/ffpenv/share/psi4/basis/cc-pvdz-jkfit.gbs 

  ==> Pre-Iterations <==

   -------------------------------------------------------
    Irrep   Nso     Nmo     Nalpha   Nbeta   Ndocc  Nsocc
   -------------------------------------------------------
     Ag         7       7       0       0       0       0
     B1g        2       2       0       0       0       0
     B2g        2       2       0       0       0       0
     B3g        0       0       0       0       0       0
     Au         0       0       0       0       0       0
     B1u        2       2       0       0       0       0
     B2u        2       2       0       0       0       0
     B3u        7       7       0       0       0       0
   -------------------------------------------------------
    Total      22      22       7       7       7       0
   -------------------------------------------------------

  ==> Integral Setup <==

  DFHelper Memory: AOs need 0.001 GiB; user supplied 0.233 GiB. Using in-core AOs.

  ==> MemDFJK: Density-Fitted J/K Matrices <==

    J tasked:                   Yes
    K tasked:                   Yes
    wK tasked:                   No
    OpenMP threads:               1
    Memory [MiB]:               238
    Algorithm:                 Core
    Schwarz Cutoff:           1E-12
    Mask sparsity (%):       0.0000
    Fitting Condition:        1E-10

   => Auxiliary Basis Set <=

  Basis Set: (6-31G AUX)
    Blend: CC-PVDZ-JKFIT
    Number of shells: 66
    Number of basis function: 212
    Number of Cartesian functions: 212
    Spherical Harmonics?: false
    Max angular momentum: 3

  Cached 100.0% of DFT collocation blocks in 0.133 [GiB].

  Minimum eigenvalue in the overlap matrix is 1.3292833189E-03.
  Using Symmetric Orthogonalization.

  SCF Guess: Superposition of Atomic Densities via on-the-fly atomic UHF.

  ==> Iterations <==

                           Total Energy        Delta E     RMS |[F,P]|

   @DF-RKS iter SAD:   -76.62617827536506   -7.66262e+01   0.00000e+00 
   @DF-RKS iter   1:   -77.21502575567678   -5.88847e-01   2.82867e-02 DIIS
   @DF-RKS iter   2:   -77.25318914483320   -3.81634e-02   1.68336e-02 DIIS
   @DF-RKS iter   3:   -77.27273790844178   -1.95488e-02   1.02892e-04 DIIS
   @DF-RKS iter   4:   -77.27273895638292   -1.04794e-06   8.60392e-06 DIIS
   @DF-RKS iter   5:   -77.27273896612255   -9.73962e-09   1.12536e-06 DIIS
   @DF-RKS iter   6:   -77.27273896628981   -1.67262e-10   1.02509e-07 DIIS
   @DF-RKS iter   7:   -77.27273896629113   -1.32161e-12   3.74296e-09 DIIS
  Energy and wave function converged.


  ==> Post-Iterations <==

    Orbital Energies [Eh]
    ---------------------

    Doubly Occupied:                                                      

       1Ag   -10.558120     1B3u  -10.555938     2Ag    -0.839130  
       2B3u   -0.635998     3Ag    -0.556102     1B2u   -0.341927  
       1B1u   -0.341927  

    Virtual:                                                              

       1B1g    0.092600     1B2g    0.092600     3B3u    0.151630  
       4Ag     0.199497     4B3u    0.470030     5Ag     0.535626  
       2B1u    0.597015     2B2u    0.597015     2B2g    0.710087  
       2B1g    0.710087     5B3u    0.810029     6Ag     0.884939  
       7Ag     1.083036     6B3u    1.257860     7B3u    1.586126  

    Final Occupation by Irrep:
             Ag   B1g   B2g   B3g    Au   B1u   B2u   B3u 
    DOCC [     3,    0,    0,    0,    0,    1,    1,    2 ]

  @DF-RKS Final Energy:   -77.27273896629113

   => Energetics <=

    Nuclear Repulsion Energy =             24.3232181713792350
    One-Electron Energy =                -150.9815674260354399
    Two-Electron Energy =                  54.9060819429088554
    DFT Exchange-Correlation Energy =      -5.5204716545437877
    Empirical Dispersion Energy =           0.0000000000000000
    VV10 Nonlocal Energy =                  0.0000000000000000
    Total Energy =                        -77.2727389662911293

Computation Completed


Properties will be evaluated at   0.000000,   0.000000,   0.000000 [a0]

Properties computed using the SCF density matrix

  Nuclear Dipole Moment: [e a0]
     X:     0.0000      Y:     0.0000      Z:     0.0000

  Electronic Dipole Moment: [e a0]
     X:     0.0000      Y:     0.0000      Z:     0.0000

  Dipole Moment: [e a0]
     X:     0.0000      Y:     0.0000      Z:     0.0000     Total:     0.0000

  Dipole Moment: [D]
     X:     0.0000      Y:     0.0000      Z:     0.0000     Total:     0.0000


*** tstop() called on atlantis at Tue Apr 19 02:08:27 2022
Module time:
	user time   =       1.73 seconds =       0.03 minutes
	system time =       0.01 seconds =       0.00 minutes
	total time  =          2 seconds =       0.03 minutes
Total time:
	user time   =       5.63 seconds =       0.09 minutes
	system time =       0.08 seconds =       0.00 minutes
	total time  =          6 seconds =       0.10 minutes

*** tstart() called on atlantis
*** at Tue Apr 19 02:08:27 2022


         ------------------------------------------------------------
                                   SCF GRAD                          
                          Rob Parrish, Justin Turney,                
                       Andy Simmonett, and Alex Sokolov              
         ------------------------------------------------------------

  ==> Geometry <==

    Molecular point group: d2h
    Full point group: D_inf_h

    Geometry (in Angstrom), charge = 0, multiplicity = 1:

       Center              X                  Y                   Z               Mass       
    ------------   -----------------  -----------------  -----------------  -----------------
         C           -0.614460000000    -0.000000000000     0.000000000000    12.000000000000
         C            0.614460000000     0.000000000000     0.000000000000    12.000000000000
         H           -1.689230000000    -0.000000000000     0.000000000000     1.007825032230
         H            1.689230000000     0.000000000000     0.000000000000     1.007825032230

  Nuclear repulsion =   24.323218171379235

  ==> Basis Set <==

  Basis Set: 6-31G
    Blend: 6-31G
    Number of shells: 14
    Number of basis function: 22
    Number of Cartesian functions: 22
    Spherical Harmonics?: false
    Max angular momentum: 1

  ==> DFJKGrad: Density-Fitted SCF Gradients <==

    Gradient:                    1
    J tasked:                  Yes
    K tasked:                  Yes
    wK tasked:                  No
    OpenMP threads:              1
    Integrals threads:           1
    Memory [MiB]:              375
    Schwarz Cutoff:          0E+00
    Fitting Condition:       1E-10

   => Auxiliary Basis Set <=

  Basis Set: (6-31G AUX)
    Blend: CC-PVDZ-JKFIT
    Number of shells: 66
    Number of basis function: 212
    Number of Cartesian functions: 212
    Spherical Harmonics?: false
    Max angular momentum: 3

  ==> DFT Potential <==

   => Composite Functional: M06-2X <= 

    Hybrid M06-2X Meta-GGA XC Functional

    Y. Zhao and D. G. Truhlar,  Theor. Chem. Acc., 120, 215, 2008


    Deriv               =              1
    GGA                 =           TRUE
    Meta                =           TRUE

    Exchange Hybrid     =           TRUE
    MP2 Hybrid          =          FALSE

   => Exchange Functionals <=

    1.0000   XC_HYB_MGGA_X_M06_2X

   => Exact (HF) Exchange <=

    0.5400               HF 

   => Correlation Functionals <=

    1.0000   XC_MGGA_C_M06_2X

   => Molecular Quadrature <=

    Radial Scheme          =       TREUTLER
    Pruning Scheme         =           FLAT
    Nuclear Scheme         =       TREUTLER

    BS radius alpha        =              1
    Pruning alpha          =              1
    Radial Points          =             75
    Spherical Points       =            302
    Total Points           =          86838
    Total Blocks           =            730
    Max Points             =            255
    Max Functions          =             22


  -Total Gradient:
     Atom            X                  Y                   Z
    ------   -----------------  -----------------  -----------------
       1       -0.037083495931    -0.000000000000     0.000000000000
       2        0.037083495931     0.000000000000     0.000000000000
       3       -0.007557771803    -0.000000000000     0.000000000000
       4        0.007557771803     0.000000000000     0.000000000000


*** tstop() called on atlantis at Tue Apr 19 02:08:27 2022
Module time:
	user time   =       0.31 seconds =       0.01 minutes
	system time =       0.00 seconds =       0.00 minutes
	total time  =          0 seconds =       0.00 minutes
Total time:
	user time   =       5.94 seconds =       0.10 minutes
	system time =       0.08 seconds =       0.00 minutes
	total time  =          6 seconds =       0.10 minutes

  //>>>>>>>>>>>>>>>>>>>>>>>>>>>>>>>>>>>//
  //    Loading displacement 2 of 12   //
  //<<<<<<<<<<<<<<<<<<<<<<<<<<<<<<<<<<<//
gradient() will perform analytic gradient computation.

*** tstart() called on atlantis
*** at Tue Apr 19 02:08:27 2022

   => Loading Basis Set <=

    Name: 6-31G
    Role: ORBITAL
    Keyword: BASIS
    atoms 1-2 entry C          line    87 file /home/akrom/software/anaconda3/envs/ffpenv/share/psi4/basis/6-31g.gbs 
    atoms 3-4 entry H          line    26 file /home/akrom/software/anaconda3/envs/ffpenv/share/psi4/basis/6-31g.gbs 


         ---------------------------------------------------------
                                   SCF
               by Justin Turney, Rob Parrish, Andy Simmonett
                          and Daniel G. A. Smith
                              RKS Reference
                        1 Threads,    500 MiB Core
         ---------------------------------------------------------

  ==> Geometry <==

    Molecular point group: d2h
    Full point group: D_inf_h

    Geometry (in Angstrom), charge = 0, multiplicity = 1:

       Center              X                  Y                   Z               Mass       
    ------------   -----------------  -----------------  -----------------  -----------------
         C           -0.615000089229    -0.000000000000     0.000000000000    12.000000000000
         C            0.615000089229     0.000000000000     0.000000000000    12.000000000000
         H           -1.689230000000    -0.000000000000     0.000000000000     1.007825032230
         H            1.689230000000     0.000000000000     0.000000000000     1.007825032230

  Running in d2h symmetry.

  Rotational constants: A = ************  B =      1.13680  C =      1.13680 [cm^-1]
  Rotational constants: A = ************  B =  34080.32226  C =  34080.32226 [MHz]
  Nuclear repulsion =   24.311929094340595

  Charge       = 0
  Multiplicity = 1
  Electrons    = 14
  Nalpha       = 7
  Nbeta        = 7

  ==> Algorithm <==

  SCF Algorithm Type is DF.
  DIIS enabled.
  MOM disabled.
  Fractional occupation disabled.
  Guess Type is SAD.
  Energy threshold   = 1.00e-08
  Density threshold  = 1.00e-08
  Integral threshold = 0.00e+00

  ==> Primary Basis <==

  Basis Set: 6-31G
    Blend: 6-31G
    Number of shells: 14
    Number of basis function: 22
    Number of Cartesian functions: 22
    Spherical Harmonics?: false
    Max angular momentum: 1

  ==> DFT Potential <==

   => Composite Functional: M06-2X <= 

    Hybrid M06-2X Meta-GGA XC Functional

    Y. Zhao and D. G. Truhlar,  Theor. Chem. Acc., 120, 215, 2008


    Deriv               =              1
    GGA                 =           TRUE
    Meta                =           TRUE

    Exchange Hybrid     =           TRUE
    MP2 Hybrid          =          FALSE

   => Exchange Functionals <=

    1.0000   XC_HYB_MGGA_X_M06_2X

   => Exact (HF) Exchange <=

    0.5400               HF 

   => Correlation Functionals <=

    1.0000   XC_MGGA_C_M06_2X

   => Molecular Quadrature <=

    Radial Scheme          =       TREUTLER
    Pruning Scheme         =           FLAT
    Nuclear Scheme         =       TREUTLER

    BS radius alpha        =              1
    Pruning alpha          =              1
    Radial Points          =             75
    Spherical Points       =            302
    Total Points           =          86838
    Total Blocks           =            730
    Max Points             =            255
    Max Functions          =             22

   => Loading Basis Set <=

    Name: (6-31G AUX)
    Role: JKFIT
    Keyword: DF_BASIS_SCF
    atoms 1-2 entry C          line   121 file /home/akrom/software/anaconda3/envs/ffpenv/share/psi4/basis/cc-pvdz-jkfit.gbs 
    atoms 3-4 entry H          line    51 file /home/akrom/software/anaconda3/envs/ffpenv/share/psi4/basis/cc-pvdz-jkfit.gbs 

  ==> Pre-Iterations <==

   -------------------------------------------------------
    Irrep   Nso     Nmo     Nalpha   Nbeta   Ndocc  Nsocc
   -------------------------------------------------------
     Ag         7       7       0       0       0       0
     B1g        2       2       0       0       0       0
     B2g        2       2       0       0       0       0
     B3g        0       0       0       0       0       0
     Au         0       0       0       0       0       0
     B1u        2       2       0       0       0       0
     B2u        2       2       0       0       0       0
     B3u        7       7       0       0       0       0
   -------------------------------------------------------
    Total      22      22       7       7       7       0
   -------------------------------------------------------

  ==> Integral Setup <==

  DFHelper Memory: AOs need 0.001 GiB; user supplied 0.233 GiB. Using in-core AOs.

  ==> MemDFJK: Density-Fitted J/K Matrices <==

    J tasked:                   Yes
    K tasked:                   Yes
    wK tasked:                   No
    OpenMP threads:               1
    Memory [MiB]:               238
    Algorithm:                 Core
    Schwarz Cutoff:           1E-12
    Mask sparsity (%):       0.0000
    Fitting Condition:        1E-10

   => Auxiliary Basis Set <=

  Basis Set: (6-31G AUX)
    Blend: CC-PVDZ-JKFIT
    Number of shells: 66
    Number of basis function: 212
    Number of Cartesian functions: 212
    Spherical Harmonics?: false
    Max angular momentum: 3

  Cached 100.0% of DFT collocation blocks in 0.133 [GiB].

  Minimum eigenvalue in the overlap matrix is 1.3361415591E-03.
  Using Symmetric Orthogonalization.

  SCF Guess: Superposition of Atomic Densities via on-the-fly atomic UHF.

  ==> Iterations <==

                           Total Energy        Delta E     RMS |[F,P]|

   @DF-RKS iter SAD:   -76.62521332118385   -7.66252e+01   0.00000e+00 
   @DF-RKS iter   1:   -77.21516836694784   -5.89955e-01   2.82322e-02 DIIS
   @DF-RKS iter   2:   -77.25321688470459   -3.80485e-02   1.67879e-02 DIIS
   @DF-RKS iter   3:   -77.27265937395568   -1.94425e-02   1.02891e-04 DIIS
   @DF-RKS iter   4:   -77.27266042713157   -1.05318e-06   8.64796e-06 DIIS
   @DF-RKS iter   5:   -77.27266043698799   -9.85642e-09   1.12776e-06 DIIS
   @DF-RKS iter   6:   -77.27266043715576   -1.67773e-10   1.02165e-07 DIIS
   @DF-RKS iter   7:   -77.27266043715711   -1.35003e-12   3.74010e-09 DIIS
  Energy and wave function converged.


  ==> Post-Iterations <==

    Orbital Energies [Eh]
    ---------------------

    Doubly Occupied:                                                      

       1Ag   -10.558340     1B3u  -10.556174     2Ag    -0.838893  
       2B3u   -0.636314     3Ag    -0.556220     1B2u   -0.341747  
       1B1u   -0.341747  

    Virtual:                                                              

       1B2g    0.092266     1B1g    0.092266     3B3u    0.151644  
       4Ag     0.199640     4B3u    0.469533     5Ag     0.535764  
       2B2u    0.597151     2B1u    0.597151     2B2g    0.709830  
       2B1g    0.709830     5B3u    0.809955     6Ag     0.885199  
       7Ag     1.083049     6B3u    1.256351     7B3u    1.585797  

    Final Occupation by Irrep:
             Ag   B1g   B2g   B3g    Au   B1u   B2u   B3u 
    DOCC [     3,    0,    0,    0,    0,    1,    1,    2 ]

  @DF-RKS Final Energy:   -77.27266043715711

   => Energetics <=

    Nuclear Repulsion Energy =             24.3119290943405950
    One-Electron Energy =                -150.9584899487904295
    Two-Electron Energy =                  54.8941081175548149
    DFT Exchange-Correlation Energy =      -5.5202077002620928
    Empirical Dispersion Energy =           0.0000000000000000
    VV10 Nonlocal Energy =                  0.0000000000000000
    Total Energy =                        -77.2726604371571000

Computation Completed


Properties will be evaluated at   0.000000,   0.000000,   0.000000 [a0]

Properties computed using the SCF density matrix

  Nuclear Dipole Moment: [e a0]
     X:     0.0000      Y:     0.0000      Z:     0.0000

  Electronic Dipole Moment: [e a0]
     X:     0.0000      Y:     0.0000      Z:     0.0000

  Dipole Moment: [e a0]
     X:     0.0000      Y:     0.0000      Z:     0.0000     Total:     0.0000

  Dipole Moment: [D]
     X:     0.0000      Y:     0.0000      Z:     0.0000     Total:     0.0000


*** tstop() called on atlantis at Tue Apr 19 02:08:29 2022
Module time:
	user time   =       1.74 seconds =       0.03 minutes
	system time =       0.01 seconds =       0.00 minutes
	total time  =          2 seconds =       0.03 minutes
Total time:
	user time   =       7.69 seconds =       0.13 minutes
	system time =       0.09 seconds =       0.00 minutes
	total time  =          8 seconds =       0.13 minutes

*** tstart() called on atlantis
*** at Tue Apr 19 02:08:29 2022


         ------------------------------------------------------------
                                   SCF GRAD                          
                          Rob Parrish, Justin Turney,                
                       Andy Simmonett, and Alex Sokolov              
         ------------------------------------------------------------

  ==> Geometry <==

    Molecular point group: d2h
    Full point group: D_inf_h

    Geometry (in Angstrom), charge = 0, multiplicity = 1:

       Center              X                  Y                   Z               Mass       
    ------------   -----------------  -----------------  -----------------  -----------------
         C           -0.615000089229    -0.000000000000     0.000000000000    12.000000000000
         C            0.615000089229     0.000000000000     0.000000000000    12.000000000000
         H           -1.689230000000    -0.000000000000     0.000000000000     1.007825032230
         H            1.689230000000     0.000000000000     0.000000000000     1.007825032230

  Nuclear repulsion =   24.311929094340595

  ==> Basis Set <==

  Basis Set: 6-31G
    Blend: 6-31G
    Number of shells: 14
    Number of basis function: 22
    Number of Cartesian functions: 22
    Spherical Harmonics?: false
    Max angular momentum: 1

  ==> DFJKGrad: Density-Fitted SCF Gradients <==

    Gradient:                    1
    J tasked:                  Yes
    K tasked:                  Yes
    wK tasked:                  No
    OpenMP threads:              1
    Integrals threads:           1
    Memory [MiB]:              375
    Schwarz Cutoff:          0E+00
    Fitting Condition:       1E-10

   => Auxiliary Basis Set <=

  Basis Set: (6-31G AUX)
    Blend: CC-PVDZ-JKFIT
    Number of shells: 66
    Number of basis function: 212
    Number of Cartesian functions: 212
    Spherical Harmonics?: false
    Max angular momentum: 3

  ==> DFT Potential <==

   => Composite Functional: M06-2X <= 

    Hybrid M06-2X Meta-GGA XC Functional

    Y. Zhao and D. G. Truhlar,  Theor. Chem. Acc., 120, 215, 2008


    Deriv               =              1
    GGA                 =           TRUE
    Meta                =           TRUE

    Exchange Hybrid     =           TRUE
    MP2 Hybrid          =          FALSE

   => Exchange Functionals <=

    1.0000   XC_HYB_MGGA_X_M06_2X

   => Exact (HF) Exchange <=

    0.5400               HF 

   => Correlation Functionals <=

    1.0000   XC_MGGA_C_M06_2X

   => Molecular Quadrature <=

    Radial Scheme          =       TREUTLER
    Pruning Scheme         =           FLAT
    Nuclear Scheme         =       TREUTLER

    BS radius alpha        =              1
    Pruning alpha          =              1
    Radial Points          =             75
    Spherical Points       =            302
    Total Points           =          86838
    Total Blocks           =            730
    Max Points             =            255
    Max Functions          =             22


  -Total Gradient:
     Atom            X                  Y                   Z
    ------   -----------------  -----------------  -----------------
       1       -0.039622734661    -0.000000000000     0.000000000000
       2        0.039622734661     0.000000000000     0.000000000000
       3       -0.007129256091    -0.000000000000    -0.000000000000
       4        0.007129256091     0.000000000000    -0.000000000000


*** tstop() called on atlantis at Tue Apr 19 02:08:29 2022
Module time:
	user time   =       0.32 seconds =       0.01 minutes
	system time =       0.00 seconds =       0.00 minutes
	total time  =          0 seconds =       0.00 minutes
Total time:
	user time   =       8.01 seconds =       0.13 minutes
	system time =       0.09 seconds =       0.00 minutes
	total time  =          8 seconds =       0.13 minutes

  //>>>>>>>>>>>>>>>>>>>>>>>>>>>>>>>>>>>//
  //    Loading displacement 3 of 12   //
  //<<<<<<<<<<<<<<<<<<<<<<<<<<<<<<<<<<<//
gradient() will perform analytic gradient computation.

*** tstart() called on atlantis
*** at Tue Apr 19 02:08:29 2022

   => Loading Basis Set <=

    Name: 6-31G
    Role: ORBITAL
    Keyword: BASIS
    atoms 1-2 entry C          line    87 file /home/akrom/software/anaconda3/envs/ffpenv/share/psi4/basis/6-31g.gbs 
    atoms 3-4 entry H          line    26 file /home/akrom/software/anaconda3/envs/ffpenv/share/psi4/basis/6-31g.gbs 


         ---------------------------------------------------------
                                   SCF
               by Justin Turney, Rob Parrish, Andy Simmonett
                          and Daniel G. A. Smith
                              RKS Reference
                        1 Threads,    500 MiB Core
         ---------------------------------------------------------

  ==> Geometry <==

    Molecular point group: d2h
    Full point group: D_inf_h

    Geometry (in Angstrom), charge = 0, multiplicity = 1:

       Center              X                  Y                   Z               Mass       
    ------------   -----------------  -----------------  -----------------  -----------------
         C           -0.613919910771    -0.000000000000     0.000000000000    12.000000000000
         C            0.613919910771     0.000000000000     0.000000000000    12.000000000000
         H           -1.689230000000    -0.000000000000     0.000000000000     1.007825032230
         H            1.689230000000     0.000000000000     0.000000000000     1.007825032230

  Running in d2h symmetry.

  Rotational constants: A = ************  B =      1.13924  C =      1.13924 [cm^-1]
  Rotational constants: A = ************  B =  34153.69835  C =  34153.69835 [MHz]
  Nuclear repulsion =   24.334534488106961

  Charge       = 0
  Multiplicity = 1
  Electrons    = 14
  Nalpha       = 7
  Nbeta        = 7

  ==> Algorithm <==

  SCF Algorithm Type is DF.
  DIIS enabled.
  MOM disabled.
  Fractional occupation disabled.
  Guess Type is SAD.
  Energy threshold   = 1.00e-08
  Density threshold  = 1.00e-08
  Integral threshold = 0.00e+00

  ==> Primary Basis <==

  Basis Set: 6-31G
    Blend: 6-31G
    Number of shells: 14
    Number of basis function: 22
    Number of Cartesian functions: 22
    Spherical Harmonics?: false
    Max angular momentum: 1

  ==> DFT Potential <==

   => Composite Functional: M06-2X <= 

    Hybrid M06-2X Meta-GGA XC Functional

    Y. Zhao and D. G. Truhlar,  Theor. Chem. Acc., 120, 215, 2008


    Deriv               =              1
    GGA                 =           TRUE
    Meta                =           TRUE

    Exchange Hybrid     =           TRUE
    MP2 Hybrid          =          FALSE

   => Exchange Functionals <=

    1.0000   XC_HYB_MGGA_X_M06_2X

   => Exact (HF) Exchange <=

    0.5400               HF 

   => Correlation Functionals <=

    1.0000   XC_MGGA_C_M06_2X

   => Molecular Quadrature <=

    Radial Scheme          =       TREUTLER
    Pruning Scheme         =           FLAT
    Nuclear Scheme         =       TREUTLER

    BS radius alpha        =              1
    Pruning alpha          =              1
    Radial Points          =             75
    Spherical Points       =            302
    Total Points           =          86838
    Total Blocks           =            730
    Max Points             =            255
    Max Functions          =             22

   => Loading Basis Set <=

    Name: (6-31G AUX)
    Role: JKFIT
    Keyword: DF_BASIS_SCF
    atoms 1-2 entry C          line   121 file /home/akrom/software/anaconda3/envs/ffpenv/share/psi4/basis/cc-pvdz-jkfit.gbs 
    atoms 3-4 entry H          line    51 file /home/akrom/software/anaconda3/envs/ffpenv/share/psi4/basis/cc-pvdz-jkfit.gbs 

  ==> Pre-Iterations <==

   -------------------------------------------------------
    Irrep   Nso     Nmo     Nalpha   Nbeta   Ndocc  Nsocc
   -------------------------------------------------------
     Ag         7       7       0       0       0       0
     B1g        2       2       0       0       0       0
     B2g        2       2       0       0       0       0
     B3g        0       0       0       0       0       0
     Au         0       0       0       0       0       0
     B1u        2       2       0       0       0       0
     B2u        2       2       0       0       0       0
     B3u        7       7       0       0       0       0
   -------------------------------------------------------
    Total      22      22       7       7       7       0
   -------------------------------------------------------

  ==> Integral Setup <==

  DFHelper Memory: AOs need 0.001 GiB; user supplied 0.233 GiB. Using in-core AOs.

  ==> MemDFJK: Density-Fitted J/K Matrices <==

    J tasked:                   Yes
    K tasked:                   Yes
    wK tasked:                   No
    OpenMP threads:               1
    Memory [MiB]:               238
    Algorithm:                 Core
    Schwarz Cutoff:           1E-12
    Mask sparsity (%):       0.0000
    Fitting Condition:        1E-10

   => Auxiliary Basis Set <=

  Basis Set: (6-31G AUX)
    Blend: CC-PVDZ-JKFIT
    Number of shells: 66
    Number of basis function: 212
    Number of Cartesian functions: 212
    Spherical Harmonics?: false
    Max angular momentum: 3

  Cached 100.0% of DFT collocation blocks in 0.133 [GiB].

  Minimum eigenvalue in the overlap matrix is 1.3224510566E-03.
  Using Symmetric Orthogonalization.

  SCF Guess: Superposition of Atomic Densities via on-the-fly atomic UHF.

  ==> Iterations <==

                           Total Energy        Delta E     RMS |[F,P]|

   @DF-RKS iter SAD:   -76.62714201888213   -7.66271e+01   0.00000e+00 
   @DF-RKS iter   1:   -77.21487688291329   -5.87735e-01   2.83414e-02 DIIS
   @DF-RKS iter   2:   -77.25315556027547   -3.82787e-02   1.68795e-02 DIIS
   @DF-RKS iter   3:   -77.27281124959291   -1.96557e-02   1.02905e-04 DIIS
   @DF-RKS iter   4:   -77.27281229254319   -1.04295e-06   8.56019e-06 DIIS
   @DF-RKS iter   5:   -77.27281230216688   -9.62369e-09   1.12283e-06 DIIS
   @DF-RKS iter   6:   -77.27281230233345   -1.66565e-10   1.02852e-07 DIIS
   @DF-RKS iter   7:   -77.27281230233487   -1.42109e-12   3.74612e-09 DIIS
  Energy and wave function converged.


  ==> Post-Iterations <==

    Orbital Energies [Eh]
    ---------------------

    Doubly Occupied:                                                      

       1Ag   -10.557900     1B3u  -10.555702     2Ag    -0.839367  
       2B3u   -0.635683     3Ag    -0.555983     1B2u   -0.342107  
       1B1u   -0.342107  

    Virtual:                                                              

       1B1g    0.092934     1B2g    0.092934     3B3u    0.151615  
       4Ag     0.199353     4B3u    0.470526     5Ag     0.535488  
       2B1u    0.596878     2B2u    0.596878     2B2g    0.710344  
       2B1g    0.710344     5B3u    0.810104     6Ag     0.884678  
       7Ag     1.083024     6B3u    1.259372     7B3u    1.586461  

    Final Occupation by Irrep:
             Ag   B1g   B2g   B3g    Au   B1u   B2u   B3u 
    DOCC [     3,    0,    0,    0,    0,    1,    1,    2 ]

  @DF-RKS Final Energy:   -77.27281230233487

   => Energetics <=

    Nuclear Repulsion Energy =             24.3345344881069607
    One-Electron Energy =                -151.0046870453831502
    Two-Electron Energy =                  54.9180769443957217
    DFT Exchange-Correlation Energy =      -5.5207366894543917
    Empirical Dispersion Energy =           0.0000000000000000
    VV10 Nonlocal Energy =                  0.0000000000000000
    Total Energy =                        -77.2728123023348701

Computation Completed


Properties will be evaluated at   0.000000,   0.000000,   0.000000 [a0]

Properties computed using the SCF density matrix

  Nuclear Dipole Moment: [e a0]
     X:     0.0000      Y:     0.0000      Z:     0.0000

  Electronic Dipole Moment: [e a0]
     X:     0.0000      Y:     0.0000      Z:     0.0000

  Dipole Moment: [e a0]
     X:     0.0000      Y:     0.0000      Z:     0.0000     Total:     0.0000

  Dipole Moment: [D]
     X:     0.0000      Y:     0.0000      Z:     0.0000     Total:     0.0000


*** tstop() called on atlantis at Tue Apr 19 02:08:31 2022
Module time:
	user time   =       1.72 seconds =       0.03 minutes
	system time =       0.02 seconds =       0.00 minutes
	total time  =          2 seconds =       0.03 minutes
Total time:
	user time   =       9.73 seconds =       0.16 minutes
	system time =       0.11 seconds =       0.00 minutes
	total time  =         10 seconds =       0.17 minutes

*** tstart() called on atlantis
*** at Tue Apr 19 02:08:31 2022


         ------------------------------------------------------------
                                   SCF GRAD                          
                          Rob Parrish, Justin Turney,                
                       Andy Simmonett, and Alex Sokolov              
         ------------------------------------------------------------

  ==> Geometry <==

    Molecular point group: d2h
    Full point group: D_inf_h

    Geometry (in Angstrom), charge = 0, multiplicity = 1:

       Center              X                  Y                   Z               Mass       
    ------------   -----------------  -----------------  -----------------  -----------------
         C           -0.613919910771    -0.000000000000     0.000000000000    12.000000000000
         C            0.613919910771     0.000000000000     0.000000000000    12.000000000000
         H           -1.689230000000    -0.000000000000     0.000000000000     1.007825032230
         H            1.689230000000     0.000000000000     0.000000000000     1.007825032230

  Nuclear repulsion =   24.334534488106961

  ==> Basis Set <==

  Basis Set: 6-31G
    Blend: 6-31G
    Number of shells: 14
    Number of basis function: 22
    Number of Cartesian functions: 22
    Spherical Harmonics?: false
    Max angular momentum: 1

  ==> DFJKGrad: Density-Fitted SCF Gradients <==

    Gradient:                    1
    J tasked:                  Yes
    K tasked:                  Yes
    wK tasked:                  No
    OpenMP threads:              1
    Integrals threads:           1
    Memory [MiB]:              375
    Schwarz Cutoff:          0E+00
    Fitting Condition:       1E-10

   => Auxiliary Basis Set <=

  Basis Set: (6-31G AUX)
    Blend: CC-PVDZ-JKFIT
    Number of shells: 66
    Number of basis function: 212
    Number of Cartesian functions: 212
    Spherical Harmonics?: false
    Max angular momentum: 3

  ==> DFT Potential <==

   => Composite Functional: M06-2X <= 

    Hybrid M06-2X Meta-GGA XC Functional

    Y. Zhao and D. G. Truhlar,  Theor. Chem. Acc., 120, 215, 2008


    Deriv               =              1
    GGA                 =           TRUE
    Meta                =           TRUE

    Exchange Hybrid     =           TRUE
    MP2 Hybrid          =          FALSE

   => Exchange Functionals <=

    1.0000   XC_HYB_MGGA_X_M06_2X

   => Exact (HF) Exchange <=

    0.5400               HF 

   => Correlation Functionals <=

    1.0000   XC_MGGA_C_M06_2X

   => Molecular Quadrature <=

    Radial Scheme          =       TREUTLER
    Pruning Scheme         =           FLAT
    Nuclear Scheme         =       TREUTLER

    BS radius alpha        =              1
    Pruning alpha          =              1
    Radial Points          =             75
    Spherical Points       =            302
    Total Points           =          86838
    Total Blocks           =            730
    Max Points             =            255
    Max Functions          =             22


  -Total Gradient:
     Atom            X                  Y                   Z
    ------   -----------------  -----------------  -----------------
       1       -0.034532574734    -0.000000000000    -0.000000000000
       2        0.034532574734     0.000000000000    -0.000000000000
       3       -0.007984982045    -0.000000000000     0.000000000000
       4        0.007984982045     0.000000000000     0.000000000000


*** tstop() called on atlantis at Tue Apr 19 02:08:31 2022
Module time:
	user time   =       0.32 seconds =       0.01 minutes
	system time =       0.01 seconds =       0.00 minutes
	total time  =          0 seconds =       0.00 minutes
Total time:
	user time   =      10.05 seconds =       0.17 minutes
	system time =       0.12 seconds =       0.00 minutes
	total time  =         10 seconds =       0.17 minutes

  //>>>>>>>>>>>>>>>>>>>>>>>>>>>>>>>>>>>//
  //    Loading displacement 4 of 12   //
  //<<<<<<<<<<<<<<<<<<<<<<<<<<<<<<<<<<<//
gradient() will perform analytic gradient computation.

*** tstart() called on atlantis
*** at Tue Apr 19 02:08:31 2022

   => Loading Basis Set <=

    Name: 6-31G
    Role: ORBITAL
    Keyword: BASIS
    atoms 1-2 entry C          line    87 file /home/akrom/software/anaconda3/envs/ffpenv/share/psi4/basis/6-31g.gbs 
    atoms 3-4 entry H          line    26 file /home/akrom/software/anaconda3/envs/ffpenv/share/psi4/basis/6-31g.gbs 


         ---------------------------------------------------------
                                   SCF
               by Justin Turney, Rob Parrish, Andy Simmonett
                          and Daniel G. A. Smith
                              RKS Reference
                        1 Threads,    500 MiB Core
         ---------------------------------------------------------

  ==> Geometry <==

    Molecular point group: d2h
    Full point group: D_inf_h

    Geometry (in Angstrom), charge = 0, multiplicity = 1:

       Center              X                  Y                   Z               Mass       
    ------------   -----------------  -----------------  -----------------  -----------------
         C           -0.614460000000    -0.000000000000     0.000000000000    12.000000000000
         C            0.614460000000     0.000000000000     0.000000000000    12.000000000000
         H           -1.691093646632    -0.000000000000     0.000000000000     1.007825032230
         H            1.691093646632     0.000000000000     0.000000000000     1.007825032230

  Running in d2h symmetry.

  Rotational constants: A = ************  B =      1.13705  C =      1.13705 [cm^-1]
  Rotational constants: A = ************  B =  34087.76638  C =  34087.76638 [MHz]
  Nuclear repulsion =   24.310590060340044

  Charge       = 0
  Multiplicity = 1
  Electrons    = 14
  Nalpha       = 7
  Nbeta        = 7

  ==> Algorithm <==

  SCF Algorithm Type is DF.
  DIIS enabled.
  MOM disabled.
  Fractional occupation disabled.
  Guess Type is SAD.
  Energy threshold   = 1.00e-08
  Density threshold  = 1.00e-08
  Integral threshold = 0.00e+00

  ==> Primary Basis <==

  Basis Set: 6-31G
    Blend: 6-31G
    Number of shells: 14
    Number of basis function: 22
    Number of Cartesian functions: 22
    Spherical Harmonics?: false
    Max angular momentum: 1

  ==> DFT Potential <==

   => Composite Functional: M06-2X <= 

    Hybrid M06-2X Meta-GGA XC Functional

    Y. Zhao and D. G. Truhlar,  Theor. Chem. Acc., 120, 215, 2008


    Deriv               =              1
    GGA                 =           TRUE
    Meta                =           TRUE

    Exchange Hybrid     =           TRUE
    MP2 Hybrid          =          FALSE

   => Exchange Functionals <=

    1.0000   XC_HYB_MGGA_X_M06_2X

   => Exact (HF) Exchange <=

    0.5400               HF 

   => Correlation Functionals <=

    1.0000   XC_MGGA_C_M06_2X

   => Molecular Quadrature <=

    Radial Scheme          =       TREUTLER
    Pruning Scheme         =           FLAT
    Nuclear Scheme         =       TREUTLER

    BS radius alpha        =              1
    Pruning alpha          =              1
    Radial Points          =             75
    Spherical Points       =            302
    Total Points           =          86838
    Total Blocks           =            730
    Max Points             =            256
    Max Functions          =             22

   => Loading Basis Set <=

    Name: (6-31G AUX)
    Role: JKFIT
    Keyword: DF_BASIS_SCF
    atoms 1-2 entry C          line   121 file /home/akrom/software/anaconda3/envs/ffpenv/share/psi4/basis/cc-pvdz-jkfit.gbs 
    atoms 3-4 entry H          line    51 file /home/akrom/software/anaconda3/envs/ffpenv/share/psi4/basis/cc-pvdz-jkfit.gbs 

  ==> Pre-Iterations <==

   -------------------------------------------------------
    Irrep   Nso     Nmo     Nalpha   Nbeta   Ndocc  Nsocc
   -------------------------------------------------------
     Ag         7       7       0       0       0       0
     B1g        2       2       0       0       0       0
     B2g        2       2       0       0       0       0
     B3g        0       0       0       0       0       0
     Au         0       0       0       0       0       0
     B1u        2       2       0       0       0       0
     B2u        2       2       0       0       0       0
     B3u        7       7       0       0       0       0
   -------------------------------------------------------
    Total      22      22       7       7       7       0
   -------------------------------------------------------

  ==> Integral Setup <==

  DFHelper Memory: AOs need 0.001 GiB; user supplied 0.233 GiB. Using in-core AOs.

  ==> MemDFJK: Density-Fitted J/K Matrices <==

    J tasked:                   Yes
    K tasked:                   Yes
    wK tasked:                   No
    OpenMP threads:               1
    Memory [MiB]:               238
    Algorithm:                 Core
    Schwarz Cutoff:           1E-12
    Mask sparsity (%):       0.0000
    Fitting Condition:        1E-10

   => Auxiliary Basis Set <=

  Basis Set: (6-31G AUX)
    Blend: CC-PVDZ-JKFIT
    Number of shells: 66
    Number of basis function: 212
    Number of Cartesian functions: 212
    Spherical Harmonics?: false
    Max angular momentum: 3

  Cached 100.0% of DFT collocation blocks in 0.133 [GiB].

  Minimum eigenvalue in the overlap matrix is 1.3330599587E-03.
  Using Symmetric Orthogonalization.

  SCF Guess: Superposition of Atomic Densities via on-the-fly atomic UHF.

  ==> Iterations <==

                           Total Energy        Delta E     RMS |[F,P]|

   @DF-RKS iter SAD:   -76.62511030901264   -7.66251e+01   0.00000e+00 
   @DF-RKS iter   1:   -77.21492177226658   -5.89811e-01   2.82928e-02 DIIS
   @DF-RKS iter   2:   -77.25305321300674   -3.81314e-02   1.68627e-02 DIIS
   @DF-RKS iter   3:   -77.27267954792987   -1.96263e-02   1.02514e-04 DIIS
   @DF-RKS iter   4:   -77.27268058248173   -1.03455e-06   8.53993e-06 DIIS
   @DF-RKS iter   5:   -77.27268059204837   -9.56665e-09   1.11419e-06 DIIS
   @DF-RKS iter   6:   -77.27268059221223   -1.63851e-10   1.02888e-07 DIIS
   @DF-RKS iter   7:   -77.27268059221355   -1.32161e-12   3.74078e-09 DIIS
  Energy and wave function converged.


  ==> Post-Iterations <==

    Orbital Energies [Eh]
    ---------------------

    Doubly Occupied:                                                      

       1Ag   -10.558254     1B3u  -10.556073     2Ag    -0.839041  
       2B3u   -0.635391     3Ag    -0.555616     1B1u   -0.341896  
       1B2u   -0.341896  

    Virtual:                                                              

       1B1g    0.092650     1B2g    0.092650     3B3u    0.150980  
       4Ag     0.198929     4B3u    0.470137     5Ag     0.535838  
       2B2u    0.597003     2B1u    0.597003     2B2g    0.710049  
       2B1g    0.710049     5B3u    0.810064     6Ag     0.884403  
       7Ag     1.081576     6B3u    1.256303     7B3u    1.585144  

    Final Occupation by Irrep:
             Ag   B1g   B2g   B3g    Au   B1u   B2u   B3u 
    DOCC [     3,    0,    0,    0,    0,    1,    1,    2 ]

  @DF-RKS Final Energy:   -77.27268059221355

   => Energetics <=

    Nuclear Repulsion Energy =             24.3105900603400436
    One-Electron Energy =                -150.9586326555555047
    Two-Electron Energy =                  54.8952289363391586
    DFT Exchange-Correlation Energy =      -5.5198669333372532
    Empirical Dispersion Energy =           0.0000000000000000
    VV10 Nonlocal Energy =                  0.0000000000000000
    Total Energy =                        -77.2726805922135611

Computation Completed


Properties will be evaluated at   0.000000,   0.000000,   0.000000 [a0]

Properties computed using the SCF density matrix

  Nuclear Dipole Moment: [e a0]
     X:     0.0000      Y:     0.0000      Z:     0.0000

  Electronic Dipole Moment: [e a0]
     X:     0.0000      Y:     0.0000      Z:     0.0000

  Dipole Moment: [e a0]
     X:     0.0000      Y:     0.0000      Z:     0.0000     Total:     0.0000

  Dipole Moment: [D]
     X:     0.0000      Y:     0.0000      Z:     0.0000     Total:     0.0000


*** tstop() called on atlantis at Tue Apr 19 02:08:33 2022
Module time:
	user time   =       1.73 seconds =       0.03 minutes
	system time =       0.00 seconds =       0.00 minutes
	total time  =          2 seconds =       0.03 minutes
Total time:
	user time   =      11.78 seconds =       0.20 minutes
	system time =       0.12 seconds =       0.00 minutes
	total time  =         12 seconds =       0.20 minutes

*** tstart() called on atlantis
*** at Tue Apr 19 02:08:33 2022


         ------------------------------------------------------------
                                   SCF GRAD                          
                          Rob Parrish, Justin Turney,                
                       Andy Simmonett, and Alex Sokolov              
         ------------------------------------------------------------

  ==> Geometry <==

    Molecular point group: d2h
    Full point group: D_inf_h

    Geometry (in Angstrom), charge = 0, multiplicity = 1:

       Center              X                  Y                   Z               Mass       
    ------------   -----------------  -----------------  -----------------  -----------------
         C           -0.614460000000    -0.000000000000     0.000000000000    12.000000000000
         C            0.614460000000     0.000000000000     0.000000000000    12.000000000000
         H           -1.691093646632    -0.000000000000     0.000000000000     1.007825032230
         H            1.691093646632     0.000000000000     0.000000000000     1.007825032230

  Nuclear repulsion =   24.310590060340044

  ==> Basis Set <==

  Basis Set: 6-31G
    Blend: 6-31G
    Number of shells: 14
    Number of basis function: 22
    Number of Cartesian functions: 22
    Spherical Harmonics?: false
    Max angular momentum: 1

  ==> DFJKGrad: Density-Fitted SCF Gradients <==

    Gradient:                    1
    J tasked:                  Yes
    K tasked:                  Yes
    wK tasked:                  No
    OpenMP threads:              1
    Integrals threads:           1
    Memory [MiB]:              375
    Schwarz Cutoff:          0E+00
    Fitting Condition:       1E-10

   => Auxiliary Basis Set <=

  Basis Set: (6-31G AUX)
    Blend: CC-PVDZ-JKFIT
    Number of shells: 66
    Number of basis function: 212
    Number of Cartesian functions: 212
    Spherical Harmonics?: false
    Max angular momentum: 3

  ==> DFT Potential <==

   => Composite Functional: M06-2X <= 

    Hybrid M06-2X Meta-GGA XC Functional

    Y. Zhao and D. G. Truhlar,  Theor. Chem. Acc., 120, 215, 2008


    Deriv               =              1
    GGA                 =           TRUE
    Meta                =           TRUE

    Exchange Hybrid     =           TRUE
    MP2 Hybrid          =          FALSE

   => Exchange Functionals <=

    1.0000   XC_HYB_MGGA_X_M06_2X

   => Exact (HF) Exchange <=

    0.5400               HF 

   => Correlation Functionals <=

    1.0000   XC_MGGA_C_M06_2X

   => Molecular Quadrature <=

    Radial Scheme          =       TREUTLER
    Pruning Scheme         =           FLAT
    Nuclear Scheme         =       TREUTLER

    BS radius alpha        =              1
    Pruning alpha          =              1
    Radial Points          =             75
    Spherical Points       =            302
    Total Points           =          86838
    Total Blocks           =            730
    Max Points             =            256
    Max Functions          =             22


  -Total Gradient:
     Atom            X                  Y                   Z
    ------   -----------------  -----------------  -----------------
       1       -0.035614947924    -0.000000000000     0.000000000000
       2        0.035614947924     0.000000000000     0.000000000000
       3       -0.008963037969    -0.000000000000    -0.000000000000
       4        0.008963037969     0.000000000000     0.000000000000


*** tstop() called on atlantis at Tue Apr 19 02:08:33 2022
Module time:
	user time   =       0.32 seconds =       0.01 minutes
	system time =       0.00 seconds =       0.00 minutes
	total time  =          0 seconds =       0.00 minutes
Total time:
	user time   =      12.10 seconds =       0.20 minutes
	system time =       0.12 seconds =       0.00 minutes
	total time  =         12 seconds =       0.20 minutes

  //>>>>>>>>>>>>>>>>>>>>>>>>>>>>>>>>>>>//
  //    Loading displacement 5 of 12   //
  //<<<<<<<<<<<<<<<<<<<<<<<<<<<<<<<<<<<//
gradient() will perform analytic gradient computation.

*** tstart() called on atlantis
*** at Tue Apr 19 02:08:33 2022

   => Loading Basis Set <=

    Name: 6-31G
    Role: ORBITAL
    Keyword: BASIS
    atoms 1-2 entry C          line    87 file /home/akrom/software/anaconda3/envs/ffpenv/share/psi4/basis/6-31g.gbs 
    atoms 3-4 entry H          line    26 file /home/akrom/software/anaconda3/envs/ffpenv/share/psi4/basis/6-31g.gbs 


         ---------------------------------------------------------
                                   SCF
               by Justin Turney, Rob Parrish, Andy Simmonett
                          and Daniel G. A. Smith
                              RKS Reference
                        1 Threads,    500 MiB Core
         ---------------------------------------------------------

  ==> Geometry <==

    Molecular point group: d2h
    Full point group: D_inf_h

    Geometry (in Angstrom), charge = 0, multiplicity = 1:

       Center              X                  Y                   Z               Mass       
    ------------   -----------------  -----------------  -----------------  -----------------
         C           -0.614460000000    -0.000000000000     0.000000000000    12.000000000000
         C            0.614460000000     0.000000000000     0.000000000000    12.000000000000
         H           -1.687366353368    -0.000000000000     0.000000000000     1.007825032230
         H            1.687366353368     0.000000000000     0.000000000000     1.007825032230

  Running in d2h symmetry.

  Rotational constants: A = ************  B =      1.13900  C =      1.13900 [cm^-1]
  Rotational constants: A = ************  B =  34146.22540  C =  34146.22540 [MHz]
  Nuclear repulsion =   24.335885801642696

  Charge       = 0
  Multiplicity = 1
  Electrons    = 14
  Nalpha       = 7
  Nbeta        = 7

  ==> Algorithm <==

  SCF Algorithm Type is DF.
  DIIS enabled.
  MOM disabled.
  Fractional occupation disabled.
  Guess Type is SAD.
  Energy threshold   = 1.00e-08
  Density threshold  = 1.00e-08
  Integral threshold = 0.00e+00

  ==> Primary Basis <==

  Basis Set: 6-31G
    Blend: 6-31G
    Number of shells: 14
    Number of basis function: 22
    Number of Cartesian functions: 22
    Spherical Harmonics?: false
    Max angular momentum: 1

  ==> DFT Potential <==

   => Composite Functional: M06-2X <= 

    Hybrid M06-2X Meta-GGA XC Functional

    Y. Zhao and D. G. Truhlar,  Theor. Chem. Acc., 120, 215, 2008


    Deriv               =              1
    GGA                 =           TRUE
    Meta                =           TRUE

    Exchange Hybrid     =           TRUE
    MP2 Hybrid          =          FALSE

   => Exchange Functionals <=

    1.0000   XC_HYB_MGGA_X_M06_2X

   => Exact (HF) Exchange <=

    0.5400               HF 

   => Correlation Functionals <=

    1.0000   XC_MGGA_C_M06_2X

   => Molecular Quadrature <=

    Radial Scheme          =       TREUTLER
    Pruning Scheme         =           FLAT
    Nuclear Scheme         =       TREUTLER

    BS radius alpha        =              1
    Pruning alpha          =              1
    Radial Points          =             75
    Spherical Points       =            302
    Total Points           =          86830
    Total Blocks           =            732
    Max Points             =            254
    Max Functions          =             22

   => Loading Basis Set <=

    Name: (6-31G AUX)
    Role: JKFIT
    Keyword: DF_BASIS_SCF
    atoms 1-2 entry C          line   121 file /home/akrom/software/anaconda3/envs/ffpenv/share/psi4/basis/cc-pvdz-jkfit.gbs 
    atoms 3-4 entry H          line    51 file /home/akrom/software/anaconda3/envs/ffpenv/share/psi4/basis/cc-pvdz-jkfit.gbs 

  ==> Pre-Iterations <==

   -------------------------------------------------------
    Irrep   Nso     Nmo     Nalpha   Nbeta   Ndocc  Nsocc
   -------------------------------------------------------
     Ag         7       7       0       0       0       0
     B1g        2       2       0       0       0       0
     B2g        2       2       0       0       0       0
     B3g        0       0       0       0       0       0
     Au         0       0       0       0       0       0
     B1u        2       2       0       0       0       0
     B2u        2       2       0       0       0       0
     B3u        7       7       0       0       0       0
   -------------------------------------------------------
    Total      22      22       7       7       7       0
   -------------------------------------------------------

  ==> Integral Setup <==

  DFHelper Memory: AOs need 0.001 GiB; user supplied 0.233 GiB. Using in-core AOs.

  ==> MemDFJK: Density-Fitted J/K Matrices <==

    J tasked:                   Yes
    K tasked:                   Yes
    wK tasked:                   No
    OpenMP threads:               1
    Memory [MiB]:               238
    Algorithm:                 Core
    Schwarz Cutoff:           1E-12
    Mask sparsity (%):       0.0000
[...]

   => Exchange Functionals <=

    1.0000   XC_HYB_MGGA_X_M06_2X

   => Exact (HF) Exchange <=

    0.5400               HF 

   => Correlation Functionals <=

    1.0000   XC_MGGA_C_M06_2X

   => Molecular Quadrature <=

    Radial Scheme          =       TREUTLER
    Pruning Scheme         =           FLAT
    Nuclear Scheme         =       TREUTLER

    BS radius alpha        =              1
    Pruning alpha          =              1
    Radial Points          =             75
    Spherical Points       =            302
    Total Points           =          86838
    Total Blocks           =            726
    Max Points             =            255
    Max Functions          =             22

   => Loading Basis Set <=

    Name: (6-31G AUX)
    Role: JKFIT
    Keyword: DF_BASIS_SCF
    atoms 1-2 entry C          line   121 file /home/akrom/software/anaconda3/envs/ffpenv/share/psi4/basis/cc-pvdz-jkfit.gbs 
    atoms 3-4 entry H          line    51 file /home/akrom/software/anaconda3/envs/ffpenv/share/psi4/basis/cc-pvdz-jkfit.gbs 

  ==> Pre-Iterations <==

   -------------------------------------------------------
    Irrep   Nso     Nmo     Nalpha   Nbeta   Ndocc  Nsocc
   -------------------------------------------------------
     A1        14      14       0       0       0       0
     A2         0       0       0       0       0       0
     B1         4       4       0       0       0       0
     B2         4       4       0       0       0       0
   -------------------------------------------------------
    Total      22      22       7       7       7       0
   -------------------------------------------------------

  ==> Integral Setup <==

  DFHelper Memory: AOs need 0.001 GiB; user supplied 0.233 GiB. Using in-core AOs.

  ==> MemDFJK: Density-Fitted J/K Matrices <==

    J tasked:                   Yes
    K tasked:                   Yes
    wK tasked:                   No
    OpenMP threads:               1
    Memory [MiB]:               238
    Algorithm:                 Core
    Schwarz Cutoff:           1E-12
    Mask sparsity (%):       0.0000
    Fitting Condition:        1E-10

   => Auxiliary Basis Set <=

  Basis Set: (6-31G AUX)
    Blend: CC-PVDZ-JKFIT
    Number of shells: 66
    Number of basis function: 212
    Number of Cartesian functions: 212
    Spherical Harmonics?: false
    Max angular momentum: 3

  Cached 100.0% of DFT collocation blocks in 0.133 [GiB].

  Minimum eigenvalue in the overlap matrix is 1.3292844249E-03.
  Using Symmetric Orthogonalization.

  SCF Guess: Superposition of Atomic Densities via on-the-fly atomic UHF.

  ==> Iterations <==

                           Total Energy        Delta E     RMS |[F,P]|

   @DF-RKS iter SAD:   -76.62617501501261   -7.66262e+01   0.00000e+00 
   @DF-RKS iter   1:   -77.21501839810399   -5.88843e-01   2.00021e-02 DIIS
   @DF-RKS iter   2:   -77.25317990158715   -3.81615e-02   1.19044e-02 DIIS
   @DF-RKS iter   3:   -77.27273063566221   -1.95507e-02   1.47290e-04 DIIS
   @DF-RKS iter   4:   -77.27272682362857    3.81203e-06   2.42894e-04 DIIS
   @DF-RKS iter   5:   -77.27273357721151   -6.75358e-06   5.81035e-06 DIIS
   @DF-RKS iter   6:   -77.27273358369413   -6.48262e-09   5.45100e-07 DIIS
   @DF-RKS iter   7:   -77.27273358377082   -7.66818e-11   5.34656e-08 DIIS
   @DF-RKS iter   8:   -77.27273358377148   -6.67910e-13   2.71438e-09 DIIS
  Energy and wave function converged.


  ==> Post-Iterations <==

    Orbital Energies [Eh]
    ---------------------

    Doubly Occupied:                                                      

       1A1   -10.558133     2A1   -10.555925     3A1    -0.839130  
       4A1    -0.636002     5A1    -0.556099     1B2    -0.341927  
       1B1    -0.341927  

    Virtual:                                                              

       2B1     0.092600     2B2     0.092600     6A1     0.151620  
       7A1     0.199505     8A1     0.470030     9A1     0.535626  
       3B2     0.597015     3B1     0.597015     4B1     0.710087  
       4B2     0.710087    10A1     0.810027    11A1     0.884940  
      12A1     1.083023    13A1     1.257882    14A1     1.586129  

    Final Occupation by Irrep:
             A1    A2    B1    B2 
    DOCC [     5,    0,    1,    1 ]

  @DF-RKS Final Energy:   -77.27273358377148

   => Energetics <=

    Nuclear Repulsion Energy =             24.3232393838559098
    One-Electron Energy =                -150.9815957949549272
    Two-Electron Energy =                  54.9060954668643433
    DFT Exchange-Correlation Energy =      -5.5204726395368100
    Empirical Dispersion Energy =           0.0000000000000000
    VV10 Nonlocal Energy =                  0.0000000000000000
    Total Energy =                        -77.2727335837714833

Computation Completed


Properties will be evaluated at   0.000000,   0.000000,   0.000000 [a0]

Properties computed using the SCF density matrix

  Nuclear Dipole Moment: [e a0]
     X:     0.0034      Y:     0.0000      Z:     0.0000

  Electronic Dipole Moment: [e a0]
     X:    -0.0018      Y:     0.0000      Z:     0.0000

  Dipole Moment: [e a0]
     X:     0.0016      Y:     0.0000      Z:     0.0000     Total:     0.0016

  Dipole Moment: [D]
     X:     0.0040      Y:     0.0000      Z:     0.0000     Total:     0.0040


*** tstop() called on atlantis at Tue Apr 19 02:08:50 2022
Module time:
	user time   =       1.88 seconds =       0.03 minutes
	system time =       0.02 seconds =       0.00 minutes
	total time  =          2 seconds =       0.03 minutes
Total time:
	user time   =      28.07 seconds =       0.47 minutes
	system time =       0.26 seconds =       0.00 minutes
	total time  =         29 seconds =       0.48 minutes

*** tstart() called on atlantis
*** at Tue Apr 19 02:08:50 2022


         ------------------------------------------------------------
                                   SCF GRAD                          
                          Rob Parrish, Justin Turney,                
                       Andy Simmonett, and Alex Sokolov              
         ------------------------------------------------------------

  ==> Geometry <==

    Molecular point group: c2v
    Full point group: C_inf_v

    Geometry (in Angstrom), charge = 0, multiplicity = 1:

       Center              X                  Y                   Z               Mass       
    ------------   -----------------  -----------------  -----------------  -----------------
         C           -0.614610333491     0.000000000000     0.000000000000    12.000000000000
         C            0.614309666509     0.000000000000     0.000000000000    12.000000000000
         H           -1.687440004874     0.000000000000     0.000000000000     1.007825032230
         H            1.691019995126     0.000000000000     0.000000000000     1.007825032230

  Nuclear repulsion =   24.323239383855910

  ==> Basis Set <==

  Basis Set: 6-31G
    Blend: 6-31G
    Number of shells: 14
    Number of basis function: 22
    Number of Cartesian functions: 22
    Spherical Harmonics?: false
    Max angular momentum: 1

  ==> DFJKGrad: Density-Fitted SCF Gradients <==

    Gradient:                    1
    J tasked:                  Yes
    K tasked:                  Yes
    wK tasked:                  No
    OpenMP threads:              1
    Integrals threads:           1
    Memory [MiB]:              375
    Schwarz Cutoff:          0E+00
    Fitting Condition:       1E-10

   => Auxiliary Basis Set <=

  Basis Set: (6-31G AUX)
    Blend: CC-PVDZ-JKFIT
    Number of shells: 66
    Number of basis function: 212
    Number of Cartesian functions: 212
    Spherical Harmonics?: false
    Max angular momentum: 3

  ==> DFT Potential <==

   => Composite Functional: M06-2X <= 

    Hybrid M06-2X Meta-GGA XC Functional

    Y. Zhao and D. G. Truhlar,  Theor. Chem. Acc., 120, 215, 2008


    Deriv               =              1
    GGA                 =           TRUE
    Meta                =           TRUE

    Exchange Hybrid     =           TRUE
    MP2 Hybrid          =          FALSE

   => Exchange Functionals <=

    1.0000   XC_HYB_MGGA_X_M06_2X

   => Exact (HF) Exchange <=

    0.5400               HF 

   => Correlation Functionals <=

    1.0000   XC_MGGA_C_M06_2X

   => Molecular Quadrature <=

    Radial Scheme          =       TREUTLER
    Pruning Scheme         =           FLAT
    Nuclear Scheme         =       TREUTLER

    BS radius alpha        =              1
    Pruning alpha          =              1
    Radial Points          =             75
    Spherical Points       =            302
    Total Points           =          86838
    Total Blocks           =            726
    Max Points             =            255
    Max Functions          =             22


  -Total Gradient:
     Atom            X                  Y                   Z
    ------   -----------------  -----------------  -----------------
       1       -0.038559494577     0.000000000000     0.000000000000
       2        0.035624751915     0.000000000000     0.000000000000
       3       -0.006082419217     0.000000000000     0.000000000000
       4        0.009016860919     0.000000000000     0.000000000000


*** tstop() called on atlantis at Tue Apr 19 02:08:50 2022
Module time:
	user time   =       0.31 seconds =       0.01 minutes
	system time =       0.00 seconds =       0.00 minutes
	total time  =          0 seconds =       0.00 minutes
Total time:
	user time   =      28.38 seconds =       0.47 minutes
	system time =       0.26 seconds =       0.00 minutes
	total time  =         29 seconds =       0.48 minutes

         ----------------------------------------------------------
                                   FINDIF
                     R. A. King and Jonathon Misiewicz
         ---------------------------------------------------------

  Computing second-derivative from gradients using projected, 
  symmetry-adapted, cartesian coordinates.

  12 gradients passed in, including the reference geometry.
  Generating complete list of displacements from unique ones.

    Operation 3 takes plus displacements of irrep B1g to minus ones.
    Operation 2 takes plus displacements of irrep B2g to minus ones.
    Operation 3 takes plus displacements of irrep B1u to minus ones.
    Operation 2 takes plus displacements of irrep B2u to minus ones.
    Operation 2 takes plus displacements of irrep B3u to minus ones.

-------------------------------------------------------------


  ==> Harmonic Vibrational Analysis <==

  non-mass-weighted Hessian:       Symmetric? True   Hermitian? True   Lin Dep Dim?  3 (0)
  projection of translations (True) and rotations (False) removed 3 degrees of freedom (5)
  total projector:                 Symmetric? True   Hermitian? True   Lin Dep Dim?  3 (3)
  mass-weighted Hessian:           Symmetric? True   Hermitian? True   Lin Dep Dim?  3 (0)
  pre-proj  low-frequency mode:    0.0000i [cm^-1]
  pre-proj  low-frequency mode:    0.0000i [cm^-1]
  pre-proj  low-frequency mode:    0.0000  [cm^-1]
  pre-proj  low-frequency mode:  258.9683  [cm^-1]
  pre-proj  low-frequency mode:  258.9683  [cm^-1]
  pre-proj  all modes:['0.0000i' '0.0000i' '0.0000' '258.9683' '258.9683' '781.5997' '781.5998'
 '851.8076' '851.8077' '1986.7004' '3372.3747' '3473.0868']
  projected mass-weighted Hessian: Symmetric? True   Hermitian? True   Lin Dep Dim?  3 (3)
  post-proj low-frequency mode:    0.0000i [cm^-1] (TR)
  post-proj low-frequency mode:    0.0000  [cm^-1] (TR)
  post-proj low-frequency mode:    0.0000  [cm^-1] (TR)
  post-proj low-frequency mode:  258.9683  [cm^-1] (V)
  post-proj low-frequency mode:  258.9683  [cm^-1] (V)
  post-proj  all modes:['0.0000i' '0.0000' '0.0000' '258.9683' '258.9683' '781.5997' '781.5998'
 '851.8076' '851.8077' '1986.7004' '3372.3747' '3473.0868']

  Note that "Vibration"s include 2 un-projected rotation-like modes.
  Vibration                       4                   5                   6           
  Freq [cm^-1]                 258.9683            258.9683            781.5997       
  Irrep                          B1g                 B2g                 B2g          
  Reduced mass [u]              2.2431              2.2431              1.5879        
  Force const [mDyne/A]         0.0886              0.0886              0.5715        
  Turning point v=0 [a0]        0.4553              0.4553              0.3115        
  RMS dev v=0 [a0 u^1/2]        0.4821              0.4821              0.2775        
  Char temp [K]                372.5977            372.5978           1124.5480       
  ----------------------------------------------------------------------------------
      1   C                0.00  0.24 -0.00    0.00  0.00  0.24   -0.00 -0.00 -0.16   
      2   C                0.00 -0.24  0.00    0.00 -0.00 -0.24   -0.00  0.00  0.16   
      3   H                0.00  0.67 -0.00    0.00  0.00  0.67   -0.00  0.00  0.69   
      4   H                0.00 -0.67  0.00    0.00 -0.00 -0.67   -0.00 -0.00 -0.69   

  Vibration                       7                   8                   9           
  Freq [cm^-1]                 781.5998            851.8076            851.8077       
  Irrep                          B1g                 B2u                 B1u          
  Reduced mass [u]              1.5879              1.0848              1.0848        
  Force const [mDyne/A]         0.5715              0.4638              0.4638        
  Turning point v=0 [a0]        0.3115              0.3610              0.3610        
  RMS dev v=0 [a0 u^1/2]        0.2775              0.2658              0.2658        
  Char temp [K]               1124.5480           1225.5616           1225.5617       
  ----------------------------------------------------------------------------------
      1   C               -0.00 -0.16  0.00   -0.00 -0.06  0.00   -0.00 -0.00 -0.06   
      2   C               -0.00  0.16 -0.00   -0.00 -0.06  0.00   -0.00 -0.00 -0.06   
      3   H                0.00  0.69 -0.00    0.00  0.70 -0.00   -0.00  0.00  0.70   
      4   H               -0.00 -0.69  0.00   -0.00  0.70 -0.00    0.00  0.00  0.70   

  Vibration                       10                  11                  12          
  Freq [cm^-1]                1986.7004           3372.3747           3473.0868       
  Irrep                           Ag                 B3u                  Ag          
  Reduced mass [u]              3.9020              1.0848              1.2206        
  Force const [mDyne/A]         9.0741              7.2691              8.6745        
  Turning point v=0 [a0]        0.1246              0.1814              0.1685        
  RMS dev v=0 [a0 u^1/2]        0.1741              0.1336              0.1317        
  Char temp [K]               2858.4195           4852.0963           4996.9987       
  ----------------------------------------------------------------------------------
      1   C                0.36  0.00 -0.00   -0.06  0.00 -0.00   -0.10  0.00 -0.00   
      2   C               -0.36 -0.00  0.00   -0.06 -0.00  0.00    0.10 -0.00  0.00   
      3   H                0.61 -0.00  0.00    0.70 -0.00 -0.00    0.70 -0.00  0.00   
      4   H               -0.61  0.00 -0.00    0.70  0.00 -0.00   -0.70  0.00 -0.00   

  ==> Thermochemistry Components <==

  Entropy, S
    Electronic S            0.000 [cal/(mol K)]        0.000 [J/(mol K)]       0.00000000 [mEh/K] (multiplicity = 1)
    Translational S        35.704 [cal/(mol K)]      149.387 [J/(mol K)]       0.05689862 [mEh/K] (mol. weight = 26.0157 [u], P = 101325.00 [Pa])
    Rotational S           10.952 [cal/(mol K)]       45.824 [J/(mol K)]       0.01745345 [mEh/K] (symmetry no. = 2)
    Vibrational S           4.123 [cal/(mol K)]       17.249 [J/(mol K)]       0.00656974 [mEh/K]
  Total S                  50.779 [cal/(mol K)]      212.460 [J/(mol K)]       0.08092181 [mEh/K]
  Correction S              0.000 [cal/(mol K)]        0.000 [J/(mol K)]       0.00000000 [mEh/K]

  Constant volume heat capacity, Cv
    Electronic Cv           0.000 [cal/(mol K)]        0.000 [J/(mol K)]       0.00000000 [mEh/K]
    Translational Cv        2.981 [cal/(mol K)]       12.472 [J/(mol K)]       0.00475022 [mEh/K]
    Rotational Cv           1.987 [cal/(mol K)]        8.314 [J/(mol K)]       0.00316681 [mEh/K]
    Vibrational Cv          6.009 [cal/(mol K)]       25.142 [J/(mol K)]       0.00957619 [mEh/K]
  Total Cv                 10.977 [cal/(mol K)]       45.928 [J/(mol K)]       0.01749322 [mEh/K]
  Correction Cv             0.000 [cal/(mol K)]        0.000 [J/(mol K)]       0.00000000 [mEh/K]

  Constant pressure heat capacity, Cp
    Electronic Cp           0.000 [cal/(mol K)]        0.000 [J/(mol K)]       0.00000000 [mEh/K]
    Translational Cp        4.968 [cal/(mol K)]       20.786 [J/(mol K)]       0.00791703 [mEh/K]
    Rotational Cp           1.987 [cal/(mol K)]        8.314 [J/(mol K)]       0.00316681 [mEh/K]
    Vibrational Cp          6.009 [cal/(mol K)]       25.142 [J/(mol K)]       0.00957619 [mEh/K]
  Total Cp                 12.964 [cal/(mol K)]       54.243 [J/(mol K)]       0.02066003 [mEh/K]
  Correction Cp             0.000 [cal/(mol K)]        0.000 [J/(mol K)]       0.00000000 [mEh/K]

  ==> Thermochemistry Energy Analysis <==

  Raw electronic energy, E0
  Total E0, Electronic energy at well bottom at 0 [K]                  -77.27273897 [Eh]

  Zero-point energy, ZPE_vib = Sum_i nu_i / 2
    Electronic ZPE          0.000 [kcal/mol]        0.000 [kJ/mol]       0.00000000 [Eh]
    Translational ZPE       0.000 [kcal/mol]        0.000 [kJ/mol]       0.00000000 [Eh]
    Rotational ZPE          0.000 [kcal/mol]        0.000 [kJ/mol]       0.00000000 [Eh]
    Vibrational ZPE        18.037 [kcal/mol]       75.466 [kJ/mol]       0.02874344 [Eh]        6308.457 [cm^-1]
  Correction ZPE           18.037 [kcal/mol]       75.466 [kJ/mol]       0.02874344 [Eh]        6308.457 [cm^-1]
  Total ZPE, Electronic energy at 0 [K]                                -77.24399552 [Eh]

  Thermal Energy, E (includes ZPE)
    Electronic E            0.000 [kcal/mol]        0.000 [kJ/mol]       0.00000000 [Eh]
    Translational E         0.889 [kcal/mol]        3.718 [kJ/mol]       0.00141628 [Eh]
    Rotational E            0.592 [kcal/mol]        2.479 [kJ/mol]       0.00094418 [Eh]
    Vibrational E          18.819 [kcal/mol]       78.737 [kJ/mol]       0.02998926 [Eh]
  Correction E             20.300 [kcal/mol]       84.934 [kJ/mol]       0.03234972 [Eh]
  Total E, Electronic energy at  298.15 [K]                            -77.24038925 [Eh]

  Enthalpy, H_trans = E_trans + k_B * T
    Electronic H            0.000 [kcal/mol]        0.000 [kJ/mol]       0.00000000 [Eh]
    Translational H         1.481 [kcal/mol]        6.197 [kJ/mol]       0.00236046 [Eh]
    Rotational H            0.592 [kcal/mol]        2.479 [kJ/mol]       0.00094418 [Eh]
    Vibrational H          18.819 [kcal/mol]       78.737 [kJ/mol]       0.02998926 [Eh]
  Correction H             20.892 [kcal/mol]       87.413 [kJ/mol]       0.03329390 [Eh]
  Total H, Enthalpy at  298.15 [K]                                     -77.23944506 [Eh]

  Gibbs free energy, G = H - T * S
    Electronic G            0.000 [kcal/mol]        0.000 [kJ/mol]       0.00000000 [Eh]
    Translational G        -9.164 [kcal/mol]      -38.342 [kJ/mol]      -0.01460386 [Eh]
    Rotational G           -2.673 [kcal/mol]      -11.183 [kJ/mol]      -0.00425956 [Eh]
    Vibrational G          17.589 [kcal/mol]       73.594 [kJ/mol]       0.02803049 [Eh]
  Correction G              5.752 [kcal/mol]       24.068 [kJ/mol]       0.00916707 [Eh]
  Total G, Free enthalpy at  298.15 [K]                                -77.26357190 [Eh]

    Psi4 stopped on: Tuesday, 19 April 2022 02:08AM
    Psi4 wall time for execution: 0:00:28.79

*** Psi4 exiting successfully. Buy a developer a beer!
