
    -----------------------------------------------------------------------
          Psi4: An Open-Source Ab Initio Electronic Structure Package
                               Psi4 1.3.2 release

                         Git: Rev {HEAD} ecbda83 


    R. M. Parrish, L. A. Burns, D. G. A. Smith, A. C. Simmonett,
    A. E. DePrince III, E. G. Hohenstein, U. Bozkaya, A. Yu. Sokolov,
    R. Di Remigio, R. M. Richard, J. F. Gonthier, A. M. James,
    H. R. McAlexander, A. Kumar, M. Saitow, X. Wang, B. P. Pritchard,
    P. Verma, H. F. Schaefer III, K. Patkowski, R. A. King, E. F. Valeev,
    F. A. Evangelista, J. M. Turney, T. D. Crawford, and C. D. Sherrill,
    J. Chem. Theory Comput. 13(7) pp 3185--3197 (2017).
    (doi: 10.1021/acs.jctc.7b00174)


                         Additional Contributions by
    P. Kraus, H. Kruse, M. H. Lechner, M. C. Schieber, R. A. Shaw,
    A. Alenaizan, R. Galvelis, Z. L. Glick, S. Lehtola, and J. P. Misiewicz

    -----------------------------------------------------------------------


    Psi4 started on: Tuesday, 19 April 2022 11:31AM

    Process ID: 32549
    Host:       atlantis
    PSIDATADIR: /home/akrom/software/anaconda3/envs/ffpenv/share/psi4
    Memory:     500.0 MiB
    Threads:    1
    
  ==> Input File <==

--------------------------------------------------------------------------
set basis  cc-pVTZ
molecule {
0 1
   C        0.32153        0.81326        0.00000
   C       -0.86505       -0.12817        0.00000
   C        0.54353       -0.68508        0.00000
   H        0.53795        1.36069       -0.92039
   H        0.53795        1.36069        0.92039
   H       -1.44742       -0.21449        0.92034
   H       -1.44742       -0.21449       -0.92034
   H        0.90937       -1.14629       -0.92037
   H        0.90937       -1.14629        0.92037
}
energy('m06-2x')
frequencies('m06-2x')
--------------------------------------------------------------------------

*** tstart() called on atlantis
*** at Tue Apr 19 11:31:09 2022

   => Loading Basis Set <=

    Name: CC-PVTZ
    Role: ORBITAL
    Keyword: BASIS
    atoms 1-3 entry C          line   186 file /home/akrom/software/anaconda3/envs/ffpenv/share/psi4/basis/cc-pvtz.gbs 
    atoms 4-9 entry H          line    23 file /home/akrom/software/anaconda3/envs/ffpenv/share/psi4/basis/cc-pvtz.gbs 


         ---------------------------------------------------------
                                   SCF
               by Justin Turney, Rob Parrish, Andy Simmonett
                          and Daniel G. A. Smith
                              RKS Reference
                        1 Threads,    500 MiB Core
         ---------------------------------------------------------

  ==> Geometry <==

    Molecular point group: cs
    Full point group: Cs

    Geometry (in Angstrom), charge = 0, multiplicity = 1:

       Center              X                  Y                   Z               Mass       
    ------------   -----------------  -----------------  -----------------  -----------------
         C            0.321531939855     0.813261460475     0.000000000000    12.000000000000
         C           -0.865048060145    -0.128168539525     0.000000000000    12.000000000000
         C            0.543531939855    -0.685078539525     0.000000000000    12.000000000000
         H            0.537951939855     1.360691460475    -0.920390000000     1.007825032230
         H            0.537951939855     1.360691460475     0.920390000000     1.007825032230
         H           -1.447418060145    -0.214488539525     0.920340000000     1.007825032230
         H           -1.447418060145    -0.214488539525    -0.920340000000     1.007825032230
         H            0.909371939855    -1.146288539525    -0.920370000000     1.007825032230
         H            0.909371939855    -1.146288539525     0.920370000000     1.007825032230

  Running in cs symmetry.

  Rotational constants: A =      0.66472  B =      0.66470  C =      0.41647 [cm^-1]
  Rotational constants: A =  19927.70596  B =  19927.20236  C =  12485.44714 [MHz]
  Nuclear repulsion =   75.281464809014025

  Charge       = 0
  Multiplicity = 1
  Electrons    = 24
  Nalpha       = 12
  Nbeta        = 12

  ==> Algorithm <==

  SCF Algorithm Type is DF.
  DIIS enabled.
  MOM disabled.
  Fractional occupation disabled.
  Guess Type is SAD.
  Energy threshold   = 1.00e-06
  Density threshold  = 1.00e-06
  Integral threshold = 0.00e+00

  ==> Primary Basis <==

  Basis Set: CC-PVTZ
    Blend: CC-PVTZ
    Number of shells: 66
    Number of basis function: 174
    Number of Cartesian functions: 195
    Spherical Harmonics?: true
    Max angular momentum: 3

  ==> DFT Potential <==

   => Composite Functional: M06-2X <= 

    Hybrid M06-2X Meta-GGA XC Functional

    Y. Zhao and D. G. Truhlar,  Theor. Chem. Acc., 120, 215, 2008


    Deriv               =              1
    GGA                 =           TRUE
    Meta                =           TRUE

    Exchange Hybrid     =           TRUE
    MP2 Hybrid          =          FALSE

   => Exchange Functionals <=

    1.0000   XC_HYB_MGGA_X_M06_2X

   => Exact (HF) Exchange <=

    0.5400               HF 

   => Correlation Functionals <=

    1.0000   XC_MGGA_C_M06_2X

   => Molecular Quadrature <=

    Radial Scheme          =       TREUTLER
    Pruning Scheme         =           FLAT
    Nuclear Scheme         =       TREUTLER

    BS radius alpha        =              1
    Pruning alpha          =              1
    Radial Points          =             75
    Spherical Points       =            302
    Total Points           =         201034
    Total Blocks           =           1571
    Max Points             =            256
    Max Functions          =            174

   => Loading Basis Set <=

    Name: (CC-PVTZ AUX)
    Role: JKFIT
    Keyword: DF_BASIS_SCF
    atoms 1-3 entry C          line   125 file /home/akrom/software/anaconda3/envs/ffpenv/share/psi4/basis/cc-pvtz-jkfit.gbs 
    atoms 4-9 entry H          line    51 file /home/akrom/software/anaconda3/envs/ffpenv/share/psi4/basis/cc-pvtz-jkfit.gbs 

  ==> Pre-Iterations <==

   -------------------------------------------------------
    Irrep   Nso     Nmo     Nalpha   Nbeta   Ndocc  Nsocc
   -------------------------------------------------------
     A'       102     102       0       0       0       0
     A"        72      72       0       0       0       0
   -------------------------------------------------------
    Total     174     174      12      12      12       0
   -------------------------------------------------------

  ==> Integral Setup <==

  DFHelper Memory: AOs need 0.102 GiB; user supplied 0.102 GiB. Using in-core AOs.

  ==> MemDFJK: Density-Fitted J/K Matrices <==

    J tasked:                   Yes
    K tasked:                   Yes
    wK tasked:                   No
    OpenMP threads:               1
    Memory [MiB]:               104
    Algorithm:                 Core
    Schwarz Cutoff:           1E-12
    Mask sparsity (%):       0.0000
    Fitting Condition:        1E-10

   => Auxiliary Basis Set <=

  Basis Set: (CC-PVTZ AUX)
    Blend: CC-PVTZ-JKFIT
    Number of shells: 135
    Number of basis function: 417
    Number of Cartesian functions: 498
    Spherical Harmonics?: true
    Max angular momentum: 4

  Cached 12.5% of DFT collocation blocks in 0.264 [GiB].

  Minimum eigenvalue in the overlap matrix is 6.9054665632E-04.
  Using Symmetric Orthogonalization.

  SCF Guess: Superposition of Atomic Densities via on-the-fly atomic UHF.

  ==> Iterations <==

                           Total Energy        Delta E     RMS |[F,P]|

   @DF-RKS iter SAD:  -117.51730089382596   -1.17517e+02   0.00000e+00 
   @DF-RKS iter   1:  -117.62886349661990   -1.11563e-01   5.69328e-03 DIIS
   @DF-RKS iter   2:  -117.64310475121201   -1.42413e-02   5.44082e-03 DIIS
   @DF-RKS iter   3:  -117.87628720626141   -2.33182e-01   3.16701e-04 DIIS
   @DF-RKS iter   4:  -117.87702939218495   -7.42186e-04   4.12056e-05 DIIS
   @DF-RKS iter   5:  -117.87704543646414   -1.60443e-05   7.07612e-06 DIIS
   @DF-RKS iter   6:  -117.87704593690799   -5.00444e-07   5.82184e-07 DIIS
  Energy and wave function converged.


  ==> Post-Iterations <==

    Orbital Energies [Eh]
    ---------------------

    Doubly Occupied:                                                      

       1Ap   -10.539180     2Ap   -10.538576     3Ap   -10.538572  
       4Ap    -0.943626     5Ap    -0.678504     6Ap    -0.678491  
       1App   -0.565199     7Ap    -0.527661     2App   -0.424074  
       3App   -0.424049     8Ap    -0.350518     9Ap    -0.350491  

    Virtual:                                                              

      10Ap     0.078826     4App    0.093467    11Ap     0.113921  
      12Ap     0.113924    13Ap     0.171849     5App    0.178862  
       6App    0.178873    14Ap     0.240392    15Ap     0.240401  
      16Ap     0.248601     7App    0.323691    17Ap     0.339407  
      18Ap     0.339417     8App    0.405012     9App    0.405066  
      19Ap     0.430512    10App    0.457553    20Ap     0.471435  
      21Ap     0.473122    22Ap     0.473158    23Ap     0.505653  
      11App    0.539446    12App    0.539510    24Ap     0.542781  
      25Ap     0.542809    26Ap     0.697552    27Ap     0.697573  
      13App    0.773498    28Ap     0.825040    14App    0.858691  
      15App    0.858721    29Ap     0.954903    30Ap     0.954926  
      16App    1.000870    17App    1.023226    18App    1.023247  
      31Ap     1.050754    32Ap     1.050799    33Ap     1.081858  
      34Ap     1.126057    19App    1.135280    35Ap     1.161531  
      36Ap     1.161565    20App    1.188294    21App    1.188342  
      37Ap     1.266442    38Ap     1.294441    39Ap     1.294459  
      22App    1.306034    23App    1.351206    24App    1.351237  
      40Ap     1.395046    41Ap     1.480045    42Ap     1.480061  
      25App    1.558731    26App    1.558800    43Ap     1.567467  
      44Ap     1.584837    45Ap     1.584914    27App    1.658830  
      28App    2.169897    46Ap     2.224953    47Ap     2.224965  
      48Ap     2.240037    29App    2.303525    49Ap     2.346698  
      50Ap     2.383482    51Ap     2.383655    30App    2.465650  
      31App    2.465847    52Ap     2.660539    53Ap     2.660617  
      32App    2.687173    33App    2.687226    54Ap     2.715896  
      55Ap     2.727153    56Ap     2.765059    57Ap     2.765084  
      34App    2.884531    35App    2.884788    36App    2.885586  
      58Ap     2.892576    59Ap     2.972689    37App    3.019799  
      38App    3.019935    39App    3.054536    60Ap     3.078090  
      61Ap     3.078168    62Ap     3.122852    63Ap     3.122885  
      40App    3.133075    41App    3.137462    42App    3.137497  
      64Ap     3.278958    43App    3.294226    44App    3.294292  
      65Ap     3.304765    66Ap     3.354062    67Ap     3.354131  
      45App    3.362852    46App    3.453649    47App    3.499100  
      68Ap     3.549581    48App    3.608470    49App    3.608598  
      69Ap     3.651887    70Ap     3.651947    50App    3.656400  
      51App    3.693349    52App    3.693411    71Ap     3.713749  
      72Ap     3.713848    73Ap     3.791088    74Ap     3.868469  
      53App    3.885667    54App    3.885683    75Ap     3.893542  
      76Ap     3.893655    77Ap     4.028070    78Ap     4.028204  
      55App    4.089554    56App    4.089972    79Ap     4.115819  
      80Ap     4.115916    81Ap     4.125560    57App    4.149738  
      82Ap     4.190015    83Ap     4.190108    84Ap     4.195365  
      85Ap     4.361408    86Ap     4.361499    58App    4.361705  
      59App    4.361884    87Ap     4.478165    60App    4.546873  
      88Ap     4.594474    89Ap     4.594903    61App    4.795233  
      90Ap     4.887978    62App    4.892099    63App    4.892512  
      91Ap     4.959321    64App    5.022413    65App    5.087143  
      66App    5.087543    92Ap     5.091838    93Ap     5.112896  
      94Ap     5.113342    67App    5.235483    95Ap     5.285519  
      96Ap     5.359000    97Ap     5.359912    98Ap     5.447172  
      99Ap     5.447689    68App    5.710911    69App    5.736991  
      70App    5.737346    71App    5.906593    72App    5.907067  
     100Ap    10.852677   101Ap    12.933583   102Ap    12.933891  

    Final Occupation by Irrep:
             Ap   App 
    DOCC [     9,    3 ]

  @DF-RKS Final Energy:  -117.87704593690799

   => Energetics <=

    Nuclear Repulsion Energy =             75.2814648090140253
    One-Electron Energy =                -305.8783068825191549
    Two-Electron Energy =                 121.6280851530984819
    DFT Exchange-Correlation Energy =      -8.9082890165013460
    Empirical Dispersion Energy =           0.0000000000000000
    VV10 Nonlocal Energy =                  0.0000000000000000
    Total Energy =                       -117.8770459369079759

Computation Completed


Properties will be evaluated at   0.000000,   0.000000,   0.000000 [a0]

Properties computed using the SCF density matrix

  Nuclear Dipole Moment: [e a0]
     X:    -0.0002      Y:    -0.0002      Z:     0.0000

  Electronic Dipole Moment: [e a0]
     X:     0.0003      Y:     0.0000      Z:     0.0000

  Dipole Moment: [e a0]
     X:     0.0002      Y:    -0.0001      Z:     0.0000     Total:     0.0002

  Dipole Moment: [D]
     X:     0.0004      Y:    -0.0003      Z:     0.0000     Total:     0.0005


*** tstop() called on atlantis at Tue Apr 19 11:31:28 2022
Module time:
	user time   =      19.02 seconds =       0.32 minutes
	system time =       0.11 seconds =       0.00 minutes
	total time  =         19 seconds =       0.32 minutes
Total time:
	user time   =      19.02 seconds =       0.32 minutes
	system time =       0.11 seconds =       0.00 minutes
	total time  =         19 seconds =       0.32 minutes
gradient() will perform analytic gradient computation.

*** tstart() called on atlantis
*** at Tue Apr 19 11:31:28 2022

   => Loading Basis Set <=

    Name: CC-PVTZ
    Role: ORBITAL
    Keyword: BASIS
    atoms 1-3 entry C          line   186 file /home/akrom/software/anaconda3/envs/ffpenv/share/psi4/basis/cc-pvtz.gbs 
    atoms 4-9 entry H          line    23 file /home/akrom/software/anaconda3/envs/ffpenv/share/psi4/basis/cc-pvtz.gbs 


         ---------------------------------------------------------
                                   SCF
               by Justin Turney, Rob Parrish, Andy Simmonett
                          and Daniel G. A. Smith
                              RKS Reference
                        1 Threads,    500 MiB Core
         ---------------------------------------------------------

  ==> Geometry <==

    Molecular point group: cs
    Full point group: Cs

    Geometry (in Angstrom), charge = 0, multiplicity = 1:

       Center              X                  Y                   Z               Mass       
    ------------   -----------------  -----------------  -----------------  -----------------
         C            0.321531939855     0.813261460475     0.000000000000    12.000000000000
         C           -0.865048060145    -0.128168539525     0.000000000000    12.000000000000
         C            0.543531939855    -0.685078539525     0.000000000000    12.000000000000
         H            0.537951939855     1.360691460475    -0.920390000000     1.007825032230
         H            0.537951939855     1.360691460475     0.920390000000     1.007825032230
         H           -1.447418060145    -0.214488539525     0.920340000000     1.007825032230
         H           -1.447418060145    -0.214488539525    -0.920340000000     1.007825032230
         H            0.909371939855    -1.146288539525    -0.920370000000     1.007825032230
         H            0.909371939855    -1.146288539525     0.920370000000     1.007825032230

  Running in cs symmetry.

  Rotational constants: A =      0.66472  B =      0.66470  C =      0.41647 [cm^-1]
  Rotational constants: A =  19927.70596  B =  19927.20236  C =  12485.44714 [MHz]
  Nuclear repulsion =   75.281464809014025

  Charge       = 0
  Multiplicity = 1
  Electrons    = 24
  Nalpha       = 12
  Nbeta        = 12

  ==> Algorithm <==

  SCF Algorithm Type is DF.
  DIIS enabled.
  MOM disabled.
  Fractional occupation disabled.
  Guess Type is SAD.
  Energy threshold   = 1.00e-08
  Density threshold  = 1.00e-08
  Integral threshold = 0.00e+00

  ==> Primary Basis <==

  Basis Set: CC-PVTZ
    Blend: CC-PVTZ
    Number of shells: 66
    Number of basis function: 174
    Number of Cartesian functions: 195
    Spherical Harmonics?: true
    Max angular momentum: 3

  ==> DFT Potential <==

   => Composite Functional: M06-2X <= 

    Hybrid M06-2X Meta-GGA XC Functional

    Y. Zhao and D. G. Truhlar,  Theor. Chem. Acc., 120, 215, 2008


    Deriv               =              1
    GGA                 =           TRUE
    Meta                =           TRUE

    Exchange Hybrid     =           TRUE
    MP2 Hybrid          =          FALSE

   => Exchange Functionals <=

    1.0000   XC_HYB_MGGA_X_M06_2X

   => Exact (HF) Exchange <=

    0.5400               HF 

   => Correlation Functionals <=

    1.0000   XC_MGGA_C_M06_2X

   => Molecular Quadrature <=

    Radial Scheme          =       TREUTLER
    Pruning Scheme         =           FLAT
    Nuclear Scheme         =       TREUTLER

    BS radius alpha        =              1
    Pruning alpha          =              1
    Radial Points          =             75
    Spherical Points       =            302
    Total Points           =         201034
    Total Blocks           =           1571
    Max Points             =            256
    Max Functions          =            174

   => Loading Basis Set <=

    Name: (CC-PVTZ AUX)
    Role: JKFIT
    Keyword: DF_BASIS_SCF
    atoms 1-3 entry C          line   125 file /home/akrom/software/anaconda3/envs/ffpenv/share/psi4/basis/cc-pvtz-jkfit.gbs 
    atoms 4-9 entry H          line    51 file /home/akrom/software/anaconda3/envs/ffpenv/share/psi4/basis/cc-pvtz-jkfit.gbs 

  ==> Pre-Iterations <==

   -------------------------------------------------------
    Irrep   Nso     Nmo     Nalpha   Nbeta   Ndocc  Nsocc
   -------------------------------------------------------
     A'       102     102       0       0       0       0
     A"        72      72       0       0       0       0
   -------------------------------------------------------
    Total     174     174      12      12      12       0
   -------------------------------------------------------

  ==> Integral Setup <==

  DFHelper Memory: AOs need 0.102 GiB; user supplied 0.102 GiB. Using in-core AOs.

  ==> MemDFJK: Density-Fitted J/K Matrices <==

    J tasked:                   Yes
    K tasked:                   Yes
    wK tasked:                   No
    OpenMP threads:               1
    Memory [MiB]:               104
    Algorithm:                 Core
    Schwarz Cutoff:           1E-12
    Mask sparsity (%):       0.0000
    Fitting Condition:        1E-10

   => Auxiliary Basis Set <=

  Basis Set: (CC-PVTZ AUX)
    Blend: CC-PVTZ-JKFIT
    Number of shells: 135
    Number of basis function: 417
    Number of Cartesian functions: 498
    Spherical Harmonics?: true
    Max angular momentum: 4

  Cached 12.5% of DFT collocation blocks in 0.264 [GiB].

  Minimum eigenvalue in the overlap matrix is 6.9054665632E-04.
  Using Symmetric Orthogonalization.

  SCF Guess: Superposition of Atomic Densities via on-the-fly atomic UHF.

  ==> Iterations <==

                           Total Energy        Delta E     RMS |[F,P]|

   @DF-RKS iter SAD:  -117.51730089375457   -1.17517e+02   0.00000e+00 
   @DF-RKS iter   1:  -117.62886349654588   -1.11563e-01   5.69328e-03 DIIS
   @DF-RKS iter   2:  -117.64310475113744   -1.42413e-02   5.44082e-03 DIIS
   @DF-RKS iter   3:  -117.87628720618527   -2.33182e-01   3.16701e-04 DIIS
   @DF-RKS iter   4:  -117.87702939210881   -7.42186e-04   4.12056e-05 DIIS
   @DF-RKS iter   5:  -117.87704543638796   -1.60443e-05   7.07612e-06 DIIS
   @DF-RKS iter   6:  -117.87704593683144   -5.00443e-07   5.82184e-07 DIIS
   @DF-RKS iter   7:  -117.87704594537135   -8.53991e-09   8.76126e-08 DIIS
   @DF-RKS iter   8:  -117.87704594550199   -1.30640e-10   5.86180e-08 DIIS
   @DF-RKS iter   9:  -117.87704594552815   -2.61622e-11   9.92605e-09 DIIS
  Energy and wave function converged.


  ==> Post-Iterations <==

    Orbital Energies [Eh]
    ---------------------

    Doubly Occupied:                                                      

       1Ap   -10.539181     2Ap   -10.538579     3Ap   -10.538571  
       4Ap    -0.943628     5Ap    -0.678507     6Ap    -0.678493  
       1App   -0.565200     7Ap    -0.527662     2App   -0.424076  
       3App   -0.424050     8Ap    -0.350521     9Ap    -0.350494  

    Virtual:                                                              

      10Ap     0.078826     4App    0.093468    11Ap     0.113922  
      12Ap     0.113925    13Ap     0.171848     5App    0.178864  
       6App    0.178875    14Ap     0.240391    15Ap     0.240400  
      16Ap     0.248601     7App    0.323691    17Ap     0.339406  
      18Ap     0.339416     8App    0.405011     9App    0.405065  
      19Ap     0.430511    10App    0.457553    20Ap     0.471434  
      21Ap     0.473122    22Ap     0.473158    23Ap     0.505655  
      11App    0.539447    12App    0.539511    24Ap     0.542782  
      25Ap     0.542809    26Ap     0.697551    27Ap     0.697571  
      13App    0.773497    28Ap     0.825039    14App    0.858690  
      15App    0.858720    29Ap     0.954902    30Ap     0.954926  
      16App    1.000870    17App    1.023226    18App    1.023247  
      31Ap     1.050754    32Ap     1.050799    33Ap     1.081857  
      34Ap     1.126056    19App    1.135279    35Ap     1.161529  
      36Ap     1.161563    20App    1.188293    21App    1.188341  
      37Ap     1.266440    38Ap     1.294440    39Ap     1.294459  
      22App    1.306034    23App    1.351206    24App    1.351237  
      40Ap     1.395046    41Ap     1.480045    42Ap     1.480061  
      25App    1.558730    26App    1.558799    43Ap     1.567466  
      44Ap     1.584836    45Ap     1.584912    27App    1.658828  
      28App    2.169895    46Ap     2.224952    47Ap     2.224964  
      48Ap     2.240036    29App    2.303524    49Ap     2.346698  
      50Ap     2.383481    51Ap     2.383654    30App    2.465649  
      31App    2.465845    52Ap     2.660538    53Ap     2.660615  
      32App    2.687171    33App    2.687224    54Ap     2.715894  
      55Ap     2.727152    56Ap     2.765057    57Ap     2.765083  
      34App    2.884530    35App    2.884788    36App    2.885585  
      58Ap     2.892574    59Ap     2.972686    37App    3.019797  
      38App    3.019934    39App    3.054534    60Ap     3.078087  
      61Ap     3.078166    62Ap     3.122851    63Ap     3.122883  
      40App    3.133074    41App    3.137460    42App    3.137496  
      64Ap     3.278956    43App    3.294224    44App    3.294290  
      65Ap     3.304763    66Ap     3.354061    67Ap     3.354128  
      45App    3.362850    46App    3.453647    47App    3.499098  
      68Ap     3.549579    48App    3.608468    49App    3.608596  
      69Ap     3.651886    70Ap     3.651946    50App    3.656398  
      51App    3.693347    52App    3.693408    71Ap     3.713747  
      72Ap     3.713845    73Ap     3.791087    74Ap     3.868466  
      53App    3.885665    54App    3.885681    75Ap     3.893540  
      76Ap     3.893654    77Ap     4.028069    78Ap     4.028203  
      55App    4.089551    56App    4.089969    79Ap     4.115817  
      80Ap     4.115913    81Ap     4.125558    57App    4.149735  
      82Ap     4.190013    83Ap     4.190106    84Ap     4.195364  
      85Ap     4.361407    86Ap     4.361498    58App    4.361702  
      59App    4.361881    87Ap     4.478162    60App    4.546870  
      88Ap     4.594471    89Ap     4.594900    61App    4.795231  
      90Ap     4.887976    62App    4.892096    63App    4.892509  
      91Ap     4.959323    64App    5.022411    65App    5.087141  
      66App    5.087541    92Ap     5.091836    93Ap     5.112893  
      94Ap     5.113339    67App    5.235481    95Ap     5.285517  
      96Ap     5.358998    97Ap     5.359909    98Ap     5.447172  
      99Ap     5.447688    68App    5.710910    69App    5.736990  
      70App    5.737345    71App    5.906592    72App    5.907066  
     100Ap    10.852675   101Ap    12.933582   102Ap    12.933891  

    Final Occupation by Irrep:
             Ap   App 
    DOCC [     9,    3 ]

  @DF-RKS Final Energy:  -117.87704594552815

   => Energetics <=

    Nuclear Repulsion Energy =             75.2814648090140253
    One-Electron Energy =                -305.8782479010486668
    Two-Electron Energy =                 121.6280293177444776
    DFT Exchange-Correlation Energy =      -8.9082921712380099
    Empirical Dispersion Energy =           0.0000000000000000
    VV10 Nonlocal Energy =                  0.0000000000000000
    Total Energy =                       -117.8770459455281525

Computation Completed


Properties will be evaluated at   0.000000,   0.000000,   0.000000 [a0]

Properties computed using the SCF density matrix

  Nuclear Dipole Moment: [e a0]
     X:    -0.0002      Y:    -0.0002      Z:     0.0000

  Electronic Dipole Moment: [e a0]
     X:     0.0003      Y:     0.0001      Z:     0.0000

  Dipole Moment: [e a0]
     X:     0.0001      Y:    -0.0001      Z:     0.0000     Total:     0.0002

  Dipole Moment: [D]
     X:     0.0004      Y:    -0.0003      Z:     0.0000     Total:     0.0005


*** tstop() called on atlantis at Tue Apr 19 11:31:55 2022
Module time:
	user time   =      26.80 seconds =       0.45 minutes
	system time =       0.05 seconds =       0.00 minutes
	total time  =         27 seconds =       0.45 minutes
Total time:
	user time   =      45.82 seconds =       0.76 minutes
	system time =       0.16 seconds =       0.00 minutes
	total time  =         46 seconds =       0.77 minutes

*** tstart() called on atlantis
*** at Tue Apr 19 11:31:55 2022


         ------------------------------------------------------------
                                   SCF GRAD                          
                          Rob Parrish, Justin Turney,                
                       Andy Simmonett, and Alex Sokolov              
         ------------------------------------------------------------

  ==> Geometry <==

    Molecular point group: cs
    Full point group: Cs

    Geometry (in Angstrom), charge = 0, multiplicity = 1:

       Center              X                  Y                   Z               Mass       
    ------------   -----------------  -----------------  -----------------  -----------------
         C            0.321531939855     0.813261460475     0.000000000000    12.000000000000
         C           -0.865048060145    -0.128168539525     0.000000000000    12.000000000000
         C            0.543531939855    -0.685078539525     0.000000000000    12.000000000000
         H            0.537951939855     1.360691460475    -0.920390000000     1.007825032230
         H            0.537951939855     1.360691460475     0.920390000000     1.007825032230
         H           -1.447418060145    -0.214488539525     0.920340000000     1.007825032230
         H           -1.447418060145    -0.214488539525    -0.920340000000     1.007825032230
         H            0.909371939855    -1.146288539525    -0.920370000000     1.007825032230
         H            0.909371939855    -1.146288539525     0.920370000000     1.007825032230

  Nuclear repulsion =   75.281464809014025

  ==> Basis Set <==

  Basis Set: CC-PVTZ
    Blend: CC-PVTZ
    Number of shells: 66
    Number of basis function: 174
    Number of Cartesian functions: 195
    Spherical Harmonics?: true
    Max angular momentum: 3

  ==> DFJKGrad: Density-Fitted SCF Gradients <==

    Gradient:                    1
    J tasked:                  Yes
    K tasked:                  Yes
    wK tasked:                  No
    OpenMP threads:              1
    Integrals threads:           1
    Memory [MiB]:              375
    Schwarz Cutoff:          0E+00
    Fitting Condition:       1E-10

   => Auxiliary Basis Set <=

  Basis Set: (CC-PVTZ AUX)
    Blend: CC-PVTZ-JKFIT
    Number of shells: 135
    Number of basis function: 417
    Number of Cartesian functions: 498
    Spherical Harmonics?: true
    Max angular momentum: 4

  ==> DFT Potential <==

   => Composite Functional: M06-2X <= 

    Hybrid M06-2X Meta-GGA XC Functional

    Y. Zhao and D. G. Truhlar,  Theor. Chem. Acc., 120, 215, 2008


    Deriv               =              1
    GGA                 =           TRUE
    Meta                =           TRUE

    Exchange Hybrid     =           TRUE
    MP2 Hybrid          =          FALSE

   => Exchange Functionals <=

    1.0000   XC_HYB_MGGA_X_M06_2X

   => Exact (HF) Exchange <=

    0.5400               HF 

   => Correlation Functionals <=

    1.0000   XC_MGGA_C_M06_2X

   => Molecular Quadrature <=

    Radial Scheme          =       TREUTLER
    Pruning Scheme         =           FLAT
    Nuclear Scheme         =       TREUTLER

    BS radius alpha        =              1
    Pruning alpha          =              1
    Radial Points          =             75
    Spherical Points       =            302
    Total Points           =         201034
    Total Blocks           =           1571
    Max Points             =            256
    Max Functions          =            174


  -Total Gradient:
     Atom            X                  Y                   Z
    ------   -----------------  -----------------  -----------------
       1        0.001844620751     0.004636648352     0.000000000000
       2       -0.004886180641    -0.000685954258     0.000000000000
       3        0.003143599854    -0.003910107856     0.000000000000
       4        0.001793991640     0.004509706791    -0.007434053393
       5        0.001793991640     0.004509706791     0.007434053393
       6       -0.004796737739    -0.000703893250     0.007420137277
       7       -0.004796737739    -0.000703893250    -0.007420137277
       8        0.003036705053    -0.003808775493    -0.007405667223
       9        0.003036705053    -0.003808775493     0.007405667223


*** tstop() called on atlantis at Tue Apr 19 11:32:00 2022
Module time:
	user time   =       4.88 seconds =       0.08 minutes
	system time =       0.04 seconds =       0.00 minutes
	total time  =          5 seconds =       0.08 minutes
Total time:
	user time   =      50.70 seconds =       0.84 minutes
	system time =       0.20 seconds =       0.00 minutes
	total time  =         51 seconds =       0.85 minutes

  Based on options and gradient (rms=4.50E-03), recommend projecting translations and projecting rotations.
hessian() will perform frequency computation by finite difference of analytic gradients.

         ----------------------------------------------------------
                                   FINDIF
                     R. A. King and Jonathon Misiewicz
         ---------------------------------------------------------

  Using finite-differences of gradients to determine vibrational frequencies and 
  normal modes.  Resulting frequencies are only valid at stationary points.
    Generating geometries for use with 3-point formula.
    Displacement size will be 5.00e-03.
    Number of atoms is 9.
    Number of irreps is 2.
    Number of SALCs is 21.
    Translations projected? 1. Rotations projected? 1.
    Index of SALCs per irrep:
     1 :  0  1  2  3  4  5  6  7  8  9  10  11 
     2 :  12  13  14  15  16  17  18  19  20 
    Number of SALCs per irrep:
     Irrep 1: 12
     Irrep 2: 9
    Number of geometries (including reference) is 34.
    Number of displacements per irrep:
      Irrep 1: 24
      Irrep 2: 9

  //>>>>>>>>>>>>>>>>>>>>>>>>>>>>>>>>>>>//
  //    Loading displacement 1 of 34   //
  //<<<<<<<<<<<<<<<<<<<<<<<<<<<<<<<<<<<//
gradient() will perform analytic gradient computation.

*** tstart() called on atlantis
*** at Tue Apr 19 11:32:00 2022

   => Loading Basis Set <=

    Name: CC-PVTZ
    Role: ORBITAL
    Keyword: BASIS
    atoms 1-3 entry C          line   186 file /home/akrom/software/anaconda3/envs/ffpenv/share/psi4/basis/cc-pvtz.gbs 
    atoms 4-9 entry H          line    23 file /home/akrom/software/anaconda3/envs/ffpenv/share/psi4/basis/cc-pvtz.gbs 


         ---------------------------------------------------------
                                   SCF
               by Justin Turney, Rob Parrish, Andy Simmonett
                          and Daniel G. A. Smith
                              RKS Reference
                        1 Threads,    500 MiB Core
         ---------------------------------------------------------

  ==> Geometry <==

    Molecular point group: cs
    Full point group: Cs

    Geometry (in Angstrom), charge = 0, multiplicity = 1:

       Center              X                  Y                   Z               Mass       
    ------------   -----------------  -----------------  -----------------  -----------------
         C            0.321531939855     0.813261460475     0.000000000000    12.000000000000
         C           -0.865048060145    -0.128168539525     0.000000000000    12.000000000000
         C            0.543531939855    -0.685078539525     0.000000000000    12.000000000000
         H            0.537951939855     1.360691460475    -0.920390000000     1.007825032230
         H            0.537951939855     1.360691460475     0.920390000000     1.007825032230
         H           -1.447418060145    -0.214488539525     0.920340000000     1.007825032230
         H           -1.447418060145    -0.214488539525    -0.920340000000     1.007825032230
         H            0.909371939855    -1.146288539525    -0.920370000000     1.007825032230
         H            0.909371939855    -1.146288539525     0.920370000000     1.007825032230

  Running in cs symmetry.

  Rotational constants: A =      0.66472  B =      0.66470  C =      0.41647 [cm^-1]
  Rotational constants: A =  19927.70596  B =  19927.20236  C =  12485.44714 [MHz]
  Nuclear repulsion =   75.281464809014025

  Charge       = 0
  Multiplicity = 1
  Electrons    = 24
  Nalpha       = 12
  Nbeta        = 12

  ==> Algorithm <==

  SCF Algorithm Type is DF.
  DIIS enabled.
  MOM disabled.
  Fractional occupation disabled.
  Guess Type is SAD.
  Energy threshold   = 1.00e-08
  Density threshold  = 1.00e-08
  Integral threshold = 0.00e+00

  ==> Primary Basis <==

  Basis Set: CC-PVTZ
    Blend: CC-PVTZ
    Number of shells: 66
    Number of basis function: 174
    Number of Cartesian functions: 195
    Spherical Harmonics?: true
    Max angular momentum: 3

  ==> DFT Potential <==

   => Composite Functional: M06-2X <= 

    Hybrid M06-2X Meta-GGA XC Functional

    Y. Zhao and D. G. Truhlar,  Theor. Chem. Acc., 120, 215, 2008


    Deriv               =              1
    GGA                 =           TRUE
    Meta                =           TRUE

    Exchange Hybrid     =           TRUE
    MP2 Hybrid          =          FALSE

   => Exchange Functionals <=

    1.0000   XC_HYB_MGGA_X_M06_2X

   => Exact (HF) Exchange <=

    0.5400               HF 

   => Correlation Functionals <=

    1.0000   XC_MGGA_C_M06_2X

   => Molecular Quadrature <=

    Radial Scheme          =       TREUTLER
    Pruning Scheme         =           FLAT
    Nuclear Scheme         =       TREUTLER

    BS radius alpha        =              1
    Pruning alpha          =              1
    Radial Points          =             75
    Spherical Points       =            302
    Total Points           =         201034
    Total Blocks           =           1571
    Max Points             =            256
    Max Functions          =            174

   => Loading Basis Set <=

    Name: (CC-PVTZ AUX)
    Role: JKFIT
    Keyword: DF_BASIS_SCF
    atoms 1-3 entry C          line   125 file /home/akrom/software/anaconda3/envs/ffpenv/share/psi4/basis/cc-pvtz-jkfit.gbs 
    atoms 4-9 entry H          line    51 file /home/akrom/software/anaconda3/envs/ffpenv/share/psi4/basis/cc-pvtz-jkfit.gbs 

  ==> Pre-Iterations <==

   -------------------------------------------------------
    Irrep   Nso     Nmo     Nalpha   Nbeta   Ndocc  Nsocc
   -------------------------------------------------------
     A'       102     102       0       0       0       0
     A"        72      72       0       0       0       0
   -------------------------------------------------------
    Total     174     174      12      12      12       0
   -------------------------------------------------------

  ==> Integral Setup <==

  DFHelper Memory: AOs need 0.102 GiB; user supplied 0.102 GiB. Using in-core AOs.

  ==> MemDFJK: Density-Fitted J/K Matrices <==

    J tasked:                   Yes
    K tasked:                   Yes
    wK tasked:                   No
    OpenMP threads:               1
    Memory [MiB]:               104
    Algorithm:                 Core
    Schwarz Cutoff:           1E-12
    Mask sparsity (%):       0.0000
    Fitting Condition:        1E-10

   => Auxiliary Basis Set <=

  Basis Set: (CC-PVTZ AUX)
    Blend: CC-PVTZ-JKFIT
    Number of shells: 135
    Number of basis function: 417
    Number of Cartesian functions: 498
    Spherical Harmonics?: true
    Max angular momentum: 4

  Cached 12.5% of DFT collocation blocks in 0.264 [GiB].

  Minimum eigenvalue in the overlap matrix is 6.9054665632E-04.
  Using Symmetric Orthogonalization.

  SCF Guess: Superposition of Atomic Densities via on-the-fly atomic UHF.

  ==> Iterations <==

                           Total Energy        Delta E     RMS |[F,P]|

   @DF-RKS iter SAD:  -117.51730089375455   -1.17517e+02   0.00000e+00 
   @DF-RKS iter   1:  -117.62886349654592   -1.11563e-01   5.69328e-03 DIIS
   @DF-RKS iter   2:  -117.64310475113709   -1.42413e-02   5.44082e-03 DIIS
   @DF-RKS iter   3:  -117.87628720618463   -2.33182e-01   3.16701e-04 DIIS
   @DF-RKS iter   4:  -117.87702939210841   -7.42186e-04   4.12056e-05 DIIS
   @DF-RKS iter   5:  -117.87704543638787   -1.60443e-05   7.07612e-06 DIIS
   @DF-RKS iter   6:  -117.87704593683144   -5.00444e-07   5.82184e-07 DIIS
   @DF-RKS iter   7:  -117.87704594537122   -8.53979e-09   8.76126e-08 DIIS
   @DF-RKS iter   8:  -117.87704594550243   -1.31209e-10   5.86180e-08 DIIS
   @DF-RKS iter   9:  -117.87704594552805   -2.56222e-11   9.92605e-09 DIIS
  Energy and wave function converged.


  ==> Post-Iterations <==

    Orbital Energies [Eh]
    ---------------------

    Doubly Occupied:                                                      

       1Ap   -10.539181     2Ap   -10.538579     3Ap   -10.538571  
       4Ap    -0.943628     5Ap    -0.678507     6Ap    -0.678493  
       1App   -0.565200     7Ap    -0.527662     2App   -0.424076  
       3App   -0.424050     8Ap    -0.350521     9Ap    -0.350494  

    Virtual:                                                              

      10Ap     0.078826     4App    0.093468    11Ap     0.113922  
      12Ap     0.113925    13Ap     0.171848     5App    0.178864  
       6App    0.178875    14Ap     0.240391    15Ap     0.240400  
      16Ap     0.248601     7App    0.323691    17Ap     0.339406  
      18Ap     0.339416     8App    0.405011     9App    0.405065  
      19Ap     0.430511    10App    0.457553    20Ap     0.471434  
      21Ap     0.473122    22Ap     0.473158    23Ap     0.505655  
      11App    0.539447    12App    0.539511    24Ap     0.542782  
      25Ap     0.542809    26Ap     0.697551    27Ap     0.697571  
      13App    0.773497    28Ap     0.825039    14App    0.858690  
      15App    0.858720    29Ap     0.954902    30Ap     0.954926  
      16App    1.000870    17App    1.023226    18App    1.023247  
      31Ap     1.050754    32Ap     1.050799    33Ap     1.081857  
      34Ap     1.126056    19App    1.135279    35Ap     1.161529  
      36Ap     1.161563    20App    1.188293    21App    1.188341  
      37Ap     1.266440    38Ap     1.294440    39Ap     1.294459  
      22App    1.306034    23App    1.351206    24App    1.351237  
      40Ap     1.395046    41Ap     1.480045    42Ap     1.480061  
      25App    1.558730    26App    1.558799    43Ap     1.567466  
      44Ap     1.584836    45Ap     1.584912    27App    1.658828  
      28App    2.169895    46Ap     2.224952    47Ap     2.224964  
      48Ap     2.240036    29App    2.303524    49Ap     2.346698  
      50Ap     2.383481    51Ap     2.383654    30App    2.465649  
      31App    2.465845    52Ap     2.660538    53Ap     2.660615  
      32App    2.687171    33App    2.687224    54Ap     2.715894  
      55Ap     2.727152    56Ap     2.765057    57Ap     2.765083  
      34App    2.884530    35App    2.884788    36App    2.885585  
      58Ap     2.892574    59Ap     2.972686    37App    3.019797  
      38App    3.019934    39App    3.054534    60Ap     3.078087  
      61Ap     3.078166    62Ap     3.122851    63Ap     3.122883  
      40App    3.133074    41App    3.137460    42App    3.137496  
      64Ap     3.278956    43App    3.294224    44App    3.294290  
      65Ap     3.304763    66Ap     3.354061    67Ap     3.354128  
      45App    3.362850    46App    3.453647    47App    3.499098  
      68Ap     3.549579    48App    3.608468    49App    3.608596  
      69Ap     3.651886    70Ap     3.651946    50App    3.656398  
      51App    3.693347    52App    3.693408    71Ap     3.713747  
      72Ap     3.713845    73Ap     3.791087    74Ap     3.868466  
      53App    3.885665    54App    3.885681    75Ap     3.893540  
      76Ap     3.893654    77Ap     4.028069    78Ap     4.028203  
      55App    4.089551    56App    4.089969    79Ap     4.115817  
      80Ap     4.115913    81Ap     4.125558    57App    4.149735  
      82Ap     4.190013    83Ap     4.190106    84Ap     4.195364  
      85Ap     4.361407    86Ap     4.361498    58App    4.361702  
      59App    4.361881    87Ap     4.478162    60App    4.546870  
      88Ap     4.594471    89Ap     4.594900    61App    4.795231  
      90Ap     4.887976    62App    4.892096    63App    4.892509  
      91Ap     4.959323    64App    5.022411    65App    5.087141  
      66App    5.087541    92Ap     5.091836    93Ap     5.112893  
      94Ap     5.113339    67App    5.235481    95Ap     5.285517  
      96Ap     5.358998    97Ap     5.359909    98Ap     5.447172  
      99Ap     5.447688    68App    5.710910    69App    5.736990  
      70App    5.737345    71App    5.906592    72App    5.907066  
     100Ap    10.852675   101Ap    12.933582   102Ap    12.933891  

    Final Occupation by Irrep:
             Ap   App 
    DOCC [     9,    3 ]

  @DF-RKS Final Energy:  -117.87704594552805

   => Energetics <=

    Nuclear Repulsion Energy =             75.2814648090140253
    One-Electron Energy =                -305.8782479010483826
    Two-Electron Energy =                 121.6280293177442928
    DFT Exchange-Correlation Energy =      -8.9082921712379992
    Empirical Dispersion Energy =           0.0000000000000000
    VV10 Nonlocal Energy =                  0.0000000000000000
    Total Energy =                       -117.8770459455280530

Computation Completed


Properties will be evaluated at   0.000000,   0.000000,   0.000000 [a0]

Properties computed using the SCF density matrix

  Nuclear Dipole Moment: [e a0]
     X:    -0.0002      Y:    -0.0002      Z:     0.0000

  Electronic Dipole Moment: [e a0]
     X:     0.0003      Y:     0.0001      Z:     0.0000

  Dipole Moment: [e a0]
     X:     0.0001      Y:    -0.0001      Z:     0.0000     Total:     0.0002

  Dipole Moment: [D]
     X:     0.0004      Y:    -0.0003      Z:     0.0000     Total:     0.0005


*** tstop() called on atlantis at Tue Apr 19 11:32:27 2022
Module time:
	user time   =      26.50 seconds =       0.44 minutes
	system time =       0.07 seconds =       0.00 minutes
	total time  =         27 seconds =       0.45 minutes
Total time:
	user time   =      77.48 seconds =       1.29 minutes
	system time =       0.28 seconds =       0.00 minutes
	total time  =         78 seconds =       1.30 minutes

*** tstart() called on atlantis
*** at Tue Apr 19 11:32:27 2022


         ------------------------------------------------------------
                                   SCF GRAD                          
                          Rob Parrish, Justin Turney,                
                       Andy Simmonett, and Alex Sokolov              
         ------------------------------------------------------------

  ==> Geometry <==

    Molecular point group: cs
    Full point group: Cs

    Geometry (in Angstrom), charge = 0, multiplicity = 1:

       Center              X                  Y                   Z               Mass       
    ------------   -----------------  -----------------  -----------------  -----------------
         C            0.321531939855     0.813261460475     0.000000000000    12.000000000000
         C           -0.865048060145    -0.128168539525     0.000000000000    12.000000000000
         C            0.543531939855    -0.685078539525     0.000000000000    12.000000000000
         H            0.537951939855     1.360691460475    -0.920390000000     1.007825032230
         H            0.537951939855     1.360691460475     0.920390000000     1.007825032230
         H           -1.447418060145    -0.214488539525     0.920340000000     1.007825032230
         H           -1.447418060145    -0.214488539525    -0.920340000000     1.007825032230
         H            0.909371939855    -1.146288539525    -0.920370000000     1.007825032230
         H            0.909371939855    -1.146288539525     0.920370000000     1.007825032230

  Nuclear repulsion =   75.281464809014025

  ==> Basis Set <==

  Basis Set: CC-PVTZ
    Blend: CC-PVTZ
    Number of shells: 66
    Number of basis function: 174
    Number of Cartesian functions: 195
    Spherical Harmonics?: true
    Max angular momentum: 3

  ==> DFJKGrad: Density-Fitted SCF Gradients <==

    Gradient:                    1
    J tasked:                  Yes
    K tasked:                  Yes
    wK tasked:                  No
    OpenMP threads:              1
    Integrals threads:           1
    Memory [MiB]:              375
    Schwarz Cutoff:          0E+00
    Fitting Condition:       1E-10

   => Auxiliary Basis Set <=

  Basis Set: (CC-PVTZ AUX)
    Blend: CC-PVTZ-JKFIT
    Number of shells: 135
    Number of basis function: 417
    Number of Cartesian functions: 498
    Spherical Harmonics?: true
    Max angular momentum: 4

  ==> DFT Potential <==

   => Composite Functional: M06-2X <= 

    Hybrid M06-2X Meta-GGA XC Functional

    Y. Zhao and D. G. Truhlar,  Theor. Chem. Acc., 120, 215, 2008


    Deriv               =              1
    GGA                 =           TRUE
    Meta                =           TRUE

    Exchange Hybrid     =           TRUE
    MP2 Hybrid          =          FALSE

   => Exchange Functionals <=

    1.0000   XC_HYB_MGGA_X_M06_2X

   => Exact (HF) Exchange <=

    0.5400               HF 

   => Correlation Functionals <=

    1.0000   XC_MGGA_C_M06_2X

   => Molecular Quadrature <=

    Radial Scheme          =       TREUTLER
    Pruning Scheme         =           FLAT
    Nuclear Scheme         =       TREUTLER

    BS radius alpha        =              1
    Pruning alpha          =              1
    Radial Points          =             75
    Spherical Points       =            302
    Total Points           =         201034
    Total Blocks           =           1571
    Max Points             =            256
    Max Functions          =            174


  -Total Gradient:
     Atom            X                  Y                   Z
    ------   -----------------  -----------------  -----------------
       1        0.001844620729     0.004636648343     0.000000000000
       2       -0.004886180730    -0.000685954307     0.000000000000
       3        0.003143599891    -0.003910107973     0.000000000000
       4        0.001793991649     0.004509706806    -0.007434053406
       5        0.001793991649     0.004509706806     0.007434053406
       6       -0.004796737673    -0.000703893237     0.007420137184
       7       -0.004796737673    -0.000703893237    -0.007420137184
       8        0.003036705015    -0.003808775434    -0.007405667117
       9        0.003036705015    -0.003808775434     0.007405667117


*** tstop() called on atlantis at Tue Apr 19 11:32:32 2022
Module time:
	user time   =       4.89 seconds =       0.08 minutes
	system time =       0.04 seconds =       0.00 minutes
	total time  =          5 seconds =       0.08 minutes
Total time:
	user time   =      82.37 seconds =       1.37 minutes
	system time =       0.32 seconds =       0.01 minutes
	total time  =         83 seconds =       1.38 minutes

  //>>>>>>>>>>>>>>>>>>>>>>>>>>>>>>>>>>>//
  //    Loading displacement 2 of 34   //
  //<<<<<<<<<<<<<<<<<<<<<<<<<<<<<<<<<<<//
gradient() will perform analytic gradient computation.

*** tstart() called on atlantis
*** at Tue Apr 19 11:32:32 2022

   => Loading Basis Set <=

    Name: CC-PVTZ
    Role: ORBITAL
    Keyword: BASIS
    atoms 1-3 entry C          line   186 file /home/akrom/software/anaconda3/envs/ffpenv/share/psi4/basis/cc-pvtz.gbs 
    atoms 4-9 entry H          line    23 file /home/akrom/software/anaconda3/envs/ffpenv/share/psi4/basis/cc-pvtz.gbs 


         ---------------------------------------------------------
                                   SCF
               by Justin Turney, Rob Parrish, Andy Simmonett
                          and Daniel G. A. Smith
                              RKS Reference
                        1 Threads,    500 MiB Core
         ---------------------------------------------------------

  ==> Geometry <==

    Molecular point group: cs
    Full point group: Cs

    Geometry (in Angstrom), charge = 0, multiplicity = 1:

       Center              X                  Y                   Z               Mass       
    ------------   -----------------  -----------------  -----------------  -----------------
         C            0.320981935461     0.813179232929     0.000000000000    12.000000000000
         C           -0.864778117207    -0.127947314912     0.000000000000    12.000000000000
         C            0.543659460418    -0.685217540638     0.000000000000    12.000000000000
         H            0.538602639069     1.360553886373    -0.920390000000     1.007825032230
         H            0.538602639069     1.360553886373     0.920390000000     1.007825032230
         H           -1.447170192407    -0.214118381478     0.920340000000     1.007825032230
         H           -1.447170192407    -0.214118381478    -0.920340000000     1.007825032230
         H            0.909381512053    -1.146521099385    -0.920370000000     1.007825032230
         H            0.909381512053    -1.146521099385     0.920370000000     1.007825032230

  Running in cs symmetry.

  Rotational constants: A =      0.66511  B =      0.66452  C =      0.41655 [cm^-1]
  Rotational constants: A =  19939.46144  B =  19921.88173  C =  12487.97026 [MHz]
  Nuclear repulsion =   75.286659304380962

  Charge       = 0
  Multiplicity = 1
  Electrons    = 24
  Nalpha       = 12
  Nbeta        = 12

  ==> Algorithm <==

  SCF Algorithm Type is DF.
  DIIS enabled.
  MOM disabled.
  Fractional occupation disabled.
  Guess Type is SAD.
  Energy threshold   = 1.00e-08
  Density threshold  = 1.00e-08
  Integral threshold = 0.00e+00

  ==> Primary Basis <==

  Basis Set: CC-PVTZ
    Blend: CC-PVTZ
    Number of shells: 66
    Number of basis function: 174
    Number of Cartesian functions: 195
    Spherical Harmonics?: true
    Max angular momentum: 3

  ==> DFT Potential <==

   => Composite Functional: M06-2X <= 

    Hybrid M06-2X Meta-GGA XC Functional

    Y. Zhao and D. G. Truhlar,  Theor. Chem. Acc., 120, 215, 2008


    Deriv               =              1
    GGA                 =           TRUE
    Meta                =           TRUE

    Exchange Hybrid     =           TRUE
    MP2 Hybrid          =          FALSE

   => Exchange Functionals <=

    1.0000   XC_HYB_MGGA_X_M06_2X

   => Exact (HF) Exchange <=

    0.5400               HF 

   => Correlation Functionals <=

    1.0000   XC_MGGA_C_M06_2X

   => Molecular Quadrature <=

    Radial Scheme          =       TREUTLER
    Pruning Scheme         =           FLAT
    Nuclear Scheme         =       TREUTLER

    BS radius alpha        =              1
    Pruning alpha          =              1
    Radial Points          =             75
    Spherical Points       =            302
    Total Points           =         201043
    Total Blocks           =           1554
    Max Points             =            256
    Max Functions          =            174

   => Loading Basis Set <=

    Name: (CC-PVTZ AUX)
    Role: JKFIT
    Keyword: DF_BASIS_SCF
    atoms 1-3 entry C          line   125 file /home/akrom/software/anaconda3/envs/ffpenv/share/psi4/basis/cc-pvtz-jkfit.gbs 
    atoms 4-9 entry H          line    51 file /home/akrom/software/anaconda3/envs/ffpenv/share/psi4/basis/cc-pvtz-jkfit.gbs 

  ==> Pre-Iterations <==

   -------------------------------------------------------
    Irrep   Nso     Nmo     Nalpha   Nbeta   Ndocc  Nsocc
   -------------------------------------------------------
     A'       102     102       0       0       0       0
     A"        72      72       0       0       0       0
   -------------------------------------------------------
    Total     174     174      12      12      12       0
   -------------------------------------------------------

  ==> Integral Setup <==

  DFHelper Memory: AOs need 0.102 GiB; user supplied 0.102 GiB. Using in-core AOs.

  ==> MemDFJK: Density-Fitted J/K Matrices <==

    J tasked:                   Yes
    K tasked:                   Yes
    wK tasked:                   No
    OpenMP threads:               1
    Memory [MiB]:               104
    Algorithm:                 Core
    Schwarz Cutoff:           1E-12
    Mask sparsity (%):       0.0000
    Fitting Condition:        1E-10

   => Auxiliary Basis Set <=

  Basis Set: (CC-PVTZ AUX)
    Blend: CC-PVTZ-JKFIT
    Number of shells: 135
    Number of basis function: 417
    Number of Cartesian functions: 498
    Spherical Harmonics?: true
    Max angular momentum: 4

  Cached 12.5% of DFT collocation blocks in 0.265 [GiB].

  Minimum eigenvalue in the overlap matrix is 6.8947762386E-04.
  Using Symmetric Orthogonalization.

  SCF Guess: Superposition of Atomic Densities via on-the-fly atomic UHF.

  ==> Iterations <==

                           Total Energy        Delta E     RMS |[F,P]|

   @DF-RKS iter SAD:  -117.51784941619661   -1.17518e+02   0.00000e+00 
   @DF-RKS iter   1:  -117.62872976598555   -1.10880e-01   5.69511e-03 DIIS
   @DF-RKS iter   2:  -117.64288391692136   -1.41542e-02   5.44363e-03 DIIS
   @DF-RKS iter   3:  -117.87629767875990   -2.33414e-01   3.16816e-04 DIIS
   @DF-RKS iter   4:  -117.87704038514546   -7.42706e-04   4.12198e-05 DIIS
   @DF-RKS iter   5:  -117.87705644363788   -1.60585e-05   7.08328e-06 DIIS
   @DF-RKS iter   6:  -117.87705694475088   -5.01113e-07   6.36719e-07 DIIS
   @DF-RKS iter   7:  -117.87705695314895   -8.39808e-09   3.09769e-07 DIIS
   @DF-RKS iter   8:  -117.87705695385871   -7.09761e-10   1.04465e-07 DIIS
   @DF-RKS iter   9:  -117.87705695395903   -1.00314e-10   6.87773e-09 DIIS
  Energy and wave function converged.


  ==> Post-Iterations <==

    Orbital Energies [Eh]
    ---------------------

    Doubly Occupied:                                                      

       1Ap   -10.539170     2Ap   -10.538569     3Ap   -10.538558  
       4Ap    -0.943731     5Ap    -0.678533     6Ap    -0.678440  
       1App   -0.565201     7Ap    -0.527729     2App   -0.424067  
       3App   -0.423944     8Ap    -0.350743     9Ap    -0.350346  

    Virtual:                                                              

      10Ap     0.078826     4App    0.093442    11Ap     0.113920  
      12Ap     0.113933    13Ap     0.171935     5App    0.178866  
       6App    0.178888    14Ap     0.240319    15Ap     0.240526  
      16Ap     0.248602     7App    0.323663    17Ap     0.339386  
      18Ap     0.339429     8App    0.404840     9App    0.405197  
      19Ap     0.430480    10App    0.457505    20Ap     0.471461  
      21Ap     0.473116    22Ap     0.473338    23Ap     0.505672  
      11App    0.539414    12App    0.539511    24Ap     0.542758  
      25Ap     0.542947    26Ap     0.697534    27Ap     0.697629  
      13App    0.773523    28Ap     0.825069    14App    0.858690  
      15App    0.858755    29Ap     0.954802    30Ap     0.955029  
      16App    1.000913    17App    1.023238    18App    1.023288  
      31Ap     1.050730    32Ap     1.050912    33Ap     1.081920  
      34Ap     1.126069    19App    1.135356    35Ap     1.161532  
      36Ap     1.161701    20App    1.188213    21App    1.188415  
      37Ap     1.266471    38Ap     1.294464    39Ap     1.294538  
      22App    1.306033    23App    1.351129    24App    1.351208  
      40Ap     1.394967    41Ap     1.479860    42Ap     1.480205  
      25App    1.558382    26App    1.559023    43Ap     1.567367  
      44Ap     1.584650    45Ap     1.584924    27App    1.658878  
      28App    2.169822    46Ap     2.225043    47Ap     2.225228  
      48Ap     2.240171    29App    2.303595    49Ap     2.346694  
      50Ap     2.383588    51Ap     2.383648    30App    2.465391  
      31App    2.466190    52Ap     2.660539    53Ap     2.660784  
      32App    2.687242    33App    2.687332    54Ap     2.716006  
      55Ap     2.727525    56Ap     2.764947    57Ap     2.765361  
      34App    2.884549    35App    2.884854    36App    2.885575  
      58Ap     2.892488    59Ap     2.972708    37App    3.019742  
      38App    3.020106    39App    3.054608    60Ap     3.077943  
      61Ap     3.078489    62Ap     3.122695    63Ap     3.123080  
      40App    3.133104    41App    3.137251    42App    3.137497  
      64Ap     3.279147    43App    3.294354    44App    3.294646  
      65Ap     3.304781    66Ap     3.354015    67Ap     3.354088  
      45App    3.362723    46App    3.454004    47App    3.499165  
      68Ap     3.549435    48App    3.608665    49App    3.608856  
      69Ap     3.651505    70Ap     3.652450    50App    3.656373  
      51App    3.693260    52App    3.693429    71Ap     3.713726  
      72Ap     3.713988    73Ap     3.791505    74Ap     3.868567  
      53App    3.885542    54App    3.885804    75Ap     3.893140  
      76Ap     3.893751    77Ap     4.028047    78Ap     4.028486  
      55App    4.089551    56App    4.090036    79Ap     4.115489  
      80Ap     4.115889    81Ap     4.125475    57App    4.149879  
      82Ap     4.189993    83Ap     4.190498    84Ap     4.195495  
      85Ap     4.361034    58App    4.361764    59App    4.362001  
      86Ap     4.362122    87Ap     4.478091    60App    4.547113  
      88Ap     4.594445    89Ap     4.594850    61App    4.794795  
      90Ap     4.887942    62App    4.891925    63App    4.892552  
      91Ap     4.959884    64App    5.022438    65App    5.087119  
      66App    5.087781    92Ap     5.091410    93Ap     5.112827  
      94Ap     5.113345    67App    5.235675    95Ap     5.285277  
      96Ap     5.359080    97Ap     5.359669    98Ap     5.447238  
      99Ap     5.448041    68App    5.711467    69App    5.736264  
      70App    5.737754    71App    5.906534    72App    5.908205  
     100Ap    10.851287   101Ap    12.932316   102Ap    12.937671  

    Final Occupation by Irrep:
             Ap   App 
    DOCC [     9,    3 ]

  @DF-RKS Final Energy:  -117.87705695395903

   => Energetics <=

    Nuclear Repulsion Energy =             75.2866593043809615
    One-Electron Energy =                -305.8884805790008272
    Two-Electron Energy =                 121.6331110186808928
    DFT Exchange-Correlation Energy =      -8.9083466980200612
    Empirical Dispersion Energy =           0.0000000000000000
    VV10 Nonlocal Energy =                  0.0000000000000000
    Total Energy =                       -117.8770569539590269

Computation Completed


Properties will be evaluated at   0.000000,   0.000000,   0.000000 [a0]

Properties computed using the SCF density matrix

  Nuclear Dipole Moment: [e a0]
     X:     0.0015      Y:    -0.0002      Z:     0.0000

  Electronic Dipole Moment: [e a0]
     X:    -0.0016      Y:     0.0003      Z:     0.0000

  Dipole Moment: [e a0]
     X:    -0.0001      Y:     0.0002      Z:     0.0000     Total:     0.0002

  Dipole Moment: [D]
     X:    -0.0002      Y:     0.0004      Z:     0.0000     Total:     0.0004


*** tstop() called on atlantis at Tue Apr 19 11:32:58 2022
Module time:
	user time   =      26.38 seconds =       0.44 minutes
	system time =       0.05 seconds =       0.00 minutes
	total time  =         26 seconds =       0.43 minutes
Total time:
	user time   =     108.76 seconds =       1.81 minutes
	system time =       0.37 seconds =       0.01 minutes
	total time  =        109 seconds =       1.82 minutes

*** tstart() called on atlantis
*** at Tue Apr 19 11:32:58 2022


         ------------------------------------------------------------
                                   SCF GRAD                          
                          Rob Parrish, Justin Turney,                
                       Andy Simmonett, and Alex Sokolov              
         ------------------------------------------------------------

  ==> Geometry <==

    Molecular point group: cs
    Full point group: Cs

    Geometry (in Angstrom), charge = 0, multiplicity = 1:

       Center              X                  Y                   Z               Mass       
    ------------   -----------------  -----------------  -----------------  -----------------
         C            0.320981935461     0.813179232929     0.000000000000    12.000000000000
         C           -0.864778117207    -0.127947314912     0.000000000000    12.000000000000
         C            0.543659460418    -0.685217540638     0.000000000000    12.000000000000
         H            0.538602639069     1.360553886373    -0.920390000000     1.007825032230
         H            0.538602639069     1.360553886373     0.920390000000     1.007825032230
         H           -1.447170192407    -0.214118381478     0.920340000000     1.007825032230
         H           -1.447170192407    -0.214118381478    -0.920340000000     1.007825032230
         H            0.909381512053    -1.146521099385    -0.920370000000     1.007825032230
         H            0.909381512053    -1.146521099385     0.920370000000     1.007825032230

  Nuclear repulsion =   75.286659304380962

  ==> Basis Set <==

  Basis Set: CC-PVTZ
    Blend: CC-PVTZ
    Number of shells: 66
    Number of basis function: 174
    Number of Cartesian functions: 195
    Spherical Harmonics?: true
    Max angular momentum: 3

  ==> DFJKGrad: Density-Fitted SCF Gradients <==

    Gradient:                    1
    J tasked:                  Yes
    K tasked:                  Yes
    wK tasked:                  No
    OpenMP threads:              1
    Integrals threads:           1
    Memory [MiB]:              375
    Schwarz Cutoff:          0E+00
    Fitting Condition:       1E-10

   => Auxiliary Basis Set <=

  Basis Set: (CC-PVTZ AUX)
    Blend: CC-PVTZ-JKFIT
    Number of shells: 135
    Number of basis function: 417
    Number of Cartesian functions: 498
    Spherical Harmonics?: true
    Max angular momentum: 4

  ==> DFT Potential <==

   => Composite Functional: M06-2X <= 

    Hybrid M06-2X Meta-GGA XC Functional

    Y. Zhao and D. G. Truhlar,  Theor. Chem. Acc., 120, 215, 2008


    Deriv               =              1
    GGA                 =           TRUE
    Meta                =           TRUE

    Exchange Hybrid     =           TRUE
    MP2 Hybrid          =          FALSE

   => Exchange Functionals <=

    1.0000   XC_HYB_MGGA_X_M06_2X

   => Exact (HF) Exchange <=

    0.5400               HF 

   => Correlation Functionals <=

    1.0000   XC_MGGA_C_M06_2X

   => Molecular Quadrature <=

    Radial Scheme          =       TREUTLER
    Pruning Scheme         =           FLAT
    Nuclear Scheme         =       TREUTLER

    BS radius alpha        =              1
    Pruning alpha          =              1
    Radial Points          =             75
    Spherical Points       =            302
    Total Points           =         201043
    Total Blocks           =           1554
    Max Points             =            256
    Max Functions          =            174


  -Total Gradient:
     Atom            X                  Y                   Z
    ------   -----------------  -----------------  -----------------
       1        0.001291659309     0.004364926420     0.000000000000
       2       -0.004594772144    -0.000561737240     0.000000000000
       3        0.003162832157    -0.003844255779     0.000000000000
       4        0.001890925911     0.004566327803    -0.007519084950
       5        0.001890925911     0.004566327803     0.007519084950
       6       -0.004755617605    -0.000686465249     0.007430755640
       7       -0.004755617605    -0.000686465249    -0.007430755640
       8        0.003020111736    -0.003791971863    -0.007424347946
       9        0.003020111736    -0.003791971863     0.007424347946


*** tstop() called on atlantis at Tue Apr 19 11:33:03 2022
Module time:
	user time   =       4.88 seconds =       0.08 minutes
	system time =       0.04 seconds =       0.00 minutes
	total time  =          5 seconds =       0.08 minutes
Total time:
	user time   =     113.64 seconds =       1.89 minutes
	system time =       0.41 seconds =       0.01 minutes
	total time  =        114 seconds =       1.90 minutes

  //>>>>>>>>>>>>>>>>>>>>>>>>>>>>>>>>>>>//
  //    Loading displacement 3 of 34   //
  //<<<<<<<<<<<<<<<<<<<<<<<<<<<<<<<<<<<//
gradient() will perform analytic gradient computation.

*** tstart() called on atlantis
*** at Tue Apr 19 11:33:03 2022

   => Loading Basis Set <=

    Name: CC-PVTZ
    Role: ORBITAL
    Keyword: BASIS
    atoms 1-3 entry C          line   186 file /home/akrom/software/anaconda3/envs/ffpenv/share/psi4/basis/cc-pvtz.gbs 
    atoms 4-9 entry H          line    23 file /home/akrom/software/anaconda3/envs/ffpenv/share/psi4/basis/cc-pvtz.gbs 


         ---------------------------------------------------------
                                   SCF
               by Justin Turney, Rob Parrish, Andy Simmonett
                          and Daniel G. A. Smith
                              RKS Reference
                        1 Threads,    500 MiB Core
         ---------------------------------------------------------

  ==> Geometry <==

    Molecular point group: cs
    Full point group: Cs

    Geometry (in Angstrom), charge = 0, multiplicity = 1:

       Center              X                  Y                   Z               Mass       
    ------------   -----------------  -----------------  -----------------  -----------------
         C            0.322081944250     0.813343688021     0.000000000000    12.000000000000
         C           -0.865318003082    -0.128389764139     0.000000000000    12.000000000000
         C            0.543404419293    -0.684939538412     0.000000000000    12.000000000000
         H            0.537301240642     1.360829034576    -0.920390000000     1.007825032230
         H            0.537301240642     1.360829034576     0.920390000000     1.007825032230
         H           -1.447665927882    -0.214858697572     0.920340000000     1.007825032230
         H           -1.447665927882    -0.214858697572    -0.920340000000     1.007825032230
         H            0.909362367658    -1.146055979665    -0.920370000000     1.007825032230
         H            0.909362367658    -1.146055979665     0.920370000000     1.007825032230

  Running in cs symmetry.

  Rotational constants: A =      0.66489  B =      0.66431  C =      0.41639 [cm^-1]
  Rotational constants: A =  19932.94970  B =  19915.53021  C =  12482.92073 [MHz]
  Nuclear repulsion =   75.276267816162189

  Charge       = 0
  Multiplicity = 1
  Electrons    = 24
  Nalpha       = 12
  Nbeta        = 12

  ==> Algorithm <==

  SCF Algorithm Type is DF.
  DIIS enabled.
  MOM disabled.
  Fractional occupation disabled.
  Guess Type is SAD.
  Energy threshold   = 1.00e-08
  Density threshold  = 1.00e-08
  Integral threshold = 0.00e+00

  ==> Primary Basis <==

  Basis Set: CC-PVTZ
    Blend: CC-PVTZ
    Number of shells: 66
    Number of basis function: 174
    Number of Cartesian functions: 195
    Spherical Harmonics?: true
    Max angular momentum: 3

  ==> DFT Potential <==

   => Composite Functional: M06-2X <= 

    Hybrid M06-2X Meta-GGA XC Functional

    Y. Zhao and D. G. Truhlar,  Theor. Chem. Acc., 120, 215, 2008


    Deriv               =              1
    GGA                 =           TRUE
    Meta                =           TRUE

    Exchange Hybrid     =           TRUE
    MP2 Hybrid          =          FALSE

   => Exchange Functionals <=

    1.0000   XC_HYB_MGGA_X_M06_2X

   => Exact (HF) Exchange <=

    0.5400               HF 

   => Correlation Functionals <=

    1.0000   XC_MGGA_C_M06_2X

   => Molecular Quadrature <=

    Radial Scheme          =       TREUTLER
    Pruning Scheme         =           FLAT
    Nuclear Scheme         =       TREUTLER

    BS radius alpha        =              1
    Pruning alpha          =              1
    Radial Points          =             75
    Spherical Points       =            302
    Total Points           =         201037
    Total Blocks           =           1562
    Max Points             =            256
    Max Functions          =            174

   => Loading Basis Set <=

    Name: (CC-PVTZ AUX)
    Role: JKFIT
    Keyword: DF_BASIS_SCF
    atoms 1-3 entry C          line   125 file /home/akrom/software/anaconda3/envs/ffpenv/share/psi4/basis/cc-pvtz-jkfit.gbs 
    atoms 4-9 entry H          line    51 file /home/akrom/software/anaconda3/envs/ffpenv/share/psi4/basis/cc-pvtz-jkfit.gbs 

  ==> Pre-Iterations <==

   -------------------------------------------------------
    Irrep   Nso     Nmo     Nalpha   Nbeta   Ndocc  Nsocc
   -------------------------------------------------------
     A'       102     102       0       0       0       0
     A"        72      72       0       0       0       0
   -------------------------------------------------------
    Total     174     174      12      12      12       0
   -------------------------------------------------------

  ==> Integral Setup <==

  DFHelper Memory: AOs need 0.102 GiB; user supplied 0.102 GiB. Using in-core AOs.

  ==> MemDFJK: Density-Fitted J/K Matrices <==

    J tasked:                   Yes
    K tasked:                   Yes
    wK tasked:                   No
    OpenMP threads:               1
    Memory [MiB]:               104
    Algorithm:                 Core
    Schwarz Cutoff:           1E-12
    Mask sparsity (%):       0.0000
    Fitting Condition:        1E-10

   => Auxiliary Basis Set <=

  Basis Set: (CC-PVTZ AUX)
    Blend: CC-PVTZ-JKFIT
    Number of shells: 135
    Number of basis function: 417
    Number of Cartesian functions: 498
    Spherical Harmonics?: true
    Max angular momentum: 4

  Cached 12.5% of DFT collocation blocks in 0.266 [GiB].

  Minimum eigenvalue in the overlap matrix is 6.8983772260E-04.
  Using Symmetric Orthogonalization.

  SCF Guess: Superposition of Atomic Densities via on-the-fly atomic UHF.

  ==> Iterations <==

                           Total Energy        Delta E     RMS |[F,P]|

   @DF-RKS iter SAD:  -117.51677920877424   -1.17517e+02   0.00000e+00 
   @DF-RKS iter   1:  -117.62900531351664   -1.12226e-01   5.69172e-03 DIIS
   @DF-RKS iter   2:  -117.64334274084339   -1.43374e-02   5.43822e-03 DIIS
   @DF-RKS iter   3:  -117.87629520512262   -2.32952e-01   3.16771e-04 DIIS
   @DF-RKS iter   4:  -117.87703755396575   -7.42349e-04   4.12133e-05 DIIS
   @DF-RKS iter   5:  -117.87705361985330   -1.60659e-05   7.07737e-06 DIIS
   @DF-RKS iter   6:  -117.87705412050687   -5.00654e-07   6.17351e-07 DIIS
   @DF-RKS iter   7:  -117.87705412895160   -8.44473e-09   2.53277e-07 DIIS
   @DF-RKS iter   8:  -117.87705412941777   -4.66173e-10   1.12183e-07 DIIS
   @DF-RKS iter   9:  -117.87705412952640   -1.08628e-10   6.94375e-09 DIIS
  Energy and wave function converged.


  ==> Post-Iterations <==

    Orbital Energies [Eh]
    ---------------------

    Doubly Occupied:                                                      

       1Ap   -10.539197     2Ap   -10.538602     3Ap   -10.538581  
       4Ap    -0.943530     5Ap    -0.678566     6Ap    -0.678488  
       1App   -0.565183     7Ap    -0.527631     2App   -0.424165  
       3App   -0.424052     8Ap    -0.350672     9Ap    -0.350281  

    Virtual:                                                              

      10Ap     0.078826     4App    0.093499    11Ap     0.113919  
      12Ap     0.113930    13Ap     0.171794     5App    0.178842  
       6App    0.178886    14Ap     0.240275    15Ap     0.240482  
      16Ap     0.248615     7App    0.323687    17Ap     0.339380  
      18Ap     0.339448     8App    0.404831     9App    0.405211  
      19Ap     0.430545    10App    0.457539    20Ap     0.471399  
      21Ap     0.472957    22Ap     0.473181    23Ap     0.505679  
      11App    0.539449    12App    0.539574    24Ap     0.542684  
      25Ap     0.542887    26Ap     0.697436    27Ap     0.697588  
      13App    0.773497    28Ap     0.825041    14App    0.858644  
      15App    0.858746    29Ap     0.954788    30Ap     0.955020  
      16App    1.000843    17App    1.023152    18App    1.023235  
      31Ap     1.050722    32Ap     1.050877    33Ap     1.081963  
      34Ap     1.126060    19App    1.135289    35Ap     1.161409  
      36Ap     1.161565    20App    1.188218    21App    1.188406  
      37Ap     1.266439    38Ap     1.294374    39Ap     1.294433  
      22App    1.306102    23App    1.351223    24App    1.351285  
      40Ap     1.395144    41Ap     1.479886    42Ap     1.480204  
      25App    1.558416    26App    1.558871    43Ap     1.567639  
      44Ap     1.584909    45Ap     1.585064    27App    1.658761  
      28App    2.169907    46Ap     2.224678    47Ap     2.224896  
      48Ap     2.239884    29App    2.303588    49Ap     2.346625  
      50Ap     2.383356    51Ap     2.383632    30App    2.465253  
      31App    2.466157    52Ap     2.660413    53Ap     2.660768  
      32App    2.687109    33App    2.687259    54Ap     2.715754  
      55Ap     2.726945    56Ap     2.764855    57Ap     2.765323  
      34App    2.884340    35App    2.884870    36App    2.885703  
      58Ap     2.892579    59Ap     2.972802    37App    3.019739  
      38App    3.019992    39App    3.054503    60Ap     3.077927  
      61Ap     3.078308    62Ap     3.122741    63Ap     3.123121  
      40App    3.132952    41App    3.137404    42App    3.137680  
      64Ap     3.278858    43App    3.294173    44App    3.294536  
      65Ap     3.304686    66Ap     3.353909    67Ap     3.354001  
      45App    3.363027    46App    3.453698    47App    3.499202  
      68Ap     3.549658    48App    3.608291    49App    3.608714  
      69Ap     3.651428    70Ap     3.652234    50App    3.656314  
      51App    3.693259    52App    3.693371    71Ap     3.713765  
      72Ap     3.714024    73Ap     3.790974    74Ap     3.868314  
      53App    3.885611    54App    3.885890    75Ap     3.893564  
      76Ap     3.893885    77Ap     4.028019    78Ap     4.028454  
      55App    4.089587    56App    4.089908    79Ap     4.115556  
      80Ap     4.115878    81Ap     4.125491    57App    4.149789  
      82Ap     4.189674    83Ap     4.190100    84Ap     4.195556  
      85Ap     4.360825    58App    4.361633    86Ap     4.361801  
      59App    4.362120    87Ap     4.478445    60App    4.547067  
      88Ap     4.594540    89Ap     4.595073    61App    4.795270  
      90Ap     4.888285    62App    4.892503    63App    4.892663  
      91Ap     4.958862    64App    5.022852    65App    5.087315  
      66App    5.087897    92Ap     5.091533    93Ap     5.112878  
      94Ap     5.113383    67App    5.235581    95Ap     5.285404  
      96Ap     5.359036    97Ap     5.360210    98Ap     5.446753  
      99Ap     5.447745    68App    5.711408    69App    5.735965  
      70App    5.737644    71App    5.907194    72App    5.908171  
     100Ap    10.854119   101Ap    12.929837   102Ap    12.935213  

    Final Occupation by Irrep:
             Ap   App 
    DOCC [     9,    3 ]

  @DF-RKS Final Energy:  -117.87705412952640

   => Energetics <=

    Nuclear Repulsion Energy =             75.2762678161621892
    One-Electron Energy =                -305.8679430152083114
    Two-Electron Energy =                 121.6228854462868867
    DFT Exchange-Correlation Energy =      -8.9082643767671730
    Empirical Dispersion Energy =           0.0000000000000000
    VV10 Nonlocal Energy =                  0.0000000000000000
    Total Energy =                       -117.8770541295263996

Computation Completed


Properties will be evaluated at   0.000000,   0.000000,   0.000000 [a0]

Properties computed using the SCF density matrix

  Nuclear Dipole Moment: [e a0]
     X:    -0.0019      Y:    -0.0002      Z:     0.0000

  Electronic Dipole Moment: [e a0]
     X:     0.0021      Y:    -0.0001      Z:     0.0000

  Dipole Moment: [e a0]
     X:     0.0002      Y:    -0.0003      Z:     0.0000     Total:     0.0003

  Dipole Moment: [D]
     X:     0.0005      Y:    -0.0007      Z:     0.0000     Total:     0.0009


*** tstop() called on atlantis at Tue Apr 19 11:33:30 2022
Module time:
	user time   =      26.42 seconds =       0.44 minutes
	system time =       0.06 seconds =       0.00 minutes
	total time  =         27 seconds =       0.45 minutes
Total time:
	user time   =     140.07 seconds =       2.33 minutes
	system time =       0.47 seconds =       0.01 minutes
	total time  =        141 seconds =       2.35 minutes

*** tstart() called on atlantis
*** at Tue Apr 19 11:33:30 2022


         ------------------------------------------------------------
                                   SCF GRAD                          
                          Rob Parrish, Justin Turney,                
                       Andy Simmonett, and Alex Sokolov              
         ------------------------------------------------------------

  ==> Geometry <==

    Molecular point group: cs
    Full point group: Cs

    Geometry (in Angstrom), charge = 0, multiplicity = 1:

       Center              X                  Y                   Z               Mass       
    ------------   -----------------  -----------------  -----------------  -----------------
         C            0.322081944250     0.813343688021     0.000000000000    12.000000000000
         C           -0.865318003082    -0.128389764139     0.000000000000    12.000000000000
         C            0.543404419293    -0.684939538412     0.000000000000    12.000000000000
         H            0.537301240642     1.360829034576    -0.920390000000     1.007825032230
[...]

    Exchange Hybrid     =           TRUE
    MP2 Hybrid          =          FALSE

   => Exchange Functionals <=

    1.0000   XC_HYB_MGGA_X_M06_2X

   => Exact (HF) Exchange <=

    0.5400               HF 

   => Correlation Functionals <=

    1.0000   XC_MGGA_C_M06_2X

   => Molecular Quadrature <=

    Radial Scheme          =       TREUTLER
    Pruning Scheme         =           FLAT
    Nuclear Scheme         =       TREUTLER

    BS radius alpha        =              1
    Pruning alpha          =              1
    Radial Points          =             75
    Spherical Points       =            302
    Total Points           =         201035
    Total Blocks           =           1569
    Max Points             =            256
    Max Functions          =            174


  -Total Gradient:
     Atom            X                  Y                   Z
    ------   -----------------  -----------------  -----------------
       1        0.001841757487     0.004638137690     0.000005786183
       2       -0.004887316931    -0.000686724687     0.000433948708
       3        0.003143933927    -0.003915015481    -0.001207508719
       4        0.001791442721     0.004504012880    -0.007435388736
       5        0.001794883123     0.004516944670     0.007432673233
       6       -0.004628225859    -0.000701013955     0.007146291843
       7       -0.004967021525    -0.000707844218    -0.007693525889
       8        0.002680028721    -0.003459295135    -0.006744286170
       9        0.003391540498    -0.004157637632     0.008060913154


*** tstop() called on atlantis at Tue Apr 19 11:49:56 2022
Module time:
	user time   =       4.90 seconds =       0.08 minutes
	system time =       0.07 seconds =       0.00 minutes
	total time  =          5 seconds =       0.08 minutes
Total time:
	user time   =    1121.82 seconds =      18.70 minutes
	system time =       3.76 seconds =       0.06 minutes
	total time  =       1127 seconds =      18.78 minutes

         ----------------------------------------------------------
                                   FINDIF
                     R. A. King and Jonathon Misiewicz
         ---------------------------------------------------------

  Computing second-derivative from gradients using projected, 
  symmetry-adapted, cartesian coordinates.

  34 gradients passed in, including the reference geometry.
  Generating complete list of displacements from unique ones.

    Operation 2 takes plus displacements of irrep A" to minus ones.

-------------------------------------------------------------


  ==> Harmonic Vibrational Analysis <==

  non-mass-weighted Hessian:       Symmetric? True   Hermitian? True   Lin Dep Dim?  6 (0)
  projection of translations (True) and rotations (True) removed 6 degrees of freedom (6)
  total projector:                 Symmetric? True   Hermitian? True   Lin Dep Dim?  6 (6)
  mass-weighted Hessian:           Symmetric? True   Hermitian? True   Lin Dep Dim?  6 (0)
  pre-proj  low-frequency mode:    0.0000i [cm^-1]
  pre-proj  low-frequency mode:    0.0000i [cm^-1]
  pre-proj  low-frequency mode:    0.0000i [cm^-1]
  pre-proj  low-frequency mode:    0.0000  [cm^-1]
  pre-proj  low-frequency mode:    0.0000  [cm^-1]
  pre-proj  low-frequency mode:    0.0000  [cm^-1]
  pre-proj  all modes:['0.0001i' '0.0000i' '0.0000i' '0.0000' '0.0000' '0.0000' '799.5034'
 '803.8784' '887.2052' '893.7693' '907.0370' '1079.7007' '1087.0059'
 '1122.4305' '1182.7277' '1197.0390' '1226.4051' '1227.8583' '1483.6794'
 '1491.9700' '1535.3655' '3055.0013' '3058.9931' '3062.4700' '3132.6238'
 '3132.7321' '3151.2478']
  projected mass-weighted Hessian: Symmetric? True   Hermitian? True   Lin Dep Dim?  6 (6)
  post-proj low-frequency mode:    0.0000i [cm^-1] (TR)
  post-proj low-frequency mode:    0.0000i [cm^-1] (TR)
  post-proj low-frequency mode:    0.0000i [cm^-1] (TR)
  post-proj low-frequency mode:    0.0000  [cm^-1] (TR)
  post-proj low-frequency mode:    0.0000  [cm^-1] (TR)
  post-proj low-frequency mode:    0.0000  [cm^-1] (TR)
  post-proj  all modes:['0.0000i' '0.0000i' '0.0000i' '0.0000' '0.0000' '0.0000' '799.5034'
 '803.8784' '887.2052' '893.7693' '907.0370' '1079.7007' '1087.0059'
 '1122.4305' '1182.7277' '1197.0390' '1226.4051' '1227.8583' '1483.6794'
 '1491.9700' '1535.3655' '3055.0013' '3058.9931' '3062.4700' '3132.6238'
 '3132.7321' '3151.2478']

  Vibration                       7                   8                   9           
  Freq [cm^-1]                 799.5034            803.8784            887.2052       
  Irrep                          App                 App                  Ap          
  Reduced mass [u]              1.0216              1.0222              3.6395        
  Force const [mDyne/A]         0.3847              0.3892              1.6879        
  Turning point v=0 [a0]        0.3839              0.3828              0.1931        
  RMS dev v=0 [a0 u^1/2]        0.2744              0.2737              0.2605        
  Char temp [K]               1150.3074           1156.6020           1276.4908       
  ----------------------------------------------------------------------------------
      1   C               -0.00  0.00 -0.01   -0.00 -0.00  0.03   -0.11  0.26 -0.00   
      2   C                0.00  0.00 -0.02   -0.00  0.00 -0.02    0.30 -0.02 -0.00   
      3   C               -0.00 -0.00  0.03    0.00 -0.00 -0.01   -0.14 -0.23 -0.00   
      4   H                0.43 -0.09  0.04   -0.03 -0.33 -0.18   -0.23  0.27 -0.02   
      5   H               -0.43  0.09  0.04    0.03  0.33 -0.18   -0.23  0.27  0.02   
      6   H                0.20  0.33  0.14    0.26 -0.30  0.12    0.25 -0.05 -0.03   
      7   H               -0.20 -0.33  0.14   -0.26  0.30  0.12    0.25 -0.05  0.03   
      8   H               -0.08  0.32 -0.17    0.39  0.18  0.06   -0.29 -0.33 -0.01   
      9   H                0.08 -0.32 -0.17   -0.39 -0.18  0.06   -0.29 -0.33  0.01   

  Vibration                       10                  11                  12          
  Freq [cm^-1]                 893.7693            907.0370           1079.7007       
  Irrep                           Ap                 App                  Ap          
  Reduced mass [u]              4.1445              1.0439              1.2755        
  Force const [mDyne/A]         1.9506              0.5060              0.8761        
  Turning point v=0 [a0]        0.1803              0.3566              0.2957        
  RMS dev v=0 [a0 u^1/2]        0.2595              0.2576              0.2361        
  Char temp [K]               1285.9351           1305.0243           1553.4489       
  ----------------------------------------------------------------------------------
      1   C               -0.28 -0.15 -0.00    0.00 -0.00 -0.03   -0.05  0.05 -0.00   
      2   C                0.03  0.29  0.00   -0.00 -0.00 -0.03    0.02 -0.03  0.00   
      3   C                0.27 -0.16  0.00    0.00  0.00 -0.03   -0.08 -0.10 -0.00   
      4   H               -0.33 -0.12  0.01    0.12  0.33  0.20    0.28 -0.07 -0.00   
      5   H               -0.33 -0.12 -0.01   -0.12 -0.33  0.20    0.28 -0.07  0.00   
      6   H                0.01  0.41 -0.00    0.35  0.05  0.19   -0.06  0.21 -0.02   
      7   H                0.01  0.41  0.00   -0.35 -0.05  0.19   -0.06  0.21  0.02   
      8   H                0.19 -0.17 -0.03    0.23 -0.28  0.20    0.50  0.33  0.01   
      9   H                0.19 -0.17  0.03   -0.23  0.28  0.20    0.50  0.33 -0.01   

  Vibration                       13                  14                  15          
  Freq [cm^-1]                1087.0059           1122.4305           1182.7277       
  Irrep                           Ap                  Ap                 App          
  Reduced mass [u]              1.2793              1.3828              1.0084        
  Force const [mDyne/A]         0.8906              1.0264              0.8311        
  Turning point v=0 [a0]        0.2942              0.2785              0.3177        
  RMS dev v=0 [a0 u^1/2]        0.2353              0.2316              0.2256        
  Char temp [K]               1563.9595           1614.9276           1701.6818       
  ----------------------------------------------------------------------------------
      1   C                0.04 -0.03 -0.00   -0.14  0.02 -0.00    0.00  0.00  0.00   
      2   C                0.03 -0.14  0.00    0.04 -0.06 -0.00   -0.00 -0.00 -0.01   
      3   C               -0.01  0.05 -0.00    0.05  0.08  0.00    0.00 -0.00  0.00   
      4   H               -0.26  0.05 -0.02    0.54 -0.27 -0.01   -0.39  0.14 -0.00   
      5   H               -0.26  0.05  0.02    0.54 -0.27  0.01    0.39 -0.14 -0.00   
      6   H               -0.04  0.64  0.02    0.04  0.14  0.01   -0.05  0.41  0.00   
      7   H               -0.04  0.64 -0.02    0.04  0.14 -0.01    0.05 -0.41  0.00   
      8   H               -0.07 -0.02  0.01   -0.29 -0.13 -0.02    0.31  0.25 -0.00   
      9   H               -0.07 -0.02 -0.01   -0.29 -0.13  0.02   -0.31 -0.25 -0.00   

  Vibration                       16                  17                  18          
  Freq [cm^-1]                1197.0390           1226.4051           1227.8583       
  Irrep                           Ap                 App                 App          
  Reduced mass [u]              2.6512              1.4459              1.4489        
  Force const [mDyne/A]         2.2383              1.2813              1.2870        
  Turning point v=0 [a0]        0.1948              0.2606              0.2601        
  RMS dev v=0 [a0 u^1/2]        0.2243              0.2216              0.2214        
  Char temp [K]               1722.2726           1764.5239           1766.6147       
  ----------------------------------------------------------------------------------
      1   C               -0.06 -0.21 -0.00    0.00  0.00 -0.12    0.00  0.00 -0.11   
      2   C                0.22  0.07  0.00   -0.00  0.00  0.15   -0.00 -0.00 -0.05   
      3   C               -0.18  0.13  0.00    0.00 -0.00 -0.03    0.00 -0.00  0.16   
      4   H               -0.19 -0.30 -0.06    0.34  0.19  0.06   -0.17  0.35  0.05   
      5   H               -0.19 -0.30  0.06   -0.34 -0.19  0.06    0.17 -0.35  0.05   
      6   H                0.35 -0.10  0.04   -0.36 -0.15 -0.08    0.18 -0.35  0.03   
      7   H                0.35 -0.10 -0.04    0.36  0.15 -0.08   -0.18  0.35  0.03   
      8   H               -0.05  0.40 -0.05    0.37  0.19  0.02   -0.18  0.36 -0.08   
      9   H               -0.05  0.40  0.05   -0.37 -0.19  0.02    0.18 -0.36 -0.08   

  Vibration                       19                  20                  21          
  Freq [cm^-1]                1483.6794           1491.9700           1535.3655       
  Irrep                           Ap                  Ap                  Ap          
  Reduced mass [u]              1.0956              1.0903              1.2973        
  Force const [mDyne/A]         1.4210              1.4299              1.8018        
  Turning point v=0 [a0]        0.2722              0.2721              0.2459        
  RMS dev v=0 [a0 u^1/2]        0.2014              0.2009              0.1980        
  Char temp [K]               2134.6844           2146.6127           2209.0492       
  ----------------------------------------------------------------------------------
      1   C               -0.03 -0.07 -0.00   -0.01  0.01  0.00   -0.03 -0.08 -0.00   
      2   C               -0.03 -0.01  0.00   -0.06  0.00  0.00    0.10  0.01 -0.00   
      3   C                0.01 -0.03 -0.00   -0.04  0.05 -0.00   -0.05  0.08  0.00   
      4   H                0.17  0.45  0.34    0.01 -0.04 -0.03    0.11  0.26  0.23   
      5   H                0.17  0.45 -0.34    0.01 -0.04  0.03    0.11  0.26 -0.23   
      6   H                0.25  0.05  0.17    0.39  0.03  0.27   -0.33 -0.04 -0.27   
      7   H                0.25  0.05 -0.17    0.39  0.03 -0.27   -0.33 -0.04  0.27   
      8   H               -0.11  0.15 -0.13    0.26 -0.33  0.30    0.18 -0.27  0.26   
      9   H               -0.11  0.15  0.13    0.26 -0.33 -0.30    0.18 -0.27 -0.26   

  Vibration                       22                  23                  24          
  Freq [cm^-1]                3055.0013           3058.9931           3062.4700       
  Irrep                           Ap                  Ap                  Ap          
  Reduced mass [u]              1.0498              1.0509              1.0627        
  Force const [mDyne/A]         5.7727              5.7938              5.8721        
  Turning point v=0 [a0]        0.1938              0.1935              0.1923        
  RMS dev v=0 [a0 u^1/2]        0.1404              0.1403              0.1402        
  Char temp [K]               4395.4667           4401.2100           4406.2125       
  ----------------------------------------------------------------------------------
      1   C                0.01  0.03  0.00    0.02  0.04  0.00   -0.01 -0.03 -0.00   
      2   C                0.05  0.01  0.00   -0.01 -0.00  0.00    0.04  0.01  0.00   
      3   C                0.02 -0.02  0.00   -0.03  0.03 -0.00   -0.03  0.04 -0.00   
      4   H               -0.07 -0.17  0.30   -0.10 -0.25  0.45    0.06  0.15 -0.27   
      5   H               -0.07 -0.17 -0.30   -0.10 -0.25 -0.45    0.06  0.15  0.27   
      6   H               -0.28 -0.04  0.46    0.05  0.01 -0.08   -0.22 -0.03  0.38   
      7   H               -0.28 -0.04 -0.46    0.05  0.01  0.08   -0.22 -0.03 -0.38   
      8   H               -0.09  0.11  0.24    0.15 -0.19 -0.39    0.14 -0.18 -0.39   
      9   H               -0.09  0.11 -0.24    0.15 -0.19  0.39    0.14 -0.18  0.39   

  Vibration                       25                  26                  27          
  Freq [cm^-1]                3132.6238           3132.7321           3151.2478       
  Irrep                          App                 App                 App          
  Reduced mass [u]              1.1211              1.1211              1.1162        
  Force const [mDyne/A]         6.4820              6.4825              6.5309        
  Turning point v=0 [a0]        0.1852              0.1852              0.1850        
  RMS dev v=0 [a0 u^1/2]        0.1386              0.1386              0.1382        
  Char temp [K]               4507.1482           4507.3041           4533.9440       
  ----------------------------------------------------------------------------------
      1   C                0.00 -0.00 -0.08   -0.00 -0.00  0.03    0.00 -0.00 -0.06   
      2   C               -0.00  0.00  0.01    0.00 -0.00 -0.08   -0.00 -0.00 -0.06   
      3   C               -0.00  0.00  0.06   -0.00  0.00  0.05    0.00 -0.00 -0.06   
      4   H               -0.11 -0.27  0.45    0.04  0.10 -0.17   -0.08 -0.21  0.34   
      5   H                0.11  0.27  0.45   -0.04 -0.10 -0.17    0.08  0.21  0.34   
      6   H                0.05  0.00 -0.08   -0.30 -0.05  0.48   -0.22 -0.03  0.34   
      7   H               -0.05 -0.00 -0.08    0.30  0.05  0.48    0.22  0.03  0.34   
      8   H                0.15 -0.19 -0.38    0.12 -0.15 -0.30   -0.14  0.17  0.34   
      9   H               -0.15  0.19 -0.38   -0.12  0.15 -0.30    0.14 -0.17  0.34   

  ==> Thermochemistry Components <==

  Entropy, S
    Electronic S            0.000 [cal/(mol K)]        0.000 [J/(mol K)]       0.00000000 [mEh/K] (multiplicity = 1)
    Translational S        37.135 [cal/(mol K)]      155.375 [J/(mol K)]       0.05917914 [mEh/K] (mol. weight = 42.0470 [u], P = 101325.00 [Pa])
    Rotational S           21.699 [cal/(mol K)]       90.789 [J/(mol K)]       0.03457982 [mEh/K] (symmetry no. = 1)
    Vibrational S           1.223 [cal/(mol K)]        5.118 [J/(mol K)]       0.00194934 [mEh/K]
  Total S                  60.058 [cal/(mol K)]      251.282 [J/(mol K)]       0.09570830 [mEh/K]
  Correction S              0.000 [cal/(mol K)]        0.000 [J/(mol K)]       0.00000000 [mEh/K]

  Constant volume heat capacity, Cv
    Electronic Cv           0.000 [cal/(mol K)]        0.000 [J/(mol K)]       0.00000000 [mEh/K]
    Translational Cv        2.981 [cal/(mol K)]       12.472 [J/(mol K)]       0.00475022 [mEh/K]
    Rotational Cv           2.981 [cal/(mol K)]       12.472 [J/(mol K)]       0.00475022 [mEh/K]
    Vibrational Cv          4.685 [cal/(mol K)]       19.604 [J/(mol K)]       0.00746666 [mEh/K]
  Total Cv                 10.647 [cal/(mol K)]       44.547 [J/(mol K)]       0.01696709 [mEh/K]
  Correction Cv             0.000 [cal/(mol K)]        0.000 [J/(mol K)]       0.00000000 [mEh/K]

  Constant pressure heat capacity, Cp
    Electronic Cp           0.000 [cal/(mol K)]        0.000 [J/(mol K)]       0.00000000 [mEh/K]
    Translational Cp        4.968 [cal/(mol K)]       20.786 [J/(mol K)]       0.00791703 [mEh/K]
    Rotational Cp           2.981 [cal/(mol K)]       12.472 [J/(mol K)]       0.00475022 [mEh/K]
    Vibrational Cp          4.685 [cal/(mol K)]       19.604 [J/(mol K)]       0.00746666 [mEh/K]
  Total Cp                 12.634 [cal/(mol K)]       52.862 [J/(mol K)]       0.02013390 [mEh/K]
  Correction Cp             0.000 [cal/(mol K)]        0.000 [J/(mol K)]       0.00000000 [mEh/K]

  ==> Thermochemistry Energy Analysis <==

  Raw electronic energy, E0
  Total E0, Electronic energy at well bottom at 0 [K]                 -117.87704595 [Eh]

  Zero-point energy, ZPE_vib = Sum_i nu_i / 2
    Electronic ZPE          0.000 [kcal/mol]        0.000 [kJ/mol]       0.00000000 [Eh]
    Translational ZPE       0.000 [kcal/mol]        0.000 [kJ/mol]       0.00000000 [Eh]
    Rotational ZPE          0.000 [kcal/mol]        0.000 [kJ/mol]       0.00000000 [Eh]
    Vibrational ZPE        50.776 [kcal/mol]      212.449 [kJ/mol]       0.08091742 [Eh]       17759.322 [cm^-1]
  Correction ZPE           50.776 [kcal/mol]      212.449 [kJ/mol]       0.08091742 [Eh]       17759.322 [cm^-1]
  Total ZPE, Electronic energy at 0 [K]                               -117.79612852 [Eh]

  Thermal Energy, E (includes ZPE)
    Electronic E            0.000 [kcal/mol]        0.000 [kJ/mol]       0.00000000 [Eh]
    Translational E         0.889 [kcal/mol]        3.718 [kJ/mol]       0.00141628 [Eh]
    Rotational E            0.889 [kcal/mol]        3.718 [kJ/mol]       0.00141628 [Eh]
    Vibrational E          51.075 [kcal/mol]      213.698 [kJ/mol]       0.08139343 [Eh]
  Correction E             52.853 [kcal/mol]      221.135 [kJ/mol]       0.08422599 [Eh]
  Total E, Electronic energy at  298.15 [K]                           -117.79281996 [Eh]

  Enthalpy, H_trans = E_trans + k_B * T
    Electronic H            0.000 [kcal/mol]        0.000 [kJ/mol]       0.00000000 [Eh]
    Translational H         1.481 [kcal/mol]        6.197 [kJ/mol]       0.00236046 [Eh]
    Rotational H            0.889 [kcal/mol]        3.718 [kJ/mol]       0.00141628 [Eh]
    Vibrational H          51.075 [kcal/mol]      213.698 [kJ/mol]       0.08139343 [Eh]
  Correction H             53.445 [kcal/mol]      223.614 [kJ/mol]       0.08517017 [Eh]
  Total H, Enthalpy at  298.15 [K]                                    -117.79187578 [Eh]

  Gibbs free energy, G = H - T * S
    Electronic G            0.000 [kcal/mol]        0.000 [kJ/mol]       0.00000000 [Eh]
    Translational G        -9.591 [kcal/mol]      -40.128 [kJ/mol]      -0.01528380 [Eh]
    Rotational G           -5.581 [kcal/mol]      -23.350 [kJ/mol]      -0.00889370 [Eh]
    Vibrational G          50.710 [kcal/mol]      212.172 [kJ/mol]       0.08081224 [Eh]
  Correction G             35.539 [kcal/mol]      148.694 [kJ/mol]       0.05663474 [Eh]
  Total G, Free enthalpy at  298.15 [K]                               -117.82041120 [Eh]

    Psi4 stopped on: Tuesday, 19 April 2022 11:49AM
    Psi4 wall time for execution: 0:18:46.48

*** Psi4 exiting successfully. Buy a developer a beer!
