
    -----------------------------------------------------------------------
          Psi4: An Open-Source Ab Initio Electronic Structure Package
                               Psi4 1.3.2 release

                         Git: Rev {HEAD} ecbda83 


    R. M. Parrish, L. A. Burns, D. G. A. Smith, A. C. Simmonett,
    A. E. DePrince III, E. G. Hohenstein, U. Bozkaya, A. Yu. Sokolov,
    R. Di Remigio, R. M. Richard, J. F. Gonthier, A. M. James,
    H. R. McAlexander, A. Kumar, M. Saitow, X. Wang, B. P. Pritchard,
    P. Verma, H. F. Schaefer III, K. Patkowski, R. A. King, E. F. Valeev,
    F. A. Evangelista, J. M. Turney, T. D. Crawford, and C. D. Sherrill,
    J. Chem. Theory Comput. 13(7) pp 3185--3197 (2017).
    (doi: 10.1021/acs.jctc.7b00174)


                         Additional Contributions by
    P. Kraus, H. Kruse, M. H. Lechner, M. C. Schieber, R. A. Shaw,
    A. Alenaizan, R. Galvelis, Z. L. Glick, S. Lehtola, and J. P. Misiewicz

    -----------------------------------------------------------------------


    Psi4 started on: Tuesday, 19 April 2022 12:12AM

    Process ID: 25188
    Host:       atlantis
    PSIDATADIR: /home/akrom/software/anaconda3/envs/ffpenv/share/psi4
    Memory:     500.0 MiB
    Threads:    1
    
  ==> Input File <==

--------------------------------------------------------------------------
set basis  6-31G
molecule {
0 1
   O        0.00000        0.00000       -0.06797
   H        0.74903        0.00000        0.53936
   H       -0.74903        0.00000        0.53936
}
energy('MP2')
frequencies('MP2')


--------------------------------------------------------------------------
    SCF Algorithm Type (re)set to DF.

*** tstart() called on atlantis
*** at Tue Apr 19 00:12:07 2022

   => Loading Basis Set <=

    Name: 6-31G
    Role: ORBITAL
    Keyword: BASIS
    atoms 1   entry O          line   117 file /home/akrom/software/anaconda3/envs/ffpenv/share/psi4/basis/6-31g.gbs 
    atoms 2-3 entry H          line    26 file /home/akrom/software/anaconda3/envs/ffpenv/share/psi4/basis/6-31g.gbs 


         ---------------------------------------------------------
                                   SCF
               by Justin Turney, Rob Parrish, Andy Simmonett
                          and Daniel G. A. Smith
                              RHF Reference
                        1 Threads,    500 MiB Core
         ---------------------------------------------------------

  ==> Geometry <==

    Molecular point group: c2v
    Full point group: C2v

    Geometry (in Angstrom), charge = 0, multiplicity = 1:

       Center              X                  Y                   Z               Mass       
    ------------   -----------------  -----------------  -----------------  -----------------
         O            0.000000000000     0.000000000000    -0.067969259994    15.994914619570
         H            0.749030000000     0.000000000000     0.539360740006     1.007825032230
         H           -0.749030000000    -0.000000000000     0.539360740006     1.007825032230

  Running in c2v symmetry.

  Rotational constants: A =     25.53156  B =     14.90675  C =      9.41168 [cm^-1]
  Rotational constants: A = 765416.81232  B = 446893.08836  C = 282155.15104 [MHz]
  Nuclear repulsion =    9.133433460995141

  Charge       = 0
  Multiplicity = 1
  Electrons    = 10
  Nalpha       = 5
  Nbeta        = 5

  ==> Algorithm <==

  SCF Algorithm Type is DF.
  DIIS enabled.
  MOM disabled.
  Fractional occupation disabled.
  Guess Type is SAD.
  Energy threshold   = 1.00e-08
  Density threshold  = 1.00e-08
  Integral threshold = 0.00e+00

  ==> Primary Basis <==

  Basis Set: 6-31G
    Blend: 6-31G
    Number of shells: 9
    Number of basis function: 13
    Number of Cartesian functions: 13
    Spherical Harmonics?: false
    Max angular momentum: 1

   => Loading Basis Set <=

    Name: (6-31G AUX)
    Role: JKFIT
    Keyword: DF_BASIS_SCF
    atoms 1   entry O          line   221 file /home/akrom/software/anaconda3/envs/ffpenv/share/psi4/basis/cc-pvdz-jkfit.gbs 
    atoms 2-3 entry H          line    51 file /home/akrom/software/anaconda3/envs/ffpenv/share/psi4/basis/cc-pvdz-jkfit.gbs 

  ==> Pre-Iterations <==

   -------------------------------------------------------
    Irrep   Nso     Nmo     Nalpha   Nbeta   Ndocc  Nsocc
   -------------------------------------------------------
     A1         7       7       0       0       0       0
     A2         0       0       0       0       0       0
     B1         4       4       0       0       0       0
     B2         2       2       0       0       0       0
   -------------------------------------------------------
    Total      13      13       5       5       5       0
   -------------------------------------------------------

  ==> Integral Setup <==

  DFHelper Memory: AOs need 0.000 GiB; user supplied 0.366 GiB. Using in-core AOs.

  ==> MemDFJK: Density-Fitted J/K Matrices <==

    J tasked:                   Yes
    K tasked:                   Yes
    wK tasked:                   No
    OpenMP threads:               1
    Memory [MiB]:               375
    Algorithm:                 Core
    Schwarz Cutoff:           1E-12
    Mask sparsity (%):       0.0000
    Fitting Condition:        1E-10

   => Auxiliary Basis Set <=

  Basis Set: (6-31G AUX)
    Blend: CC-PVDZ-JKFIT
    Number of shells: 42
    Number of basis function: 131
    Number of Cartesian functions: 131
    Spherical Harmonics?: false
    Max angular momentum: 3

  Minimum eigenvalue in the overlap matrix is 6.8079150050E-02.
  Using Symmetric Orthogonalization.

  SCF Guess: Superposition of Atomic Densities via on-the-fly atomic UHF.

  ==> Iterations <==

                           Total Energy        Delta E     RMS |[F,P]|

   @DF-RHF iter SAD:   -75.51719244213253   -7.55172e+01   0.00000e+00 
   @DF-RHF iter   1:   -75.90764277187276   -3.90450e-01   4.88696e-02 DIIS
   @DF-RHF iter   2:   -75.96277836547320   -5.51356e-02   2.86724e-02 DIIS
   @DF-RHF iter   3:   -75.98231049753745   -1.95321e-02   2.33985e-03 DIIS
   @DF-RHF iter   4:   -75.98264056336642   -3.30066e-04   4.28322e-04 DIIS
   @DF-RHF iter   5:   -75.98265182492460   -1.12616e-05   5.91195e-05 DIIS
   @DF-RHF iter   6:   -75.98265211669792   -2.91773e-07   9.64569e-06 DIIS
   @DF-RHF iter   7:   -75.98265212487263   -8.17471e-09   1.99071e-06 DIIS
   @DF-RHF iter   8:   -75.98265212527036   -3.97733e-10   4.18420e-07 DIIS
   @DF-RHF iter   9:   -75.98265212528452   -1.41540e-11   4.10339e-08 DIIS
   @DF-RHF iter  10:   -75.98265212528469   -1.70530e-13   3.55157e-09 DIIS
  Energy and wave function converged.


  ==> Post-Iterations <==

    Orbital Energies [Eh]
    ---------------------

    Doubly Occupied:                                                      

       1A1   -20.563711     2A1    -1.355547     1B1    -0.701679  
       3A1    -0.564605     1B2    -0.502273  

    Virtual:                                                              

       4A1     0.201425     2B1     0.297430     3B1     1.041087  
       2B2     1.163507     5A1     1.185873     6A1     1.223060  
       4B1     1.374905     7A1     1.704712  

    Final Occupation by Irrep:
             A1    A2    B1    B2 
    DOCC [     3,    0,    1,    1 ]

  @DF-RHF Final Energy:   -75.98265212528469

   => Energetics <=

    Nuclear Repulsion Energy =              9.1334334609951409
    One-Electron Energy =                -122.8565411334631250
    Two-Electron Energy =                  37.7404555471833092
    Total Energy =                        -75.9826521252846874

Computation Completed


Properties will be evaluated at   0.000000,   0.000000,   0.000000 [a0]

Properties computed using the SCF density matrix

  Nuclear Dipole Moment: [e a0]
     X:     0.0000      Y:     0.0000      Z:     1.0109

  Electronic Dipole Moment: [e a0]
     X:     0.0000      Y:     0.0000      Z:     0.0419

  Dipole Moment: [e a0]
     X:     0.0000      Y:     0.0000      Z:     1.0529     Total:     1.0529

  Dipole Moment: [D]
     X:     0.0000      Y:     0.0000      Z:     2.6761     Total:     2.6761


*** tstop() called on atlantis at Tue Apr 19 00:12:07 2022
Module time:
	user time   =       0.24 seconds =       0.00 minutes
	system time =       0.01 seconds =       0.00 minutes
	total time  =          0 seconds =       0.00 minutes
Total time:
	user time   =       0.24 seconds =       0.00 minutes
	system time =       0.01 seconds =       0.00 minutes
	total time  =          0 seconds =       0.00 minutes

*** tstart() called on atlantis
*** at Tue Apr 19 00:12:07 2022


  //>>>>>>>>>>>>>>>>>>>>>>>>>>>>>>>>>>>//
  //               DFMP2               //
  //<<<<<<<<<<<<<<<<<<<<<<<<<<<<<<<<<<<//

   => Loading Basis Set <=

    Name: (6-31G AUX)
    Role: RIFIT
    Keyword: DF_BASIS_MP2
    atoms 1   entry O          line   235 file /home/akrom/software/anaconda3/envs/ffpenv/share/psi4/basis/cc-pvdz-ri.gbs 
    atoms 2-3 entry H          line    19 file /home/akrom/software/anaconda3/envs/ffpenv/share/psi4/basis/cc-pvdz-ri.gbs 

	 --------------------------------------------------------
	                          DF-MP2                         
	      2nd-Order Density-Fitted Moller-Plesset Theory     
	              RMP2 Wavefunction,   1 Threads             
	                                                         
	        Rob Parrish, Justin Turney, Andy Simmonett,      
	           Ed Hohenstein, and C. David Sherrill          
	 --------------------------------------------------------

   => Auxiliary Basis Set <=

  Basis Set: (6-31G AUX)
    Blend: CC-PVDZ-RI
    Number of shells: 30
    Number of basis function: 84
    Number of Cartesian functions: 96
    Spherical Harmonics?: true
    Max angular momentum: 3

	 --------------------------------------------------------
	                 NBF =    13, NAUX =    84
	 --------------------------------------------------------
	   CLASS    FOCC     OCC    AOCC    AVIR     VIR    FVIR
	   PAIRS       0       5       5       8       8       0
	 --------------------------------------------------------

	-----------------------------------------------------------
	 ==================> DF-MP2 Energies <==================== 
	-----------------------------------------------------------
	 Reference Energy          =     -75.9826521252846874 [Eh]
	 Singles Energy            =      -0.0000000000000000 [Eh]
	 Same-Spin Energy          =      -0.0302906685437124 [Eh]
	 Opposite-Spin Energy      =      -0.0993294473514507 [Eh]
	 Correlation Energy        =      -0.1296201158951630 [Eh]
	 Total Energy              =     -76.1122722411798520 [Eh]
	-----------------------------------------------------------
	 ================> DF-SCS-MP2 Energies <================== 
	-----------------------------------------------------------
	 SCS Same-Spin Scale       =       0.3333333333333333 [-]
	 SCS Opposite-Spin Scale   =       1.2000000000000000 [-]
	 SCS Same-Spin Energy      =      -0.0100968895145708 [Eh]
	 SCS Opposite-Spin Energy  =      -0.1191953368217408 [Eh]
	 SCS Correlation Energy    =      -0.1292922263363116 [Eh]
	 SCS Total Energy          =     -76.1119443516210055 [Eh]
	-----------------------------------------------------------


*** tstop() called on atlantis at Tue Apr 19 00:12:08 2022
Module time:
	user time   =       0.05 seconds =       0.00 minutes
	system time =       0.00 seconds =       0.00 minutes
	total time  =          1 seconds =       0.02 minutes
Total time:
	user time   =       0.29 seconds =       0.00 minutes
	system time =       0.01 seconds =       0.00 minutes
	total time  =          1 seconds =       0.02 minutes
gradient() will perform analytic gradient computation.
    SCF Algorithm Type (re)set to DF.

*** tstart() called on atlantis
*** at Tue Apr 19 00:12:08 2022

   => Loading Basis Set <=

    Name: 6-31G
    Role: ORBITAL
    Keyword: BASIS
    atoms 1   entry O          line   117 file /home/akrom/software/anaconda3/envs/ffpenv/share/psi4/basis/6-31g.gbs 
    atoms 2-3 entry H          line    26 file /home/akrom/software/anaconda3/envs/ffpenv/share/psi4/basis/6-31g.gbs 


         ---------------------------------------------------------
                                   SCF
               by Justin Turney, Rob Parrish, Andy Simmonett
                          and Daniel G. A. Smith
                              RHF Reference
                        1 Threads,    500 MiB Core
         ---------------------------------------------------------

  ==> Geometry <==

    Molecular point group: c2v
    Full point group: C2v

    Geometry (in Angstrom), charge = 0, multiplicity = 1:

       Center              X                  Y                   Z               Mass       
    ------------   -----------------  -----------------  -----------------  -----------------
         O            0.000000000000     0.000000000000    -0.067969259994    15.994914619570
         H            0.749030000000     0.000000000000     0.539360740006     1.007825032230
         H           -0.749030000000    -0.000000000000     0.539360740006     1.007825032230

  Running in c2v symmetry.

  Rotational constants: A =     25.53156  B =     14.90675  C =      9.41168 [cm^-1]
  Rotational constants: A = 765416.81232  B = 446893.08836  C = 282155.15104 [MHz]
  Nuclear repulsion =    9.133433460995141

  Charge       = 0
  Multiplicity = 1
  Electrons    = 10
  Nalpha       = 5
  Nbeta        = 5

  ==> Algorithm <==

  SCF Algorithm Type is DF.
  DIIS enabled.
  MOM disabled.
  Fractional occupation disabled.
  Guess Type is SAD.
  Energy threshold   = 1.00e-10
  Density threshold  = 1.00e-10
  Integral threshold = 0.00e+00

  ==> Primary Basis <==

  Basis Set: 6-31G
    Blend: 6-31G
    Number of shells: 9
    Number of basis function: 13
    Number of Cartesian functions: 13
    Spherical Harmonics?: false
    Max angular momentum: 1

   => Loading Basis Set <=

    Name: (6-31G AUX)
    Role: JKFIT
    Keyword: DF_BASIS_SCF
    atoms 1   entry O          line   221 file /home/akrom/software/anaconda3/envs/ffpenv/share/psi4/basis/cc-pvdz-jkfit.gbs 
    atoms 2-3 entry H          line    51 file /home/akrom/software/anaconda3/envs/ffpenv/share/psi4/basis/cc-pvdz-jkfit.gbs 

  ==> Pre-Iterations <==

   -------------------------------------------------------
    Irrep   Nso     Nmo     Nalpha   Nbeta   Ndocc  Nsocc
   -------------------------------------------------------
     A1         7       7       0       0       0       0
     A2         0       0       0       0       0       0
     B1         4       4       0       0       0       0
     B2         2       2       0       0       0       0
   -------------------------------------------------------
    Total      13      13       5       5       5       0
   -------------------------------------------------------

  ==> Integral Setup <==

  DFHelper Memory: AOs need 0.000 GiB; user supplied 0.366 GiB. Using in-core AOs.

  ==> MemDFJK: Density-Fitted J/K Matrices <==

    J tasked:                   Yes
    K tasked:                   Yes
    wK tasked:                   No
    OpenMP threads:               1
    Memory [MiB]:               375
    Algorithm:                 Core
    Schwarz Cutoff:           1E-12
    Mask sparsity (%):       0.0000
    Fitting Condition:        1E-10

   => Auxiliary Basis Set <=

  Basis Set: (6-31G AUX)
    Blend: CC-PVDZ-JKFIT
    Number of shells: 42
    Number of basis function: 131
    Number of Cartesian functions: 131
    Spherical Harmonics?: false
    Max angular momentum: 3

  Minimum eigenvalue in the overlap matrix is 6.8079150050E-02.
  Using Symmetric Orthogonalization.

  SCF Guess: Superposition of Atomic Densities via on-the-fly atomic UHF.

  ==> Iterations <==

                           Total Energy        Delta E     RMS |[F,P]|

   @DF-RHF iter SAD:   -75.51719244213253   -7.55172e+01   0.00000e+00 
   @DF-RHF iter   1:   -75.90764277187276   -3.90450e-01   4.88696e-02 DIIS
   @DF-RHF iter   2:   -75.96277836547320   -5.51356e-02   2.86724e-02 DIIS
   @DF-RHF iter   3:   -75.98231049753745   -1.95321e-02   2.33985e-03 DIIS
   @DF-RHF iter   4:   -75.98264056336642   -3.30066e-04   4.28322e-04 DIIS
   @DF-RHF iter   5:   -75.98265182492460   -1.12616e-05   5.91195e-05 DIIS
   @DF-RHF iter   6:   -75.98265211669792   -2.91773e-07   9.64569e-06 DIIS
   @DF-RHF iter   7:   -75.98265212487263   -8.17471e-09   1.99071e-06 DIIS
   @DF-RHF iter   8:   -75.98265212527036   -3.97733e-10   4.18420e-07 DIIS
   @DF-RHF iter   9:   -75.98265212528452   -1.41540e-11   4.10339e-08 DIIS
   @DF-RHF iter  10:   -75.98265212528469   -1.70530e-13   3.55157e-09 DIIS
   @DF-RHF iter  11:   -75.98265212528472   -2.84217e-14   1.50963e-10 DIIS
   @DF-RHF iter  12:   -75.98265212528472    0.00000e+00   2.54877e-11 DIIS
  Energy and wave function converged.


  ==> Post-Iterations <==

    Orbital Energies [Eh]
    ---------------------

    Doubly Occupied:                                                      

       1A1   -20.563711     2A1    -1.355547     1B1    -0.701679  
       3A1    -0.564605     1B2    -0.502273  

    Virtual:                                                              

       4A1     0.201425     2B1     0.297430     3B1     1.041087  
       2B2     1.163507     5A1     1.185873     6A1     1.223060  
       4B1     1.374905     7A1     1.704712  

    Final Occupation by Irrep:
             A1    A2    B1    B2 
    DOCC [     3,    0,    1,    1 ]

  @DF-RHF Final Energy:   -75.98265212528472

   => Energetics <=

    Nuclear Repulsion Energy =              9.1334334609951409
    One-Electron Energy =                -122.8565411353923480
    Two-Electron Energy =                  37.7404555491125038
    Total Energy =                        -75.9826521252847158

Computation Completed


Properties will be evaluated at   0.000000,   0.000000,   0.000000 [a0]

Properties computed using the SCF density matrix

  Nuclear Dipole Moment: [e a0]
     X:     0.0000      Y:     0.0000      Z:     1.0109

  Electronic Dipole Moment: [e a0]
     X:     0.0000      Y:     0.0000      Z:     0.0419

  Dipole Moment: [e a0]
     X:     0.0000      Y:     0.0000      Z:     1.0529     Total:     1.0529

  Dipole Moment: [D]
     X:     0.0000      Y:     0.0000      Z:     2.6761     Total:     2.6761


*** tstop() called on atlantis at Tue Apr 19 00:12:08 2022
Module time:
	user time   =       0.25 seconds =       0.00 minutes
	system time =       0.01 seconds =       0.00 minutes
	total time  =          0 seconds =       0.00 minutes
Total time:
	user time   =       0.54 seconds =       0.01 minutes
	system time =       0.02 seconds =       0.00 minutes
	total time  =          1 seconds =       0.02 minutes

*** tstart() called on atlantis
*** at Tue Apr 19 00:12:08 2022


  //>>>>>>>>>>>>>>>>>>>>>>>>>>>>>>>>>>>//
  //               DFMP2               //
  //<<<<<<<<<<<<<<<<<<<<<<<<<<<<<<<<<<<//

   => Loading Basis Set <=

    Name: (6-31G AUX)
    Role: RIFIT
    Keyword: DF_BASIS_MP2
    atoms 1   entry O          line   235 file /home/akrom/software/anaconda3/envs/ffpenv/share/psi4/basis/cc-pvdz-ri.gbs 
    atoms 2-3 entry H          line    19 file /home/akrom/software/anaconda3/envs/ffpenv/share/psi4/basis/cc-pvdz-ri.gbs 

	 --------------------------------------------------------
	                          DF-MP2                         
	      2nd-Order Density-Fitted Moller-Plesset Theory     
	              RMP2 Wavefunction,   1 Threads             
	                                                         
	        Rob Parrish, Justin Turney, Andy Simmonett,      
	           Ed Hohenstein, and C. David Sherrill          
	 --------------------------------------------------------

   => Auxiliary Basis Set <=

  Basis Set: (6-31G AUX)
    Blend: CC-PVDZ-RI
    Number of shells: 30
    Number of basis function: 84
    Number of Cartesian functions: 96
    Spherical Harmonics?: true
    Max angular momentum: 3

	 --------------------------------------------------------
	                 NBF =    13, NAUX =    84
	 --------------------------------------------------------
	   CLASS    FOCC     OCC    AOCC    AVIR     VIR    FVIR
	   PAIRS       0       5       5       8       8       0
	 --------------------------------------------------------

  DFHelper Memory: AOs need 0.000 GiB; user supplied 0.366 GiB. Using in-core AOs.


         ------------------------------------------------------------
                                     CPHF                           
                                  Rob Parrish                       
         ------------------------------------------------------------

  ==> Geometry <==

    Molecular point group: c2v
    Full point group: C2v

    Geometry (in Angstrom), charge = 0, multiplicity = 1:

       Center              X                  Y                   Z               Mass       
    ------------   -----------------  -----------------  -----------------  -----------------
         O            0.000000000000     0.000000000000    -0.067969259994    15.994914619570
         H            0.749030000000     0.000000000000     0.539360740006     1.007825032230
         H           -0.749030000000    -0.000000000000     0.539360740006     1.007825032230

  Nuclear repulsion =    9.133433460995141
  Reference energy  =  -75.982652125284716

  ==> Basis Set <==

  Basis Set: 6-31G
    Blend: 6-31G
    Number of shells: 9
    Number of basis function: 13
    Number of Cartesian functions: 13
    Spherical Harmonics?: false
    Max angular momentum: 1

  ==> CGRSolver (by Rob Parrish) <==

   Number of roots    =         1
   Preconditioning    =    JACOBI
   Convergence cutoff =     1E-06
   Maximum iterations =       100

  ==> CPHFRHamiltonian (by Rob Parrish) <== 

  ==> MemDFJK: Density-Fitted J/K Matrices <==

    J tasked:                   Yes
    K tasked:                   Yes
    wK tasked:                   No
    OpenMP threads:               1
    Memory [MiB]:               375
    Algorithm:                 Core
    Schwarz Cutoff:           1E-12
    Mask sparsity (%):       0.0000
    Fitting Condition:        1E-10

   => Auxiliary Basis Set <=

  Basis Set: (6-31G AUX)
    Blend: CC-PVDZ-JKFIT
    Number of shells: 42
    Number of basis function: 131
    Number of Cartesian functions: 131
    Spherical Harmonics?: false
    Max angular momentum: 3

  ==> CPHF Iterations <==

  => Iterations <=

             Iter  Converged  Remaining    Residual
  CGR           1          0          1   9.641E-02
  CGR           2          0          1   1.470E-02
  CGR           3          0          1   1.680E-03
  CGR           4          0          1   3.383E-04
  CGR           5          0          1   5.542E-05
  CGR           6          0          1   8.796E-06
  CGR           7          1          0   3.407E-07

    CGRSolver converged.

  ==> DFCorrGrad: Density-Fitted Correlated Gradients <==

    OpenMP threads:              1
    Integrals threads:           1
    Memory [GiB]:            0.366
    Schwarz Cutoff:          0E+00
    Fitting Condition:       1E-10

   => Auxiliary Basis Set <=

  Basis Set: (6-31G AUX)
    Blend: CC-PVDZ-JKFIT
    Number of shells: 42
    Number of basis function: 131
    Number of Cartesian functions: 131
    Spherical Harmonics?: false
    Max angular momentum: 3

	-----------------------------------------------------------
	 ==================> DF-MP2 Energies <==================== 
	-----------------------------------------------------------
	 Reference Energy          =     -75.9826521252847158 [Eh]
	 Singles Energy            =      -0.0000000000000000 [Eh]
	 Same-Spin Energy          =      -0.0302906685554056 [Eh]
	 Opposite-Spin Energy      =      -0.0993294473931858 [Eh]
	 Correlation Energy        =      -0.1296201159485914 [Eh]
	 Total Energy              =     -76.1122722412333133 [Eh]
	-----------------------------------------------------------
	 ================> DF-SCS-MP2 Energies <================== 
	-----------------------------------------------------------
	 SCS Same-Spin Scale       =       0.3333333333333333 [-]
	 SCS Opposite-Spin Scale   =       1.2000000000000000 [-]
	 SCS Same-Spin Energy      =      -0.0100968895184685 [Eh]
	 SCS Opposite-Spin Energy  =      -0.1191953368718229 [Eh]
	 SCS Correlation Energy    =      -0.1292922263902914 [Eh]
	 SCS Total Energy          =     -76.1119443516750067 [Eh]
	-----------------------------------------------------------


  -Total Gradient:
     Atom            X                  Y                   Z
    ------   -----------------  -----------------  -----------------
       1        0.000000000000    -0.000000000000    -0.001661058767
       2       -0.021157958615    -0.000000000000     0.000830529384
       3        0.021157958615     0.000000000000     0.000830529384


*** tstop() called on atlantis at Tue Apr 19 00:12:08 2022
Module time:
	user time   =       0.18 seconds =       0.00 minutes
	system time =       0.00 seconds =       0.00 minutes
	total time  =          0 seconds =       0.00 minutes
Total time:
	user time   =       0.72 seconds =       0.01 minutes
	system time =       0.02 seconds =       0.00 minutes
	total time  =          1 seconds =       0.02 minutes

  Based on options and gradient (rms=1.00E-02), recommend projecting translations and projecting rotations.
hessian() will perform frequency computation by finite difference of analytic gradients.

         ----------------------------------------------------------
                                   FINDIF
                     R. A. King and Jonathon Misiewicz
         ---------------------------------------------------------

  Using finite-differences of gradients to determine vibrational frequencies and 
  normal modes.  Resulting frequencies are only valid at stationary points.
    Generating geometries for use with 3-point formula.
    Displacement size will be 5.00e-03.
    Number of atoms is 3.
    Number of irreps is 4.
    Number of SALCs is 3.
    Translations projected? 1. Rotations projected? 1.
    Index of SALCs per irrep:
     1 :  0  1 
     2 : 
     3 :  2 
     4 : 
    Number of SALCs per irrep:
     Irrep 1: 2
     Irrep 2: 0
     Irrep 3: 1
     Irrep 4: 0
    Number of geometries (including reference) is 6.
    Number of displacements per irrep:
      Irrep 1: 4
      Irrep 2: 0
      Irrep 3: 1
      Irrep 4: 0

  //>>>>>>>>>>>>>>>>>>>>>>>>>>>>>>>>>>>//
  //    Loading displacement 1 of 6    //
  //<<<<<<<<<<<<<<<<<<<<<<<<<<<<<<<<<<<//
gradient() will perform analytic gradient computation.
    SCF Algorithm Type (re)set to DF.

*** tstart() called on atlantis
*** at Tue Apr 19 00:12:08 2022

   => Loading Basis Set <=

    Name: 6-31G
    Role: ORBITAL
    Keyword: BASIS
    atoms 1   entry O          line   117 file /home/akrom/software/anaconda3/envs/ffpenv/share/psi4/basis/6-31g.gbs 
    atoms 2-3 entry H          line    26 file /home/akrom/software/anaconda3/envs/ffpenv/share/psi4/basis/6-31g.gbs 


         ---------------------------------------------------------
                                   SCF
               by Justin Turney, Rob Parrish, Andy Simmonett
                          and Daniel G. A. Smith
                              RHF Reference
                        1 Threads,    500 MiB Core
         ---------------------------------------------------------

  ==> Geometry <==

    Molecular point group: c2v
    Full point group: C2v

    Geometry (in Angstrom), charge = 0, multiplicity = 1:

       Center              X                  Y                   Z               Mass       
    ------------   -----------------  -----------------  -----------------  -----------------
         O            0.000000000000     0.000000000000    -0.067969259994    15.994914619570
         H            0.749030000000     0.000000000000     0.539360740006     1.007825032230
         H           -0.749030000000    -0.000000000000     0.539360740006     1.007825032230

  Running in c2v symmetry.

  Rotational constants: A =     25.53156  B =     14.90675  C =      9.41168 [cm^-1]
  Rotational constants: A = 765416.81232  B = 446893.08836  C = 282155.15104 [MHz]
  Nuclear repulsion =    9.133433460995141

  Charge       = 0
  Multiplicity = 1
  Electrons    = 10
  Nalpha       = 5
  Nbeta        = 5

  ==> Algorithm <==

  SCF Algorithm Type is DF.
  DIIS enabled.
  MOM disabled.
  Fractional occupation disabled.
  Guess Type is SAD.
  Energy threshold   = 1.00e-10
  Density threshold  = 1.00e-10
  Integral threshold = 0.00e+00

  ==> Primary Basis <==

  Basis Set: 6-31G
    Blend: 6-31G
    Number of shells: 9
    Number of basis function: 13
    Number of Cartesian functions: 13
    Spherical Harmonics?: false
    Max angular momentum: 1

   => Loading Basis Set <=

    Name: (6-31G AUX)
    Role: JKFIT
    Keyword: DF_BASIS_SCF
    atoms 1   entry O          line   221 file /home/akrom/software/anaconda3/envs/ffpenv/share/psi4/basis/cc-pvdz-jkfit.gbs 
    atoms 2-3 entry H          line    51 file /home/akrom/software/anaconda3/envs/ffpenv/share/psi4/basis/cc-pvdz-jkfit.gbs 

  ==> Pre-Iterations <==

   -------------------------------------------------------
    Irrep   Nso     Nmo     Nalpha   Nbeta   Ndocc  Nsocc
   -------------------------------------------------------
     A1         7       7       0       0       0       0
     A2         0       0       0       0       0       0
     B1         4       4       0       0       0       0
     B2         2       2       0       0       0       0
   -------------------------------------------------------
    Total      13      13       5       5       5       0
   -------------------------------------------------------

  ==> Integral Setup <==

  DFHelper Memory: AOs need 0.000 GiB; user supplied 0.366 GiB. Using in-core AOs.

  ==> MemDFJK: Density-Fitted J/K Matrices <==

    J tasked:                   Yes
    K tasked:                   Yes
    wK tasked:                   No
    OpenMP threads:               1
    Memory [MiB]:               375
    Algorithm:                 Core
    Schwarz Cutoff:           1E-12
    Mask sparsity (%):       0.0000
    Fitting Condition:        1E-10

   => Auxiliary Basis Set <=

  Basis Set: (6-31G AUX)
    Blend: CC-PVDZ-JKFIT
    Number of shells: 42
    Number of basis function: 131
    Number of Cartesian functions: 131
    Spherical Harmonics?: false
    Max angular momentum: 3

  Minimum eigenvalue in the overlap matrix is 6.8079150050E-02.
  Using Symmetric Orthogonalization.

  SCF Guess: Superposition of Atomic Densities via on-the-fly atomic UHF.

  ==> Iterations <==

                           Total Energy        Delta E     RMS |[F,P]|

   @DF-RHF iter SAD:   -75.51719244213253   -7.55172e+01   0.00000e+00 
   @DF-RHF iter   1:   -75.90764277187276   -3.90450e-01   4.88696e-02 DIIS
   @DF-RHF iter   2:   -75.96277836547330   -5.51356e-02   2.86724e-02 DIIS
   @DF-RHF iter   3:   -75.98231049753740   -1.95321e-02   2.33985e-03 DIIS
   @DF-RHF iter   4:   -75.98264056336637   -3.30066e-04   4.28322e-04 DIIS
   @DF-RHF iter   5:   -75.98265182492459   -1.12616e-05   5.91195e-05 DIIS
   @DF-RHF iter   6:   -75.98265211669782   -2.91773e-07   9.64569e-06 DIIS
   @DF-RHF iter   7:   -75.98265212487262   -8.17479e-09   1.99071e-06 DIIS
   @DF-RHF iter   8:   -75.98265212527041   -3.97790e-10   4.18420e-07 DIIS
   @DF-RHF iter   9:   -75.98265212528446   -1.40545e-11   4.10339e-08 DIIS
   @DF-RHF iter  10:   -75.98265212528466   -1.98952e-13   3.55157e-09 DIIS
   @DF-RHF iter  11:   -75.98265212528466    0.00000e+00   1.50964e-10 DIIS
   @DF-RHF iter  12:   -75.98265212528472   -5.68434e-14   2.54885e-11 DIIS
  Energy and wave function converged.


  ==> Post-Iterations <==

    Orbital Energies [Eh]
    ---------------------

    Doubly Occupied:                                                      

       1A1   -20.563711     2A1    -1.355547     1B1    -0.701679  
       3A1    -0.564605     1B2    -0.502273  

    Virtual:                                                              

       4A1     0.201425     2B1     0.297430     3B1     1.041087  
       2B2     1.163507     5A1     1.185873     6A1     1.223060  
       4B1     1.374905     7A1     1.704712  

    Final Occupation by Irrep:
             A1    A2    B1    B2 
    DOCC [     3,    0,    1,    1 ]

  @DF-RHF Final Energy:   -75.98265212528472

   => Energetics <=

    Nuclear Repulsion Energy =              9.1334334609951409
    One-Electron Energy =                -122.8565411353924048
    Two-Electron Energy =                  37.7404555491125535
    Total Energy =                        -75.9826521252847158

Computation Completed


Properties will be evaluated at   0.000000,   0.000000,   0.000000 [a0]

Properties computed using the SCF density matrix

  Nuclear Dipole Moment: [e a0]
     X:     0.0000      Y:     0.0000      Z:     1.0109

  Electronic Dipole Moment: [e a0]
     X:     0.0000      Y:     0.0000      Z:     0.0419

  Dipole Moment: [e a0]
     X:     0.0000      Y:     0.0000      Z:     1.0529     Total:     1.0529

  Dipole Moment: [D]
     X:     0.0000      Y:     0.0000      Z:     2.6761     Total:     2.6761


*** tstop() called on atlantis at Tue Apr 19 00:12:09 2022
Module time:
	user time   =       0.24 seconds =       0.00 minutes
	system time =       0.01 seconds =       0.00 minutes
	total time  =          1 seconds =       0.02 minutes
Total time:
	user time   =       1.23 seconds =       0.02 minutes
	system time =       0.04 seconds =       0.00 minutes
	total time  =          2 seconds =       0.03 minutes

*** tstart() called on atlantis
*** at Tue Apr 19 00:12:09 2022


  //>>>>>>>>>>>>>>>>>>>>>>>>>>>>>>>>>>>//
  //               DFMP2               //
  //<<<<<<<<<<<<<<<<<<<<<<<<<<<<<<<<<<<//

   => Loading Basis Set <=

    Name: (6-31G AUX)
    Role: RIFIT
    Keyword: DF_BASIS_MP2
    atoms 1   entry O          line   235 file /home/akrom/software/anaconda3/envs/ffpenv/share/psi4/basis/cc-pvdz-ri.gbs 
    atoms 2-3 entry H          line    19 file /home/akrom/software/anaconda3/envs/ffpenv/share/psi4/basis/cc-pvdz-ri.gbs 

	 --------------------------------------------------------
	                          DF-MP2                         
	      2nd-Order Density-Fitted Moller-Plesset Theory     
	              RMP2 Wavefunction,   1 Threads             
	                                                         
	        Rob Parrish, Justin Turney, Andy Simmonett,      
	           Ed Hohenstein, and C. David Sherrill          
	 --------------------------------------------------------

   => Auxiliary Basis Set <=

  Basis Set: (6-31G AUX)
    Blend: CC-PVDZ-RI
    Number of shells: 30
    Number of basis function: 84
    Number of Cartesian functions: 96
    Spherical Harmonics?: true
    Max angular momentum: 3

	 --------------------------------------------------------
	                 NBF =    13, NAUX =    84
	 --------------------------------------------------------
	   CLASS    FOCC     OCC    AOCC    AVIR     VIR    FVIR
	   PAIRS       0       5       5       8       8       0
	 --------------------------------------------------------

  DFHelper Memory: AOs need 0.000 GiB; user supplied 0.366 GiB. Using in-core AOs.


         ------------------------------------------------------------
                                     CPHF                           
                                  Rob Parrish                       
         ------------------------------------------------------------

  ==> Geometry <==

    Molecular point group: c2v
    Full point group: C2v

    Geometry (in Angstrom), charge = 0, multiplicity = 1:

       Center              X                  Y                   Z               Mass       
    ------------   -----------------  -----------------  -----------------  -----------------
         O            0.000000000000     0.000000000000    -0.067969259994    15.994914619570
         H            0.749030000000     0.000000000000     0.539360740006     1.007825032230
         H           -0.749030000000    -0.000000000000     0.539360740006     1.007825032230

  Nuclear repulsion =    9.133433460995141
  Reference energy  =  -75.982652125284716

  ==> Basis Set <==

  Basis Set: 6-31G
    Blend: 6-31G
    Number of shells: 9
    Number of basis function: 13
    Number of Cartesian functions: 13
    Spherical Harmonics?: false
    Max angular momentum: 1

  ==> CGRSolver (by Rob Parrish) <==

   Number of roots    =         1
   Preconditioning    =    JACOBI
   Convergence cutoff =     1E-06
   Maximum iterations =       100

  ==> CPHFRHamiltonian (by Rob Parrish) <== 

  ==> MemDFJK: Density-Fitted J/K Matrices <==

    J tasked:                   Yes
    K tasked:                   Yes
    wK tasked:                   No
    OpenMP threads:               1
    Memory [MiB]:               375
    Algorithm:                 Core
    Schwarz Cutoff:           1E-12
    Mask sparsity (%):       0.0000
    Fitting Condition:        1E-10

   => Auxiliary Basis Set <=

  Basis Set: (6-31G AUX)
    Blend: CC-PVDZ-JKFIT
    Number of shells: 42
    Number of basis function: 131
    Number of Cartesian functions: 131
    Spherical Harmonics?: false
    Max angular momentum: 3

  ==> CPHF Iterations <==

  => Iterations <=

             Iter  Converged  Remaining    Residual
  CGR           1          0          1   9.641E-02
  CGR           2          0          1   1.470E-02
  CGR           3          0          1   1.680E-03
  CGR           4          0          1   3.383E-04
  CGR           5          0          1   5.542E-05
  CGR           6          0          1   8.796E-06
  CGR           7          1          0   3.407E-07

    CGRSolver converged.

  ==> DFCorrGrad: Density-Fitted Correlated Gradients <==

    OpenMP threads:              1
    Integrals threads:           1
    Memory [GiB]:            0.366
    Schwarz Cutoff:          0E+00
    Fitting Condition:       1E-10

   => Auxiliary Basis Set <=

  Basis Set: (6-31G AUX)
    Blend: CC-PVDZ-JKFIT
    Number of shells: 42
    Number of basis function: 131
    Number of Cartesian functions: 131
    Spherical Harmonics?: false
    Max angular momentum: 3

	-----------------------------------------------------------
	 ==================> DF-MP2 Energies <==================== 
	-----------------------------------------------------------
	 Reference Energy          =     -75.9826521252847158 [Eh]
	 Singles Energy            =      -0.0000000000000000 [Eh]
	 Same-Spin Energy          =      -0.0302906685554056 [Eh]
	 Opposite-Spin Energy      =      -0.0993294473931859 [Eh]
	 Correlation Energy        =      -0.1296201159485915 [Eh]
	 Total Energy              =     -76.1122722412333133 [Eh]
	-----------------------------------------------------------
	 ================> DF-SCS-MP2 Energies <================== 
	-----------------------------------------------------------
	 SCS Same-Spin Scale       =       0.3333333333333333 [-]
	 SCS Opposite-Spin Scale   =       1.2000000000000000 [-]
	 SCS Same-Spin Energy      =      -0.0100968895184685 [Eh]
	 SCS Opposite-Spin Energy  =      -0.1191953368718230 [Eh]
	 SCS Correlation Energy    =      -0.1292922263902916 [Eh]
	 SCS Total Energy          =     -76.1119443516750067 [Eh]
	-----------------------------------------------------------


  -Total Gradient:
     Atom            X                  Y                   Z
    ------   -----------------  -----------------  -----------------
       1        0.000000000000    -0.000000000000    -0.001661058922
       2       -0.021157958460    -0.000000000000     0.000830529461
       3        0.021157958460     0.000000000000     0.000830529461


*** tstop() called on atlantis at Tue Apr 19 00:12:09 2022
Module time:
	user time   =       0.19 seconds =       0.00 minutes
	system time =       0.00 seconds =       0.00 minutes
	total time  =          0 seconds =       0.00 minutes
Total time:
	user time   =       1.42 seconds =       0.02 minutes
	system time =       0.04 seconds =       0.00 minutes
	total time  =          2 seconds =       0.03 minutes

  //>>>>>>>>>>>>>>>>>>>>>>>>>>>>>>>>>>>//
  //    Loading displacement 2 of 6    //
  //<<<<<<<<<<<<<<<<<<<<<<<<<<<<<<<<<<<//
gradient() will perform analytic gradient computation.
    SCF Algorithm Type (re)set to DF.

*** tstart() called on atlantis
*** at Tue Apr 19 00:12:09 2022

   => Loading Basis Set <=

    Name: 6-31G
    Role: ORBITAL
    Keyword: BASIS
    atoms 1   entry O          line   117 file /home/akrom/software/anaconda3/envs/ffpenv/share/psi4/basis/6-31g.gbs 
    atoms 2-3 entry H          line    26 file /home/akrom/software/anaconda3/envs/ffpenv/share/psi4/basis/6-31g.gbs 


         ---------------------------------------------------------
                                   SCF
               by Justin Turney, Rob Parrish, Andy Simmonett
                          and Daniel G. A. Smith
                              RHF Reference
                        1 Threads,    500 MiB Core
         ---------------------------------------------------------

  ==> Geometry <==

    Molecular point group: c2v
    Full point group: C2v

    Geometry (in Angstrom), charge = 0, multiplicity = 1:

       Center              X                  Y                   Z               Mass       
    ------------   -----------------  -----------------  -----------------  -----------------
         O            0.000000000000     0.000000000000    -0.068190581735    15.994914619570
         H            0.749030000000     0.000000000000     0.541117008324     1.007825032230
         H           -0.749030000000    -0.000000000000     0.541117008324     1.007825032230

  Running in c2v symmetry.

  Rotational constants: A =     25.36609  B =     14.90675  C =      9.38911 [cm^-1]
  Rotational constants: A = 760456.34809  B = 446893.08836  C = 281478.31580 [MHz]
  Nuclear repulsion =    9.122096529799810

  Charge       = 0
  Multiplicity = 1
  Electrons    = 10
  Nalpha       = 5
  Nbeta        = 5

  ==> Algorithm <==

  SCF Algorithm Type is DF.
  DIIS enabled.
  MOM disabled.
  Fractional occupation disabled.
  Guess Type is SAD.
  Energy threshold   = 1.00e-10
  Density threshold  = 1.00e-10
  Integral threshold = 0.00e+00

  ==> Primary Basis <==

  Basis Set: 6-31G
    Blend: 6-31G
    Number of shells: 9
    Number of basis function: 13
    Number of Cartesian functions: 13
    Spherical Harmonics?: false
    Max angular momentum: 1

   => Loading Basis Set <=

    Name: (6-31G AUX)
    Role: JKFIT
    Keyword: DF_BASIS_SCF
    atoms 1   entry O          line   221 file /home/akrom/software/anaconda3/envs/ffpenv/share/psi4/basis/cc-pvdz-jkfit.gbs 
    atoms 2-3 entry H          line    51 file /home/akrom/software/anaconda3/envs/ffpenv/share/psi4/basis/cc-pvdz-jkfit.gbs 

  ==> Pre-Iterations <==

   -------------------------------------------------------
    Irrep   Nso     Nmo     Nalpha   Nbeta   Ndocc  Nsocc
   -------------------------------------------------------
     A1         7       7       0       0       0       0
     A2         0       0       0       0       0       0
     B1         4       4       0       0       0       0
     B2         2       2       0       0       0       0
   -------------------------------------------------------
    Total      13      13       5       5       5       0
   -------------------------------------------------------

  ==> Integral Setup <==

  DFHelper Memory: AOs need 0.000 GiB; user supplied 0.366 GiB. Using in-core AOs.

  ==> MemDFJK: Density-Fitted J/K Matrices <==

    J tasked:                   Yes
    K tasked:                   Yes
    wK tasked:                   No
    OpenMP threads:               1
    Memory [MiB]:               375
    Algorithm:                 Core
    Schwarz Cutoff:           1E-12
    Mask sparsity (%):       0.0000
    Fitting Condition:        1E-10

   => Auxiliary Basis Set <=

  Basis Set: (6-31G AUX)
    Blend: CC-PVDZ-JKFIT
    Number of shells: 42
    Number of basis function: 131
    Number of Cartesian functions: 131
    Spherical Harmonics?: false
    Max angular momentum: 3

  Minimum eigenvalue in the overlap matrix is 6.8210874795E-02.
  Using Symmetric Orthogonalization.

  SCF Guess: Superposition of Atomic Densities via on-the-fly atomic UHF.

  ==> Iterations <==

                           Total Energy        Delta E     RMS |[F,P]|

   @DF-RHF iter SAD:   -75.51552764998092   -7.55155e+01   0.00000e+00 
   @DF-RHF iter   1:   -75.90737642146004   -3.91849e-01   4.88704e-02 DIIS
   @DF-RHF iter   2:   -75.96255849536705   -5.51821e-02   2.87281e-02 DIIS
   @DF-RHF iter   3:   -75.98216942741558   -1.96109e-02   2.34334e-03 DIIS
   @DF-RHF iter   4:   -75.98250132692512   -3.31900e-04   4.30735e-04 DIIS
   @DF-RHF iter   5:   -75.98251269800593   -1.13711e-05   5.91736e-05 DIIS
   @DF-RHF iter   6:   -75.98251298946894   -2.91463e-07   9.60877e-06 DIIS
   @DF-RHF iter   7:   -75.98251299753642   -8.06747e-09   1.98516e-06 DIIS
   @DF-RHF iter   8:   -75.98251299793223   -3.95815e-10   4.20979e-07 DIIS
   @DF-RHF iter   9:   -75.98251299794666   -1.44240e-11   4.13501e-08 DIIS
   @DF-RHF iter  10:   -75.98251299794691   -2.55795e-13   3.55716e-09 DIIS
   @DF-RHF iter  11:   -75.98251299794690    1.42109e-14   1.52262e-10 DIIS
   @DF-RHF iter  12:   -75.98251299794678    1.13687e-13   2.56836e-11 DIIS
  Energy and wave function converged.


  ==> Post-Iterations <==

    Orbital Energies [Eh]
    ---------------------

    Doubly Occupied:                                                      

       1A1   -20.564097     2A1    -1.355092     1B1    -0.700672  
       3A1    -0.564775     1B2    -0.502299  

    Virtual:                                                              

       4A1     0.201085     2B1     0.297035     3B1     1.039712  
       2B2     1.163435     5A1     1.184788     6A1     1.223507  
       4B1     1.374330     7A1     1.705319  

    Final Occupation by Irrep:
             A1    A2    B1    B2 
    DOCC [     3,    0,    1,    1 ]

  @DF-RHF Final Energy:   -75.98251299794678

   => Energetics <=

    Nuclear Repulsion Energy =              9.1220965297998102
    One-Electron Energy =                -122.8353499149338433
    Two-Electron Energy =                  37.7307403871872609
    Total Energy =                        -75.9825129979467704

Computation Completed


Properties will be evaluated at   0.000000,   0.000000,   0.000000 [a0]

Properties computed using the SCF density matrix

  Nuclear Dipole Moment: [e a0]
     X:     0.0000      Y:     0.0000      Z:     1.0142

  Electronic Dipole Moment: [e a0]
     X:     0.0000      Y:     0.0000      Z:     0.0400

  Dipole Moment: [e a0]
     X:     0.0000      Y:     0.0000      Z:     1.0542     Total:     1.0542

  Dipole Moment: [D]
     X:     0.0000      Y:     0.0000      Z:     2.6796     Total:     2.6796


*** tstop() called on atlantis at Tue Apr 19 00:12:09 2022
Module time:
	user time   =       0.23 seconds =       0.00 minutes
	system time =       0.00 seconds =       0.00 minutes
	total time  =          0 seconds =       0.00 minutes
Total time:
	user time   =       1.65 seconds =       0.03 minutes
	system time =       0.04 seconds =       0.00 minutes
	total time  =          2 seconds =       0.03 minutes

*** tstart() called on atlantis
*** at Tue Apr 19 00:12:09 2022


  //>>>>>>>>>>>>>>>>>>>>>>>>>>>>>>>>>>>//
  //               DFMP2               //
  //<<<<<<<<<<<<<<<<<<<<<<<<<<<<<<<<<<<//

   => Loading Basis Set <=

    Name: (6-31G AUX)
    Role: RIFIT
    Keyword: DF_BASIS_MP2
    atoms 1   entry O          line   235 file /home/akrom/software/anaconda3/envs/ffpenv/share/psi4/basis/cc-pvdz-ri.gbs 
    atoms 2-3 entry H          line    19 file /home/akrom/software/anaconda3/envs/ffpenv/share/psi4/basis/cc-pvdz-ri.gbs 

	 --------------------------------------------------------
	                          DF-MP2                         
	      2nd-Order Density-Fitted Moller-Plesset Theory     
	              RMP2 Wavefunction,   1 Threads             
	                                                         
	        Rob Parrish, Justin Turney, Andy Simmonett,      
	           Ed Hohenstein, and C. David Sherrill          
	 --------------------------------------------------------

   => Auxiliary Basis Set <=

  Basis Set: (6-31G AUX)
    Blend: CC-PVDZ-RI
    Number of shells: 30
    Number of basis function: 84
    Number of Cartesian functions: 96
    Spherical Harmonics?: true
    Max angular momentum: 3

	 --------------------------------------------------------
	                 NBF =    13, NAUX =    84
	 --------------------------------------------------------
	   CLASS    FOCC     OCC    AOCC    AVIR     VIR    FVIR
	   PAIRS       0       5       5       8       8       0
	 --------------------------------------------------------

  DFHelper Memory: AOs need 0.000 GiB; user supplied 0.366 GiB. Using in-core AOs.


         ------------------------------------------------------------
                                     CPHF                           
                                  Rob Parrish                       
         ------------------------------------------------------------

  ==> Geometry <==

    Molecular point group: c2v
    Full point group: C2v

    Geometry (in Angstrom), charge = 0, multiplicity = 1:

       Center              X                  Y                   Z               Mass       
    ------------   -----------------  -----------------  -----------------  -----------------
         O            0.000000000000     0.000000000000    -0.068190581735    15.994914619570
         H            0.749030000000     0.000000000000     0.541117008324     1.007825032230
         H           -0.749030000000    -0.000000000000     0.541117008324     1.007825032230

  Nuclear repulsion =    9.122096529799810
  Reference energy  =  -75.982512997946785

  ==> Basis Set <==

  Basis Set: 6-31G
    Blend: 6-31G
    Number of shells: 9
    Number of basis function: 13
    Number of Cartesian functions: 13
    Spherical Harmonics?: false
    Max angular momentum: 1

  ==> CGRSolver (by Rob Parrish) <==

   Number of roots    =         1
   Preconditioning    =    JACOBI
   Convergence cutoff =     1E-06
   Maximum iterations =       100

  ==> CPHFRHamiltonian (by Rob Parrish) <== 

  ==> MemDFJK: Density-Fitted J/K Matrices <==

    J tasked:                   Yes
    K tasked:                   Yes
    wK tasked:                   No
    OpenMP threads:               1
    Memory [MiB]:               375
    Algorithm:                 Core
    Schwarz Cutoff:           1E-12
    Mask sparsity (%):       0.0000
    Fitting Condition:        1E-10

   => Auxiliary Basis Set <=

  Basis Set: (6-31G AUX)
    Blend: CC-PVDZ-JKFIT
    Number of shells: 42
    Number of basis function: 131
    Number of Cartesian functions: 131
    Spherical Harmonics?: false
    Max angular momentum: 3

  ==> CPHF Iterations <==

  => Iterations <=

             Iter  Converged  Remaining    Residual
  CGR           1          0          1   9.641E-02
  CGR           2          0          1   1.475E-02
  CGR           3          0          1   1.692E-03
  CGR           4          0          1   3.403E-04
  CGR           5          0          1   5.556E-05
  CGR           6          0          1   8.880E-06
  CGR           7          1          0   3.465E-07

    CGRSolver converged.

  ==> DFCorrGrad: Density-Fitted Correlated Gradients <==

    OpenMP threads:              1
    Integrals threads:           1
    Memory [GiB]:            0.366
    Schwarz Cutoff:          0E+00
    Fitting Condition:       1E-10

   => Auxiliary Basis Set <=

  Basis Set: (6-31G AUX)
    Blend: CC-PVDZ-JKFIT
    Number of shells: 42
    Number of basis function: 131
    Number of Cartesian functions: 131
    Spherical Harmonics?: false
    Max angular momentum: 3

	-----------------------------------------------------------
	 ==================> DF-MP2 Energies <==================== 
	-----------------------------------------------------------
	 Reference Energy          =     -75.9825129979467846 [Eh]
	 Singles Energy            =      -0.0000000000000000 [Eh]
	 Same-Spin Energy          =      -0.0303170195285443 [Eh]
	 Opposite-Spin Energy      =      -0.0994330126767950 [Eh]
	 Correlation Energy        =      -0.1297500322053393 [Eh]
	 Total Energy              =     -76.1122630301521212 [Eh]
	-----------------------------------------------------------
	 ================> DF-SCS-MP2 Energies <================== 
	-----------------------------------------------------------
	 SCS Same-Spin Scale       =       0.3333333333333333 [-]
	 SCS Opposite-Spin Scale   =       1.2000000000000000 [-]
	 SCS Same-Spin Energy      =      -0.0101056731761814 [Eh]
	 SCS Opposite-Spin Energy  =      -0.1193196152121540 [Eh]
	 SCS Correlation Energy    =      -0.1294252883883354 [Eh]
	 SCS Total Energy          =     -76.1119382863351177 [Eh]
	-----------------------------------------------------------


  -Total Gradient:
     Atom            X                  Y                   Z
    ------   -----------------  -----------------  -----------------
       1        0.000000000000    -0.000000000000    -0.003267218068
       2       -0.020435276547    -0.000000000000     0.001633609034
       3        0.020435276547     0.000000000000     0.001633609034


*** tstop() called on atlantis at Tue Apr 19 00:12:09 2022
Module time:
	user time   =       0.19 seconds =       0.00 minutes
	system time =       0.00 seconds =       0.00 minutes
	total time  =          0 seconds =       0.00 minutes
Total time:
	user time   =       1.84 seconds =       0.03 minutes
	system time =       0.04 seconds =       0.00 minutes
	total time  =          2 seconds =       0.03 minutes

  //>>>>>>>>>>>>>>>>>>>>>>>>>>>>>>>>>>>//
  //    Loading displacement 3 of 6    //
  //<<<<<<<<<<<<<<<<<<<<<<<<<<<<<<<<<<<//
gradient() will perform analytic gradient computation.
    SCF Algorithm Type (re)set to DF.

*** tstart() called on atlantis
*** at Tue Apr 19 00:12:09 2022

   => Loading Basis Set <=

    Name: 6-31G
    Role: ORBITAL
    Keyword: BASIS
    atoms 1   entry O          line   117 file /home/akrom/software/anaconda3/envs/ffpenv/share/psi4/basis/6-31g.gbs 
    atoms 2-3 entry H          line    26 file /home/akrom/software/anaconda3/envs/ffpenv/share/psi4/basis/6-31g.gbs 


         ---------------------------------------------------------
                                   SCF
               by Justin Turney, Rob Parrish, Andy Simmonett
                          and Daniel G. A. Smith
                              RHF Reference
                        1 Threads,    500 MiB Core
         ---------------------------------------------------------

  ==> Geometry <==

    Molecular point group: c2v
    Full point group: C2v

    Geometry (in Angstrom), charge = 0, multiplicity = 1:

       Center              X                  Y                   Z               Mass       
    ------------   -----------------  -----------------  -----------------  -----------------
         O            0.000000000000     0.000000000000    -0.067747938253    15.994914619570
         H            0.749030000000     0.000000000000     0.537604471688     1.007825032230
         H           -0.749030000000    -0.000000000000     0.537604471688     1.007825032230

  Running in c2v symmetry.

  Rotational constants: A =     25.69864  B =     14.90675  C =      9.43429 [cm^-1]
  Rotational constants: A = 770425.97106  B = 446893.08836  C = 282833.03288 [MHz]
  Nuclear repulsion =    9.144777407102437

  Charge       = 0
  Multiplicity = 1
  Electrons    = 10
  Nalpha       = 5
  Nbeta        = 5

  ==> Algorithm <==

  SCF Algorithm Type is DF.
  DIIS enabled.
  MOM disabled.
  Fractional occupation disabled.
  Guess Type is SAD.
  Energy threshold   = 1.00e-10
  Density threshold  = 1.00e-10
  Integral threshold = 0.00e+00

  ==> Primary Basis <==

  Basis Set: 6-31G
    Blend: 6-31G
    Number of shells: 9
    Number of basis function: 13
    Number of Cartesian functions: 13
    Spherical Harmonics?: false
    Max angular momentum: 1

   => Loading Basis Set <=

    Name: (6-31G AUX)
    Role: JKFIT
    Keyword: DF_BASIS_SCF
    atoms 1   entry O          line   221 file /home/akrom/software/anaconda3/envs/ffpenv/share/psi4/basis/cc-pvdz-jkfit.gbs 
    atoms 2-3 entry H          line    51 file /home/akrom/software/anaconda3/envs/ffpenv/share/psi4/basis/cc-pvdz-jkfit.gbs 

  ==> Pre-Iterations <==

   -------------------------------------------------------
    Irrep   Nso     Nmo     Nalpha   Nbeta   Ndocc  Nsocc
   -------------------------------------------------------
     A1         7       7       0       0       0       0
     A2         0       0       0       0       0       0
     B1         4       4       0       0       0       0
     B2         2       2       0       0       0       0
   -------------------------------------------------------
    Total      13      13       5       5       5       0
   -------------------------------------------------------

  ==> Integral Setup <==

  DFHelper Memory: AOs need 0.000 GiB; user supplied 0.366 GiB. Using in-core AOs.

  ==> MemDFJK: Density-Fitted J/K Matrices <==

    J tasked:                   Yes
    K tasked:                   Yes
    wK tasked:                   No
    OpenMP threads:               1
    Memory [MiB]:               375
    Algorithm:                 Core
    Schwarz Cutoff:           1E-12
    Mask sparsity (%):       0.0000
    Fitting Condition:        1E-10

   => Auxiliary Basis Set <=

  Basis Set: (6-31G AUX)
    Blend: CC-PVDZ-JKFIT
    Number of shells: 42
    Number of basis function: 131
    Number of Cartesian functions: 131
    Spherical Harmonics?: false
    Max angular momentum: 3

  Minimum eigenvalue in the overlap matrix is 6.7948470640E-02.
  Using Symmetric Orthogonalization.

  SCF Guess: Superposition of Atomic Densities via on-the-fly atomic UHF.

  ==> Iterations <==

                           Total Energy        Delta E     RMS |[F,P]|

   @DF-RHF iter SAD:   -75.51885167063469   -7.55189e+01   0.00000e+00 
   @DF-RHF iter   1:   -75.90790160375975   -3.89050e-01   4.88691e-02 DIIS
   @DF-RHF iter   2:   -75.96299086663599   -5.50893e-02   2.86172e-02 DIIS
   @DF-RHF iter   3:   -75.98244502750579   -1.94542e-02   2.33642e-03 DIIS
   @DF-RHF iter   4:   -75.98277327200860   -3.28245e-04   4.25918e-04 DIIS
   @DF-RHF iter   5:   -75.98278442505452   -1.11530e-05   5.90662e-05 DIIS
   @DF-RHF iter   6:   -75.98278471715264   -2.92098e-07   9.68216e-06 DIIS
   @DF-RHF iter   7:   -75.98278472543355   -8.28091e-09   1.99571e-06 DIIS
   @DF-RHF iter   8:   -75.98278472583311   -3.99567e-10   4.15805e-07 DIIS
   @DF-RHF iter   9:   -75.98278472584686   -1.37419e-11   4.07213e-08 DIIS
   @DF-RHF iter  10:   -75.98278472584705   -1.98952e-13   3.54582e-09 DIIS
   @DF-RHF iter  11:   -75.98278472584704    1.42109e-14   1.49690e-10 DIIS
   @DF-RHF iter  12:   -75.98278472584703    1.42109e-14   2.52942e-11 DIIS
  Energy and wave function converged.


  ==> Post-Iterations <==

    Orbital Energies [Eh]
    ---------------------

    Doubly Occupied:                                                      

       1A1   -20.563326     2A1    -1.356001     1B1    -0.702689  
       3A1    -0.564434     1B2    -0.502246  

    Virtual:                                                              

       4A1     0.201764     2B1     0.297822     3B1     1.042474  
       2B2     1.163578     5A1     1.186947     6A1     1.222612  
       4B1     1.375484     7A1     1.704105  

    Final Occupation by Irrep:
             A1    A2    B1    B2 
    DOCC [     3,    0,    1,    1 ]

  @DF-RHF Final Energy:   -75.98278472584703

   => Energetics <=

    Nuclear Repulsion Energy =              9.1447774071024366
    One-Electron Energy =                -122.8777316287108192
    Two-Electron Energy =                  37.7501694957613623
    Total Energy =                        -75.9827847258470115

Computation Completed


Properties will be evaluated at   0.000000,   0.000000,   0.000000 [a0]

Properties computed using the SCF density matrix

  Nuclear Dipole Moment: [e a0]
     X:     0.0000      Y:     0.0000      Z:     1.0077

  Electronic Dipole Moment: [e a0]
     X:     0.0000      Y:     0.0000      Z:     0.0439

  Dipole Moment: [e a0]
     X:     0.0000      Y:     0.0000      Z:     1.0515     Total:     1.0515

  Dipole Moment: [D]
     X:     0.0000      Y:     0.0000      Z:     2.6727     Total:     2.6727


*** tstop() called on atlantis at Tue Apr 19 00:12:09 2022
Module time:
	user time   =       0.23 seconds =       0.00 minutes
	system time =       0.00 seconds =       0.00 minutes
	total time  =          0 seconds =       0.00 minutes
Total time:
	user time   =       2.07 seconds =       0.03 minutes
	system time =       0.04 seconds =       0.00 minutes
	total time  =          2 seconds =       0.03 minutes

*** tstart() called on atlantis
*** at Tue Apr 19 00:12:09 2022


  //>>>>>>>>>>>>>>>>>>>>>>>>>>>>>>>>>>>//
  //               DFMP2               //
  //<<<<<<<<<<<<<<<<<<<<<<<<<<<<<<<<<<<//

   => Loading Basis Set <=

    Name: (6-31G AUX)
    Role: RIFIT
    Keyword: DF_BASIS_MP2
    atoms 1   entry O          line   235 file /home/akrom/software/anaconda3/envs/ffpenv/share/psi4/basis/cc-pvdz-ri.gbs 
    atoms 2-3 entry H          line    19 file /home/akrom/software/anaconda3/envs/ffpenv/share/psi4/basis/cc-pvdz-ri.gbs 

	 --------------------------------------------------------
	                          DF-MP2                         
	      2nd-Order Density-Fitted Moller-Plesset Theory     
	              RMP2 Wavefunction,   1 Threads             
	                                                         
	        Rob Parrish, Justin Turney, Andy Simmonett,      
	           Ed Hohenstein, and C. David Sherrill          
	 --------------------------------------------------------

   => Auxiliary Basis Set <=

  Basis Set: (6-31G AUX)
    Blend: CC-PVDZ-RI
    Number of shells: 30
    Number of basis function: 84
    Number of Cartesian functions: 96
    Spherical Harmonics?: true
    Max angular momentum: 3

	 --------------------------------------------------------
	                 NBF =    13, NAUX =    84
	 --------------------------------------------------------
	   CLASS    FOCC     OCC    AOCC    AVIR     VIR    FVIR
	   PAIRS       0       5       5       8       8       0
	 --------------------------------------------------------

  DFHelper Memory: AOs need 0.000 GiB; user supplied 0.366 GiB. Using in-core AOs.


         ------------------------------------------------------------
                                     CPHF                           
                                  Rob Parrish                       
         ------------------------------------------------------------

  ==> Geometry <==

    Molecular point group: c2v
    Full point group: C2v

    Geometry (in Angstrom), charge = 0, multiplicity = 1:

       Center              X                  Y                   Z               Mass       
    ------------   -----------------  -----------------  -----------------  -----------------
         O            0.000000000000     0.000000000000    -0.067747938253    15.994914619570
         H            0.749030000000     0.000000000000     0.537604471688     1.007825032230
         H           -0.749030000000    -0.000000000000     0.537604471688     1.007825032230

  Nuclear repulsion =    9.144777407102437
  Reference energy  =  -75.982784725847026

  ==> Basis Set <==

  Basis Set: 6-31G
    Blend: 6-31G
    Number of shells: 9
    Number of basis function: 13
    Number of Cartesian functions: 13
    Spherical Harmonics?: false
    Max angular momentum: 1

  ==> CGRSolver (by Rob Parrish) <==

   Number of roots    =         1
   Preconditioning    =    JACOBI
   Convergence cutoff =     1E-06
   Maximum iterations =       100

  ==> CPHFRHamiltonian (by Rob Parrish) <== 

  ==> MemDFJK: Density-Fitted J/K Matrices <==

    J tasked:                   Yes
    K tasked:                   Yes
    wK tasked:                   No
    OpenMP threads:               1
    Memory [MiB]:               375
    Algorithm:                 Core
    Schwarz Cutoff:           1E-12
    Mask sparsity (%):       0.0000
    Fitting Condition:        1E-10

   => Auxiliary Basis Set <=

  Basis Set: (6-31G AUX)
    Blend: CC-PVDZ-JKFIT
    Number of shells: 42
    Number of basis function: 131
    Number of Cartesian functions: 131
    Spherical Harmonics?: false
    Max angular momentum: 3

  ==> CPHF Iterations <==

  => Iterations <=

             Iter  Converged  Remaining    Residual
  CGR           1          0          1   9.641E-02
  CGR           2          0          1   1.465E-02
  CGR           3          0          1   1.668E-03
  CGR           4          0          1   3.364E-04
  CGR           5          0          1   5.527E-05
  CGR           6          0          1   8.713E-06
  CGR           7          1          0   3.350E-07

    CGRSolver converged.

  ==> DFCorrGrad: Density-Fitted Correlated Gradients <==

    OpenMP threads:              1
    Integrals threads:           1
    Memory [GiB]:            0.366
    Schwarz Cutoff:          0E+00
    Fitting Condition:       1E-10

   => Auxiliary Basis Set <=

  Basis Set: (6-31G AUX)
    Blend: CC-PVDZ-JKFIT
    Number of shells: 42
    Number of basis function: 131
    Number of Cartesian functions: 131
    Spherical Harmonics?: false
    Max angular momentum: 3

	-----------------------------------------------------------
	 ==================> DF-MP2 Energies <==================== 
	-----------------------------------------------------------
	 Reference Energy          =     -75.9827847258470257 [Eh]
	 Singles Energy            =      -0.0000000000000000 [Eh]
	 Same-Spin Energy          =      -0.0302644584355308 [Eh]
	 Opposite-Spin Energy      =      -0.0992262516170138 [Eh]
	 Correlation Energy        =      -0.1294907100525446 [Eh]
	 Total Energy              =     -76.1122754358995763 [Eh]
	-----------------------------------------------------------
	 ================> DF-SCS-MP2 Energies <================== 
	-----------------------------------------------------------
	 SCS Same-Spin Scale       =       0.3333333333333333 [-]
	 SCS Opposite-Spin Scale   =       1.2000000000000000 [-]
	 SCS Same-Spin Energy      =      -0.0100881528118436 [Eh]
	 SCS Opposite-Spin Energy  =      -0.1190715019404165 [Eh]
	 SCS Correlation Energy    =      -0.1291596547522601 [Eh]
	 SCS Total Energy          =     -76.1119443805992830 [Eh]
	-----------------------------------------------------------


  -Total Gradient:
     Atom            X                  Y                   Z
    ------   -----------------  -----------------  -----------------
       1        0.000000000000    -0.000000000000    -0.000047413760
       2       -0.021888668677    -0.000000000000     0.000023706880
       3        0.021888668677     0.000000000000     0.000023706880


*** tstop() called on atlantis at Tue Apr 19 00:12:10 2022
Module time:
	user time   =       0.19 seconds =       0.00 minutes
	system time =       0.00 seconds =       0.00 minutes
	total time  =          1 seconds =       0.02 minutes
Total time:
	user time   =       2.26 seconds =       0.04 minutes
	system time =       0.04 seconds =       0.00 minutes
	total time  =          3 seconds =       0.05 minutes

  //>>>>>>>>>>>>>>>>>>>>>>>>>>>>>>>>>>>//
  //    Loading displacement 4 of 6    //
  //<<<<<<<<<<<<<<<<<<<<<<<<<<<<<<<<<<<//
gradient() will perform analytic gradient computation.
    SCF Algorithm Type (re)set to DF.

*** tstart() called on atlantis
*** at Tue Apr 19 00:12:10 2022

   => Loading Basis Set <=

    Name: 6-31G
    Role: ORBITAL
    Keyword: BASIS
    atoms 1   entry O          line   117 file /home/akrom/software/anaconda3/envs/ffpenv/share/psi4/basis/6-31g.gbs 
    atoms 2-3 entry H          line    26 file /home/akrom/software/anaconda3/envs/ffpenv/share/psi4/basis/6-31g.gbs 


         ---------------------------------------------------------
                                   SCF
               by Justin Turney, Rob Parrish, Andy Simmonett
                          and Daniel G. A. Smith
                              RHF Reference
                        1 Threads,    500 MiB Core
         ---------------------------------------------------------

  ==> Geometry <==

    Molecular point group: c2v
    Full point group: C2v

    Geometry (in Angstrom), charge = 0, multiplicity = 1:

       Center              X                  Y                   Z               Mass       
    ------------   -----------------  -----------------  -----------------  -----------------
         O            0.000000000000     0.000000000000    -0.067969259994    15.994914619570
         H            0.747166353368     0.000000000000     0.539360740006     1.007825032230
         H           -0.747166353368    -0.000000000000     0.539360740006     1.007825032230

  Running in c2v symmetry.

  Rotational constants: A =     25.53156  B =     14.98121  C =      9.44131 [cm^-1]
  Rotational constants: A = 765416.81232  B = 449125.22710  C = 283043.31057 [MHz]
  Nuclear repulsion =    9.147508349681694

  Charge       = 0
  Multiplicity = 1
  Electrons    = 10
  Nalpha       = 5
  Nbeta        = 5

  ==> Algorithm <==

  SCF Algorithm Type is DF.
  DIIS enabled.
  MOM disabled.
  Fractional occupation disabled.
  Guess Type is SAD.
  Energy threshold   = 1.00e-10
  Density threshold  = 1.00e-10
  Integral threshold = 0.00e+00

  ==> Primary Basis <==

  Basis Set: 6-31G
    Blend: 6-31G
    Number of shells: 9
    Number of basis function: 13
    Number of Cartesian functions: 13
    Spherical Harmonics?: false
    Max angular momentum: 1

   => Loading Basis Set <=

    Name: (6-31G AUX)
    Role: JKFIT
    Keyword: DF_BASIS_SCF
    atoms 1   entry O          line   221 file /home/akrom/software/anaconda3/envs/ffpenv/share/psi4/basis/cc-pvdz-jkfit.gbs 
    atoms 2-3 entry H          line    51 file /home/akrom/software/anaconda3/envs/ffpenv/share/psi4/basis/cc-pvdz-jkfit.gbs 

  ==> Pre-Iterations <==

   -------------------------------------------------------
    Irrep   Nso     Nmo     Nalpha   Nbeta   Ndocc  Nsocc
   -------------------------------------------------------
     A1         7       7       0       0       0       0
     A2         0       0       0       0       0       0
     B1         4       4       0       0       0       0
     B2         2       2       0       0       0       0
   -------------------------------------------------------
    Total      13      13       5       5       5       0
   -------------------------------------------------------

  ==> Integral Setup <==

  DFHelper Memory: AOs need 0.000 GiB; user supplied 0.366 GiB. Using in-core AOs.

  ==> MemDFJK: Density-Fitted J/K Matrices <==

    J tasked:                   Yes
    K tasked:                   Yes
    wK tasked:                   No
    OpenMP threads:               1
    Memory [MiB]:               375
    Algorithm:                 Core
    Schwarz Cutoff:           1E-12
    Mask sparsity (%):       0.0000
    Fitting Condition:        1E-10

   => Auxiliary Basis Set <=

  Basis Set: (6-31G AUX)
    Blend: CC-PVDZ-JKFIT
    Number of shells: 42
    Number of basis function: 131
    Number of Cartesian functions: 131
    Spherical Harmonics?: false
    Max angular momentum: 3

  Minimum eigenvalue in the overlap matrix is 6.7837812453E-02.
  Using Symmetric Orthogonalization.

  SCF Guess: Superposition of Atomic Densities via on-the-fly atomic UHF.

  ==> Iterations <==

                           Total Energy        Delta E     RMS |[F,P]|

   @DF-RHF iter SAD:   -75.51957246815800   -7.55196e+01   0.00000e+00 
   @DF-RHF iter   1:   -75.90761535989859   -3.88043e-01   4.88917e-02 DIIS
   @DF-RHF iter   2:   -75.96280617129496   -5.51908e-02   2.86343e-02 DIIS
   @DF-RHF iter   3:   -75.98228202505138   -1.94759e-02   2.33602e-03 DIIS
   @DF-RHF iter   4:   -75.98260989209719   -3.27867e-04   4.26013e-04 DIIS
   @DF-RHF iter   5:   -75.98262101510710   -1.11230e-05   5.88993e-05 DIIS
   @DF-RHF iter   6:   -75.98262130372908   -2.88622e-07   9.51850e-06 DIIS
   @DF-RHF iter   7:   -75.98262131162470   -7.89562e-09   1.95538e-06 DIIS
   @DF-RHF iter   8:   -75.98262131200664   -3.81945e-10   4.14048e-07 DIIS
   @DF-RHF iter   9:   -75.98262131202053   -1.38840e-11   4.07526e-08 DIIS
   @DF-RHF iter  10:   -75.98262131202070   -1.70530e-13   3.53030e-09 DIIS
   @DF-RHF iter  11:   -75.98262131202068    1.42109e-14   1.49939e-10 DIIS
   @DF-RHF iter  12:   -75.98262131202070   -1.42109e-14   2.52788e-11 DIIS
  Energy and wave function converged.


  ==> Post-Iterations <==

    Orbital Energies [Eh]
    ---------------------

    Doubly Occupied:                                                      

       1A1   -20.563519     2A1    -1.356478     1B1    -0.702217  
       3A1    -0.565094     1B2    -0.502414  

    Virtual:                                                              

       4A1     0.201712     2B1     0.297817     3B1     1.040872  
       2B2     1.163457     5A1     1.187949     6A1     1.223681  
       4B1     1.375258     7A1     1.705240  

    Final Occupation by Irrep:
             A1    A2    B1    B2 
    DOCC [     3,    0,    1,    1 ]

  @DF-RHF Final Energy:   -75.98262131202070

   => Energetics <=

    Nuclear Repulsion Energy =              9.1475083496816936
    One-Electron Energy =                -122.8808139983158583
    Two-Electron Energy =                  37.7506843366134675
    Total Energy =                        -75.9826213120207115

Computation Completed


Properties will be evaluated at   0.000000,   0.000000,   0.000000 [a0]

Properties computed using the SCF density matrix

  Nuclear Dipole Moment: [e a0]
     X:     0.0000      Y:     0.0000      Z:     1.0109

  Electronic Dipole Moment: [e a0]
     X:     0.0000      Y:     0.0000      Z:     0.0426

  Dipole Moment: [e a0]
     X:     0.0000      Y:     0.0000      Z:     1.0536     Total:     1.0536

  Dipole Moment: [D]
     X:     0.0000      Y:     0.0000      Z:     2.6779     Total:     2.6779


*** tstop() called on atlantis at Tue Apr 19 00:12:10 2022
Module time:
	user time   =       0.23 seconds =       0.00 minutes
	system time =       0.01 seconds =       0.00 minutes
	total time  =          0 seconds =       0.00 minutes
Total time:
	user time   =       2.49 seconds =       0.04 minutes
	system time =       0.05 seconds =       0.00 minutes
	total time  =          3 seconds =       0.05 minutes

*** tstart() called on atlantis
*** at Tue Apr 19 00:12:10 2022


  //>>>>>>>>>>>>>>>>>>>>>>>>>>>>>>>>>>>//
  //               DFMP2               //
  //<<<<<<<<<<<<<<<<<<<<<<<<<<<<<<<<<<<//

   => Loading Basis Set <=

    Name: (6-31G AUX)
    Role: RIFIT
    Keyword: DF_BASIS_MP2
    atoms 1   entry O          line   235 file /home/akrom/software/anaconda3/envs/ffpenv/share/psi4/basis/cc-pvdz-ri.gbs 
    atoms 2-3 entry H          line    19 file /home/akrom/software/anaconda3/envs/ffpenv/share/psi4/basis/cc-pvdz-ri.gbs 

	 --------------------------------------------------------
	                          DF-MP2                         
	      2nd-Order Density-Fitted Moller-Plesset Theory     
	              RMP2 Wavefunction,   1 Threads             
	                                                         
	        Rob Parrish, Justin Turney, Andy Simmonett,      
	           Ed Hohenstein, and C. David Sherrill          
	 --------------------------------------------------------

   => Auxiliary Basis Set <=

  Basis Set: (6-31G AUX)
    Blend: CC-PVDZ-RI
    Number of shells: 30
    Number of basis function: 84
    Number of Cartesian functions: 96
    Spherical Harmonics?: true
    Max angular momentum: 3

	 --------------------------------------------------------
	                 NBF =    13, NAUX =    84
	 --------------------------------------------------------
	   CLASS    FOCC     OCC    AOCC    AVIR     VIR    FVIR
	   PAIRS       0       5       5       8       8       0
	 --------------------------------------------------------

  DFHelper Memory: AOs need 0.000 GiB; user supplied 0.366 GiB. Using in-core AOs.


         ------------------------------------------------------------
                                     CPHF                           
                                  Rob Parrish                       
         ------------------------------------------------------------

  ==> Geometry <==

    Molecular point group: c2v
    Full point group: C2v

    Geometry (in Angstrom), charge = 0, multiplicity = 1:

       Center              X                  Y                   Z               Mass       
    ------------   -----------------  -----------------  -----------------  -----------------
         O            0.000000000000     0.000000000000    -0.067969259994    15.994914619570
         H            0.747166353368     0.000000000000     0.539360740006     1.007825032230
         H           -0.747166353368    -0.000000000000     0.539360740006     1.007825032230

  Nuclear repulsion =    9.147508349681694
  Reference energy  =  -75.982621312020697

  ==> Basis Set <==

  Basis Set: 6-31G
    Blend: 6-31G
    Number of shells: 9
    Number of basis function: 13
    Number of Cartesian functions: 13
    Spherical Harmonics?: false
    Max angular momentum: 1

  ==> CGRSolver (by Rob Parrish) <==

   Number of roots    =         1
   Preconditioning    =    JACOBI
   Convergence cutoff =     1E-06
   Maximum iterations =       100

  ==> CPHFRHamiltonian (by Rob Parrish) <== 

  ==> MemDFJK: Density-Fitted J/K Matrices <==

    J tasked:                   Yes
    K tasked:                   Yes
    wK tasked:                   No
    OpenMP threads:               1
    Memory [MiB]:               375
    Algorithm:                 Core
    Schwarz Cutoff:           1E-12
    Mask sparsity (%):       0.0000
    Fitting Condition:        1E-10

   => Auxiliary Basis Set <=

  Basis Set: (6-31G AUX)
    Blend: CC-PVDZ-JKFIT
    Number of shells: 42
    Number of basis function: 131
    Number of Cartesian functions: 131
    Spherical Harmonics?: false
    Max angular momentum: 3

  ==> CPHF Iterations <==

  => Iterations <=

             Iter  Converged  Remaining    Residual
  CGR           1          0          1   9.637E-02
  CGR           2          0          1   1.462E-02
  CGR           3          0          1   1.665E-03
  CGR           4          0          1   3.365E-04
  CGR           5          0          1   5.521E-05
  CGR           6          0          1   8.729E-06
  CGR           7          1          0   3.387E-07

    CGRSolver converged.

  ==> DFCorrGrad: Density-Fitted Correlated Gradients <==

    OpenMP threads:              1
    Integrals threads:           1
    Memory [GiB]:            0.366
    Schwarz Cutoff:          0E+00
    Fitting Condition:       1E-10

   => Auxiliary Basis Set <=

  Basis Set: (6-31G AUX)
    Blend: CC-PVDZ-JKFIT
    Number of shells: 42
    Number of basis function: 131
    Number of Cartesian functions: 131
    Spherical Harmonics?: false
    Max angular momentum: 3

	-----------------------------------------------------------
[...]
         H            0.750425510279     0.000000000000     0.540492250436     1.007825032230
         H           -0.747634489721     0.000000000000     0.538229229576     1.007825032230

  Running in cs symmetry.

  Rotational constants: A =     25.53242  B =     14.90636  C =      9.41165 [cm^-1]
  Rotational constants: A = 765442.57583  B = 446881.53998  C = 282154.04824 [MHz]
  Nuclear repulsion =    9.133468287774228

  Charge       = 0
  Multiplicity = 1
  Electrons    = 10
  Nalpha       = 5
  Nbeta        = 5

  ==> Algorithm <==

  SCF Algorithm Type is DF.
  DIIS enabled.
  MOM disabled.
  Fractional occupation disabled.
  Guess Type is SAD.
  Energy threshold   = 1.00e-10
  Density threshold  = 1.00e-10
  Integral threshold = 0.00e+00

  ==> Primary Basis <==

  Basis Set: 6-31G
    Blend: 6-31G
    Number of shells: 9
    Number of basis function: 13
    Number of Cartesian functions: 13
    Spherical Harmonics?: false
    Max angular momentum: 1

   => Loading Basis Set <=

    Name: (6-31G AUX)
    Role: JKFIT
    Keyword: DF_BASIS_SCF
    atoms 1   entry O          line   221 file /home/akrom/software/anaconda3/envs/ffpenv/share/psi4/basis/cc-pvdz-jkfit.gbs 
    atoms 2-3 entry H          line    51 file /home/akrom/software/anaconda3/envs/ffpenv/share/psi4/basis/cc-pvdz-jkfit.gbs 

  ==> Pre-Iterations <==

   -------------------------------------------------------
    Irrep   Nso     Nmo     Nalpha   Nbeta   Ndocc  Nsocc
   -------------------------------------------------------
     A'        11      11       0       0       0       0
     A"         2       2       0       0       0       0
   -------------------------------------------------------
    Total      13      13       5       5       5       0
   -------------------------------------------------------

  ==> Integral Setup <==

  DFHelper Memory: AOs need 0.000 GiB; user supplied 0.366 GiB. Using in-core AOs.

  ==> MemDFJK: Density-Fitted J/K Matrices <==

    J tasked:                   Yes
    K tasked:                   Yes
    wK tasked:                   No
    OpenMP threads:               1
    Memory [MiB]:               375
    Algorithm:                 Core
    Schwarz Cutoff:           1E-12
    Mask sparsity (%):       0.0000
    Fitting Condition:        1E-10

   => Auxiliary Basis Set <=

  Basis Set: (6-31G AUX)
    Blend: CC-PVDZ-JKFIT
    Number of shells: 42
    Number of basis function: 131
    Number of Cartesian functions: 131
    Spherical Harmonics?: false
    Max angular momentum: 3

  Minimum eigenvalue in the overlap matrix is 6.8076961348E-02.
  Using Symmetric Orthogonalization.

  SCF Guess: Superposition of Atomic Densities via on-the-fly atomic UHF.

  ==> Iterations <==

                           Total Energy        Delta E     RMS |[F,P]|

   @DF-RHF iter SAD:   -75.51718945866692   -7.55172e+01   0.00000e+00 
   @DF-RHF iter   1:   -75.90763395408911   -3.90444e-01   3.63088e-02 DIIS
   @DF-RHF iter   2:   -75.96277061136340   -5.51367e-02   2.13029e-02 DIIS
   @DF-RHF iter   3:   -75.98230326646889   -1.95327e-02   1.73848e-03 DIIS
   @DF-RHF iter   4:   -75.98263336463809   -3.30098e-04   3.18261e-04 DIIS
   @DF-RHF iter   5:   -75.98264462928036   -1.12646e-05   4.39299e-05 DIIS
   @DF-RHF iter   6:   -75.98264492116320   -2.91883e-07   7.16848e-06 DIIS
   @DF-RHF iter   7:   -75.98264492934337   -8.18017e-09   1.47939e-06 DIIS
   @DF-RHF iter   8:   -75.98264492974133   -3.97961e-10   3.10910e-07 DIIS
   @DF-RHF iter   9:   -75.98264492975547   -1.41398e-11   3.04989e-08 DIIS
   @DF-RHF iter  10:   -75.98264492975554   -7.10543e-14   2.64883e-09 DIIS
   @DF-RHF iter  11:   -75.98264492975566   -1.27898e-13   1.22172e-10 DIIS
   @DF-RHF iter  12:   -75.98264492975561    5.68434e-14   2.71559e-11 DIIS
  Energy and wave function converged.


  ==> Post-Iterations <==

    Orbital Energies [Eh]
    ---------------------

    Doubly Occupied:                                                      

       1Ap   -20.563711     2Ap    -1.355551     3Ap    -0.701680  
       4Ap    -0.564604     1App   -0.502273  

    Virtual:                                                              

       5Ap     0.201421     6Ap     0.297431     7Ap     1.041069  
       2App    1.163507     8Ap     1.185896     9Ap     1.223055  
      10Ap     1.374920    11Ap     1.704712  

    Final Occupation by Irrep:
             Ap   App 
    DOCC [     4,    1 ]

  @DF-RHF Final Energy:   -75.98264492975561

   => Energetics <=

    Nuclear Repulsion Energy =              9.1334682877742281
    One-Electron Energy =                -122.8565883762889399
    Two-Electron Energy =                  37.7404751587591107
    Total Energy =                        -75.9826449297556081

Computation Completed


Properties will be evaluated at   0.000000,   0.000000,   0.000000 [a0]

Properties computed using the SCF density matrix

  Nuclear Dipole Moment: [e a0]
     X:     0.0026      Y:     0.0000      Z:     1.0109

  Electronic Dipole Moment: [e a0]
     X:    -0.0020      Y:     0.0000      Z:     0.0419

  Dipole Moment: [e a0]
     X:     0.0006      Y:     0.0000      Z:     1.0529     Total:     1.0529

  Dipole Moment: [D]
     X:     0.0017      Y:     0.0000      Z:     2.6761     Total:     2.6761


*** tstop() called on atlantis at Tue Apr 19 00:12:11 2022
Module time:
	user time   =       0.22 seconds =       0.00 minutes
	system time =       0.00 seconds =       0.00 minutes
	total time  =          1 seconds =       0.02 minutes
Total time:
	user time   =       3.32 seconds =       0.06 minutes
	system time =       0.06 seconds =       0.00 minutes
	total time  =          4 seconds =       0.07 minutes

*** tstart() called on atlantis
*** at Tue Apr 19 00:12:11 2022


  //>>>>>>>>>>>>>>>>>>>>>>>>>>>>>>>>>>>//
  //               DFMP2               //
  //<<<<<<<<<<<<<<<<<<<<<<<<<<<<<<<<<<<//

   => Loading Basis Set <=

    Name: (6-31G AUX)
    Role: RIFIT
    Keyword: DF_BASIS_MP2
    atoms 1   entry O          line   235 file /home/akrom/software/anaconda3/envs/ffpenv/share/psi4/basis/cc-pvdz-ri.gbs 
    atoms 2-3 entry H          line    19 file /home/akrom/software/anaconda3/envs/ffpenv/share/psi4/basis/cc-pvdz-ri.gbs 

	 --------------------------------------------------------
	                          DF-MP2                         
	      2nd-Order Density-Fitted Moller-Plesset Theory     
	              RMP2 Wavefunction,   1 Threads             
	                                                         
	        Rob Parrish, Justin Turney, Andy Simmonett,      
	           Ed Hohenstein, and C. David Sherrill          
	 --------------------------------------------------------

   => Auxiliary Basis Set <=

  Basis Set: (6-31G AUX)
    Blend: CC-PVDZ-RI
    Number of shells: 30
    Number of basis function: 84
    Number of Cartesian functions: 96
    Spherical Harmonics?: true
    Max angular momentum: 3

	 --------------------------------------------------------
	                 NBF =    13, NAUX =    84
	 --------------------------------------------------------
	   CLASS    FOCC     OCC    AOCC    AVIR     VIR    FVIR
	   PAIRS       0       5       5       8       8       0
	 --------------------------------------------------------

  DFHelper Memory: AOs need 0.000 GiB; user supplied 0.366 GiB. Using in-core AOs.


         ------------------------------------------------------------
                                     CPHF                           
                                  Rob Parrish                       
         ------------------------------------------------------------

  ==> Geometry <==

    Molecular point group: cs
    Full point group: Cs

    Geometry (in Angstrom), charge = 0, multiplicity = 1:

       Center              X                  Y                   Z               Mass       
    ------------   -----------------  -----------------  -----------------  -----------------
         O           -0.000175859669     0.000000000000    -0.067969259994    15.994914619570
         H            0.750425510279     0.000000000000     0.540492250436     1.007825032230
         H           -0.747634489721     0.000000000000     0.538229229576     1.007825032230

  Nuclear repulsion =    9.133468287774228
  Reference energy  =  -75.982644929755608

  ==> Basis Set <==

  Basis Set: 6-31G
    Blend: 6-31G
    Number of shells: 9
    Number of basis function: 13
    Number of Cartesian functions: 13
    Spherical Harmonics?: false
    Max angular momentum: 1

  ==> CGRSolver (by Rob Parrish) <==

   Number of roots    =         1
   Preconditioning    =    JACOBI
   Convergence cutoff =     1E-06
   Maximum iterations =       100

  ==> CPHFRHamiltonian (by Rob Parrish) <== 

  ==> MemDFJK: Density-Fitted J/K Matrices <==

    J tasked:                   Yes
    K tasked:                   Yes
    wK tasked:                   No
    OpenMP threads:               1
    Memory [MiB]:               375
    Algorithm:                 Core
    Schwarz Cutoff:           1E-12
    Mask sparsity (%):       0.0000
    Fitting Condition:        1E-10

   => Auxiliary Basis Set <=

  Basis Set: (6-31G AUX)
    Blend: CC-PVDZ-JKFIT
    Number of shells: 42
    Number of basis function: 131
    Number of Cartesian functions: 131
    Spherical Harmonics?: false
    Max angular momentum: 3

  ==> CPHF Iterations <==

  => Iterations <=

             Iter  Converged  Remaining    Residual
  CGR           1          0          1   9.642E-02
  CGR           2          0          1   1.470E-02
  CGR           3          0          1   1.680E-03
  CGR           4          0          1   3.384E-04
  CGR           5          0          1   5.540E-05
  CGR           6          0          1   8.795E-06
  CGR           7          1          0   3.457E-07

    CGRSolver converged.

  ==> DFCorrGrad: Density-Fitted Correlated Gradients <==

    OpenMP threads:              1
    Integrals threads:           1
    Memory [GiB]:            0.366
    Schwarz Cutoff:          0E+00
    Fitting Condition:       1E-10

   => Auxiliary Basis Set <=

  Basis Set: (6-31G AUX)
    Blend: CC-PVDZ-JKFIT
    Number of shells: 42
    Number of basis function: 131
    Number of Cartesian functions: 131
    Spherical Harmonics?: false
    Max angular momentum: 3

	-----------------------------------------------------------
	 ==================> DF-MP2 Energies <==================== 
	-----------------------------------------------------------
	 Reference Energy          =     -75.9826449297556081 [Eh]
	 Singles Energy            =      -0.0000000000000000 [Eh]
	 Same-Spin Energy          =      -0.0302905918234515 [Eh]
	 Opposite-Spin Energy      =      -0.0993293695428291 [Eh]
	 Correlation Energy        =      -0.1296199613662806 [Eh]
	 Total Energy              =     -76.1122648911218818 [Eh]
	-----------------------------------------------------------
	 ================> DF-SCS-MP2 Energies <================== 
	-----------------------------------------------------------
	 SCS Same-Spin Scale       =       0.3333333333333333 [-]
	 SCS Opposite-Spin Scale   =       1.2000000000000000 [-]
	 SCS Same-Spin Energy      =      -0.0100968639411505 [Eh]
	 SCS Opposite-Spin Energy  =      -0.1191952434513949 [Eh]
	 SCS Correlation Energy    =      -0.1292921073925454 [Eh]
	 SCS Total Energy          =     -76.1119370371481523 [Eh]
	-----------------------------------------------------------


  -Total Gradient:
     Atom            X                  Y                   Z
    ------   -----------------  -----------------  -----------------
       1       -0.003156254152     0.000000000000    -0.001643639802
       2       -0.019589876443     0.000000000000     0.002067699157
       3        0.022746130596     0.000000000000    -0.000424059355


*** tstop() called on atlantis at Tue Apr 19 00:12:11 2022
Module time:
	user time   =       0.19 seconds =       0.00 minutes
	system time =       0.00 seconds =       0.00 minutes
	total time  =          0 seconds =       0.00 minutes
Total time:
	user time   =       3.51 seconds =       0.06 minutes
	system time =       0.06 seconds =       0.00 minutes
	total time  =          4 seconds =       0.07 minutes

         ----------------------------------------------------------
                                   FINDIF
                     R. A. King and Jonathon Misiewicz
         ---------------------------------------------------------

  Computing second-derivative from gradients using projected, 
  symmetry-adapted, cartesian coordinates.

  6 gradients passed in, including the reference geometry.
  Generating complete list of displacements from unique ones.

    Operation 2 takes plus displacements of irrep B1 to minus ones.

-------------------------------------------------------------


  ==> Harmonic Vibrational Analysis <==

  non-mass-weighted Hessian:       Symmetric? True   Hermitian? True   Lin Dep Dim?  6 (0)
  projection of translations (True) and rotations (True) removed 6 degrees of freedom (6)
  total projector:                 Symmetric? True   Hermitian? True   Lin Dep Dim?  6 (6)
  mass-weighted Hessian:           Symmetric? True   Hermitian? True   Lin Dep Dim?  6 (0)
  pre-proj  low-frequency mode:    0.0000i [cm^-1]
  pre-proj  low-frequency mode:    0.0000i [cm^-1]
  pre-proj  low-frequency mode:    0.0000  [cm^-1]
  pre-proj  low-frequency mode:    0.0000  [cm^-1]
  pre-proj  low-frequency mode:    0.0000  [cm^-1]
  pre-proj  low-frequency mode:    0.0000  [cm^-1]
  pre-proj  all modes:['0.0001i' '0.0000i' '0.0000' '0.0000' '0.0000' '0.0000' '1681.8447'
 '3827.5027' '3941.8329']
  projected mass-weighted Hessian: Symmetric? True   Hermitian? True   Lin Dep Dim?  6 (6)
  post-proj low-frequency mode:    0.0000i [cm^-1] (TR)
  post-proj low-frequency mode:    0.0000i [cm^-1] (TR)
  post-proj low-frequency mode:    0.0000i [cm^-1] (TR)
  post-proj low-frequency mode:    0.0000  [cm^-1] (TR)
  post-proj low-frequency mode:    0.0000  [cm^-1] (TR)
  post-proj low-frequency mode:    0.0001  [cm^-1] (TR)
  post-proj  all modes:['0.0000i' '0.0000i' '0.0000i' '0.0000' '0.0000' '0.0001' '1681.8447'
 '3827.5027' '3941.8329']

  Vibration                       7                   8                   9           
  Freq [cm^-1]                1681.8447           3827.5027           3941.8329       
  Irrep                           A1                  A1                  B1          
  Reduced mass [u]              1.0878              1.0404              1.0793        
  Force const [mDyne/A]         1.8129              8.9802              9.8806        
  Turning point v=0 [a0]        0.2565              0.1739              0.1682        
  RMS dev v=0 [a0 u^1/2]        0.1892              0.1254              0.1236        
  Char temp [K]               2419.8000           5506.9242           5671.4199       
  ----------------------------------------------------------------------------------
      1   O                0.00 -0.00 -0.07    0.00  0.00 -0.05   -0.07  0.00 -0.00   
      2   H               -0.40  0.00  0.58    0.60  0.00  0.37    0.55  0.00  0.44   
      3   H                0.40 -0.00  0.58   -0.60 -0.00  0.37    0.55 -0.00 -0.44   

  ==> Thermochemistry Components <==

  Entropy, S
    Electronic S            0.000 [cal/(mol K)]        0.000 [J/(mol K)]       0.00000000 [mEh/K] (multiplicity = 1)
    Translational S        34.608 [cal/(mol K)]      144.801 [J/(mol K)]       0.05515177 [mEh/K] (mol. weight = 18.0106 [u], P = 101325.00 [Pa])
    Rotational S           10.508 [cal/(mol K)]       43.968 [J/(mol K)]       0.01674635 [mEh/K] (symmetry no. = 2)
    Vibrational S           0.005 [cal/(mol K)]        0.023 [J/(mol K)]       0.00000863 [mEh/K]
  Total S                  45.122 [cal/(mol K)]      188.791 [J/(mol K)]       0.07190675 [mEh/K]
  Correction S              0.000 [cal/(mol K)]        0.000 [J/(mol K)]       0.00000000 [mEh/K]

  Constant volume heat capacity, Cv
    Electronic Cv           0.000 [cal/(mol K)]        0.000 [J/(mol K)]       0.00000000 [mEh/K]
    Translational Cv        2.981 [cal/(mol K)]       12.472 [J/(mol K)]       0.00475022 [mEh/K]
    Rotational Cv           2.981 [cal/(mol K)]       12.472 [J/(mol K)]       0.00475022 [mEh/K]
    Vibrational Cv          0.039 [cal/(mol K)]        0.164 [J/(mol K)]       0.00006236 [mEh/K]
  Total Cv                  6.001 [cal/(mol K)]       25.107 [J/(mol K)]       0.00956280 [mEh/K]
  Correction Cv             0.000 [cal/(mol K)]        0.000 [J/(mol K)]       0.00000000 [mEh/K]

  Constant pressure heat capacity, Cp
    Electronic Cp           0.000 [cal/(mol K)]        0.000 [J/(mol K)]       0.00000000 [mEh/K]
    Translational Cp        4.968 [cal/(mol K)]       20.786 [J/(mol K)]       0.00791703 [mEh/K]
    Rotational Cp           2.981 [cal/(mol K)]       12.472 [J/(mol K)]       0.00475022 [mEh/K]
    Vibrational Cp          0.039 [cal/(mol K)]        0.164 [J/(mol K)]       0.00006236 [mEh/K]
  Total Cp                  7.988 [cal/(mol K)]       33.422 [J/(mol K)]       0.01272961 [mEh/K]
  Correction Cp             0.000 [cal/(mol K)]        0.000 [J/(mol K)]       0.00000000 [mEh/K]

  ==> Thermochemistry Energy Analysis <==

  Raw electronic energy, E0
  Total E0, Electronic energy at well bottom at 0 [K]                  -76.11227224 [Eh]

  Zero-point energy, ZPE_vib = Sum_i nu_i / 2
    Electronic ZPE          0.000 [kcal/mol]        0.000 [kJ/mol]       0.00000000 [Eh]
    Translational ZPE       0.000 [kcal/mol]        0.000 [kJ/mol]       0.00000000 [Eh]
    Rotational ZPE          0.000 [kcal/mol]        0.000 [kJ/mol]       0.00000000 [Eh]
    Vibrational ZPE        13.511 [kcal/mol]       56.531 [kJ/mol]       0.02153137 [Eh]        4725.590 [cm^-1]
  Correction ZPE           13.511 [kcal/mol]       56.531 [kJ/mol]       0.02153137 [Eh]        4725.590 [cm^-1]
  Total ZPE, Electronic energy at 0 [K]                                -76.09074087 [Eh]

  Thermal Energy, E (includes ZPE)
    Electronic E            0.000 [kcal/mol]        0.000 [kJ/mol]       0.00000000 [Eh]
    Translational E         0.889 [kcal/mol]        3.718 [kJ/mol]       0.00141628 [Eh]
    Rotational E            0.889 [kcal/mol]        3.718 [kJ/mol]       0.00141628 [Eh]
    Vibrational E          13.513 [kcal/mol]       56.537 [kJ/mol]       0.02153366 [Eh]
  Correction E             15.290 [kcal/mol]       63.973 [kJ/mol]       0.02436622 [Eh]
  Total E, Electronic energy at  298.15 [K]                            -76.08790602 [Eh]

  Enthalpy, H_trans = E_trans + k_B * T
    Electronic H            0.000 [kcal/mol]        0.000 [kJ/mol]       0.00000000 [Eh]
    Translational H         1.481 [kcal/mol]        6.197 [kJ/mol]       0.00236046 [Eh]
    Rotational H            0.889 [kcal/mol]        3.718 [kJ/mol]       0.00141628 [Eh]
    Vibrational H          13.513 [kcal/mol]       56.537 [kJ/mol]       0.02153366 [Eh]
  Correction H             15.883 [kcal/mol]       66.452 [kJ/mol]       0.02531040 [Eh]
  Total H, Enthalpy at  298.15 [K]                                     -76.08696184 [Eh]

  Gibbs free energy, G = H - T * S
    Electronic G            0.000 [kcal/mol]        0.000 [kJ/mol]       0.00000000 [Eh]
    Translational G        -8.837 [kcal/mol]      -36.975 [kJ/mol]      -0.01408304 [Eh]
    Rotational G           -2.244 [kcal/mol]       -9.390 [kJ/mol]      -0.00357665 [Eh]
    Vibrational G          13.511 [kcal/mol]       56.530 [kJ/mol]       0.02153109 [Eh]
  Correction G              2.429 [kcal/mol]       10.164 [kJ/mol]       0.00387140 [Eh]
  Total G, Free enthalpy at  298.15 [K]                                -76.10840084 [Eh]

    Psi4 stopped on: Tuesday, 19 April 2022 12:12AM
    Psi4 wall time for execution: 0:00:03.71

*** Psi4 exiting successfully. Buy a developer a beer!
