
    -----------------------------------------------------------------------
          Psi4: An Open-Source Ab Initio Electronic Structure Package
                               Psi4 1.3.2 release

                         Git: Rev {HEAD} ecbda83 


    R. M. Parrish, L. A. Burns, D. G. A. Smith, A. C. Simmonett,
    A. E. DePrince III, E. G. Hohenstein, U. Bozkaya, A. Yu. Sokolov,
    R. Di Remigio, R. M. Richard, J. F. Gonthier, A. M. James,
    H. R. McAlexander, A. Kumar, M. Saitow, X. Wang, B. P. Pritchard,
    P. Verma, H. F. Schaefer III, K. Patkowski, R. A. King, E. F. Valeev,
    F. A. Evangelista, J. M. Turney, T. D. Crawford, and C. D. Sherrill,
    J. Chem. Theory Comput. 13(7) pp 3185--3197 (2017).
    (doi: 10.1021/acs.jctc.7b00174)


                         Additional Contributions by
    P. Kraus, H. Kruse, M. H. Lechner, M. C. Schieber, R. A. Shaw,
    A. Alenaizan, R. Galvelis, Z. L. Glick, S. Lehtola, and J. P. Misiewicz

    -----------------------------------------------------------------------


    Psi4 started on: Tuesday, 19 April 2022 12:18AM

    Process ID: 25357
    Host:       atlantis
    PSIDATADIR: /home/akrom/software/anaconda3/envs/ffpenv/share/psi4
    Memory:     500.0 MiB
    Threads:    1
    
  ==> Input File <==

--------------------------------------------------------------------------
set basis  cc-pVTZ
molecule {
0 1
   O        0.00000        0.00000       -0.06797
   H        0.74903        0.00000        0.53936
   H       -0.74903        0.00000        0.53936
}
energy('m06-2x')
frequencies('m06-2x')


--------------------------------------------------------------------------

*** tstart() called on atlantis
*** at Tue Apr 19 00:18:27 2022

   => Loading Basis Set <=

    Name: CC-PVTZ
    Role: ORBITAL
    Keyword: BASIS
    atoms 1   entry O          line   262 file /home/akrom/software/anaconda3/envs/ffpenv/share/psi4/basis/cc-pvtz.gbs 
    atoms 2-3 entry H          line    23 file /home/akrom/software/anaconda3/envs/ffpenv/share/psi4/basis/cc-pvtz.gbs 


         ---------------------------------------------------------
                                   SCF
               by Justin Turney, Rob Parrish, Andy Simmonett
                          and Daniel G. A. Smith
                              RKS Reference
                        1 Threads,    500 MiB Core
         ---------------------------------------------------------

  ==> Geometry <==

    Molecular point group: c2v
    Full point group: C2v

    Geometry (in Angstrom), charge = 0, multiplicity = 1:

       Center              X                  Y                   Z               Mass       
    ------------   -----------------  -----------------  -----------------  -----------------
         O            0.000000000000     0.000000000000    -0.067969259994    15.994914619570
         H            0.749030000000     0.000000000000     0.539360740006     1.007825032230
         H           -0.749030000000    -0.000000000000     0.539360740006     1.007825032230

  Running in c2v symmetry.

  Rotational constants: A =     25.53156  B =     14.90675  C =      9.41168 [cm^-1]
  Rotational constants: A = 765416.81232  B = 446893.08836  C = 282155.15104 [MHz]
  Nuclear repulsion =    9.133433460995141

  Charge       = 0
  Multiplicity = 1
  Electrons    = 10
  Nalpha       = 5
  Nbeta        = 5

  ==> Algorithm <==

  SCF Algorithm Type is DF.
  DIIS enabled.
  MOM disabled.
  Fractional occupation disabled.
  Guess Type is SAD.
  Energy threshold   = 1.00e-06
  Density threshold  = 1.00e-06
  Integral threshold = 0.00e+00

  ==> Primary Basis <==

  Basis Set: CC-PVTZ
    Blend: CC-PVTZ
    Number of shells: 22
    Number of basis function: 58
    Number of Cartesian functions: 65
    Spherical Harmonics?: true
    Max angular momentum: 3

  ==> DFT Potential <==

   => Composite Functional: M06-2X <= 

    Hybrid M06-2X Meta-GGA XC Functional

    Y. Zhao and D. G. Truhlar,  Theor. Chem. Acc., 120, 215, 2008


    Deriv               =              1
    GGA                 =           TRUE
    Meta                =           TRUE

    Exchange Hybrid     =           TRUE
    MP2 Hybrid          =          FALSE

   => Exchange Functionals <=

    1.0000   XC_HYB_MGGA_X_M06_2X

   => Exact (HF) Exchange <=

    0.5400               HF 

   => Correlation Functionals <=

    1.0000   XC_MGGA_C_M06_2X

   => Molecular Quadrature <=

    Radial Scheme          =       TREUTLER
    Pruning Scheme         =           FLAT
    Nuclear Scheme         =       TREUTLER

    BS radius alpha        =              1
    Pruning alpha          =              1
    Radial Points          =             75
    Spherical Points       =            302
    Total Points           =          66791
    Total Blocks           =            563
    Max Points             =            256
    Max Functions          =             58

   => Loading Basis Set <=

    Name: (CC-PVTZ AUX)
    Role: JKFIT
    Keyword: DF_BASIS_SCF
    atoms 1   entry O          line   229 file /home/akrom/software/anaconda3/envs/ffpenv/share/psi4/basis/cc-pvtz-jkfit.gbs 
    atoms 2-3 entry H          line    51 file /home/akrom/software/anaconda3/envs/ffpenv/share/psi4/basis/cc-pvtz-jkfit.gbs 

  ==> Pre-Iterations <==

   -------------------------------------------------------
    Irrep   Nso     Nmo     Nalpha   Nbeta   Ndocc  Nsocc
   -------------------------------------------------------
     A1        23      23       0       0       0       0
     A2         7       7       0       0       0       0
     B1        17      17       0       0       0       0
     B2        11      11       0       0       0       0
   -------------------------------------------------------
    Total      58      58       5       5       5       0
   -------------------------------------------------------

  ==> Integral Setup <==

  DFHelper Memory: AOs need 0.004 GiB; user supplied 0.103 GiB. Using in-core AOs.

  ==> MemDFJK: Density-Fitted J/K Matrices <==

    J tasked:                   Yes
    K tasked:                   Yes
    wK tasked:                   No
    OpenMP threads:               1
    Memory [MiB]:               105
    Algorithm:                 Core
    Schwarz Cutoff:           1E-12
    Mask sparsity (%):       0.0000
    Fitting Condition:        1E-10

   => Auxiliary Basis Set <=

  Basis Set: (CC-PVTZ AUX)
    Blend: CC-PVTZ-JKFIT
    Number of shells: 45
    Number of basis function: 139
    Number of Cartesian functions: 166
    Spherical Harmonics?: true
    Max angular momentum: 4

  Cached 100.0% of DFT collocation blocks in 0.263 [GiB].

  Minimum eigenvalue in the overlap matrix is 2.5816020467E-03.
  Using Symmetric Orthogonalization.

  SCF Guess: Superposition of Atomic Densities via on-the-fly atomic UHF.

  ==> Iterations <==

                           Total Energy        Delta E     RMS |[F,P]|

   @DF-RKS iter SAD:   -76.00147616929976   -7.60015e+01   0.00000e+00 
   @DF-RKS iter   1:   -76.30770669671030   -3.06231e-01   1.84264e-02 DIIS
   @DF-RKS iter   2:   -76.27618338330056    3.15233e-02   2.15189e-02 DIIS
   @DF-RKS iter   3:   -76.42495834050537   -1.48775e-01   4.58176e-04 DIIS
   @DF-RKS iter   4:   -76.42504387816099   -8.55377e-05   1.14003e-04 DIIS
   @DF-RKS iter   5:   -76.42504879455470   -4.91639e-06   2.15892e-05 DIIS
   @DF-RKS iter   6:   -76.42504899733554   -2.02781e-07   3.38482e-06 DIIS
   @DF-RKS iter   7:   -76.42504900779844   -1.04629e-08   2.74260e-07 DIIS
  Energy and wave function converged.


  ==> Post-Iterations <==

    Orbital Energies [Eh]
    ---------------------

    Doubly Occupied:                                                      

       1A1   -19.614900     2A1    -1.127201     1B1    -0.594251  
       3A1    -0.471116     1B2    -0.393785  

    Virtual:                                                              

       4A1     0.061852     2B1     0.127474     3B1     0.412066  
       5A1     0.470587     6A1     0.547152     2B2     0.643506  
       7A1     0.658289     4B1     0.668699     1A2     0.729461  
       3B2     0.810403     8A1     0.978316     5B1     1.057811  
       6B1     1.335122     9A1     1.368589     4B2     1.824647  
       2A2     1.834147     7B1     1.862559    10A1     1.940739  
      11A1     2.008209    12A1     2.281551     8B1     2.656212  
       5B2     3.046536    13A1     3.187304     3A2     3.295723  
       9B1     3.368005     6B2     3.434920    10B1     3.547171  
      14A1     3.586203     4A2     3.649355     7B2     3.694086  
      11B1     3.740493    15A1     3.839906     5A2     3.991970  
      16A1     4.023259    12B1     4.270575     8B2     4.320790  
      13B1     4.511764    17A1     4.753627    18A1     4.842357  
      14B1     5.103309     9B2     5.618493    19A1     6.119773  
      10B2     6.392815     6A2     6.410039    20A1     6.487052  
      15B1     6.514613    11B2     6.535021    21A1     6.688733  
       7A2     6.756732    22A1     6.933819    16B1     7.281943  
      17B1     7.670411    23A1    12.105681  

    Final Occupation by Irrep:
             A1    A2    B1    B2 
    DOCC [     3,    0,    1,    1 ]

  @DF-RKS Final Energy:   -76.42504900779844

   => Energetics <=

    Nuclear Repulsion Energy =              9.1334334609951409
    One-Electron Energy =                -123.0047839455507699
    Two-Electron Energy =                  41.9294838224816857
    DFT Exchange-Correlation Energy =      -4.4831823457244804
    Empirical Dispersion Energy =           0.0000000000000000
    VV10 Nonlocal Energy =                  0.0000000000000000
    Total Energy =                        -76.4250490077984352

Computation Completed


Properties will be evaluated at   0.000000,   0.000000,   0.000000 [a0]

Properties computed using the SCF density matrix

  Nuclear Dipole Moment: [e a0]
     X:     0.0000      Y:     0.0000      Z:     1.0109

  Electronic Dipole Moment: [e a0]
     X:     0.0000      Y:     0.0000      Z:    -0.2222

  Dipole Moment: [e a0]
     X:     0.0000      Y:     0.0000      Z:     0.7887     Total:     0.7887

  Dipole Moment: [D]
     X:     0.0000      Y:     0.0000      Z:     2.0048     Total:     2.0048


*** tstop() called on atlantis at Tue Apr 19 00:18:29 2022
Module time:
	user time   =       2.19 seconds =       0.04 minutes
	system time =       0.07 seconds =       0.00 minutes
	total time  =          2 seconds =       0.03 minutes
Total time:
	user time   =       2.19 seconds =       0.04 minutes
	system time =       0.07 seconds =       0.00 minutes
	total time  =          2 seconds =       0.03 minutes
gradient() will perform analytic gradient computation.

*** tstart() called on atlantis
*** at Tue Apr 19 00:18:29 2022

   => Loading Basis Set <=

    Name: CC-PVTZ
    Role: ORBITAL
    Keyword: BASIS
    atoms 1   entry O          line   262 file /home/akrom/software/anaconda3/envs/ffpenv/share/psi4/basis/cc-pvtz.gbs 
    atoms 2-3 entry H          line    23 file /home/akrom/software/anaconda3/envs/ffpenv/share/psi4/basis/cc-pvtz.gbs 


         ---------------------------------------------------------
                                   SCF
               by Justin Turney, Rob Parrish, Andy Simmonett
                          and Daniel G. A. Smith
                              RKS Reference
                        1 Threads,    500 MiB Core
         ---------------------------------------------------------

  ==> Geometry <==

    Molecular point group: c2v
    Full point group: C2v

    Geometry (in Angstrom), charge = 0, multiplicity = 1:

       Center              X                  Y                   Z               Mass       
    ------------   -----------------  -----------------  -----------------  -----------------
         O            0.000000000000     0.000000000000    -0.067969259994    15.994914619570
         H            0.749030000000     0.000000000000     0.539360740006     1.007825032230
         H           -0.749030000000    -0.000000000000     0.539360740006     1.007825032230

  Running in c2v symmetry.

  Rotational constants: A =     25.53156  B =     14.90675  C =      9.41168 [cm^-1]
  Rotational constants: A = 765416.81232  B = 446893.08836  C = 282155.15104 [MHz]
  Nuclear repulsion =    9.133433460995141

  Charge       = 0
  Multiplicity = 1
  Electrons    = 10
  Nalpha       = 5
  Nbeta        = 5

  ==> Algorithm <==

  SCF Algorithm Type is DF.
  DIIS enabled.
  MOM disabled.
  Fractional occupation disabled.
  Guess Type is SAD.
  Energy threshold   = 1.00e-08
  Density threshold  = 1.00e-08
  Integral threshold = 0.00e+00

  ==> Primary Basis <==

  Basis Set: CC-PVTZ
    Blend: CC-PVTZ
    Number of shells: 22
    Number of basis function: 58
    Number of Cartesian functions: 65
    Spherical Harmonics?: true
    Max angular momentum: 3

  ==> DFT Potential <==

   => Composite Functional: M06-2X <= 

    Hybrid M06-2X Meta-GGA XC Functional

    Y. Zhao and D. G. Truhlar,  Theor. Chem. Acc., 120, 215, 2008


    Deriv               =              1
    GGA                 =           TRUE
    Meta                =           TRUE

    Exchange Hybrid     =           TRUE
    MP2 Hybrid          =          FALSE

   => Exchange Functionals <=

    1.0000   XC_HYB_MGGA_X_M06_2X

   => Exact (HF) Exchange <=

    0.5400               HF 

   => Correlation Functionals <=

    1.0000   XC_MGGA_C_M06_2X

   => Molecular Quadrature <=

    Radial Scheme          =       TREUTLER
    Pruning Scheme         =           FLAT
    Nuclear Scheme         =       TREUTLER

    BS radius alpha        =              1
    Pruning alpha          =              1
    Radial Points          =             75
    Spherical Points       =            302
    Total Points           =          66791
    Total Blocks           =            563
    Max Points             =            256
    Max Functions          =             58

   => Loading Basis Set <=

    Name: (CC-PVTZ AUX)
    Role: JKFIT
    Keyword: DF_BASIS_SCF
    atoms 1   entry O          line   229 file /home/akrom/software/anaconda3/envs/ffpenv/share/psi4/basis/cc-pvtz-jkfit.gbs 
    atoms 2-3 entry H          line    51 file /home/akrom/software/anaconda3/envs/ffpenv/share/psi4/basis/cc-pvtz-jkfit.gbs 

  ==> Pre-Iterations <==

   -------------------------------------------------------
    Irrep   Nso     Nmo     Nalpha   Nbeta   Ndocc  Nsocc
   -------------------------------------------------------
     A1        23      23       0       0       0       0
     A2         7       7       0       0       0       0
     B1        17      17       0       0       0       0
     B2        11      11       0       0       0       0
   -------------------------------------------------------
    Total      58      58       5       5       5       0
   -------------------------------------------------------

  ==> Integral Setup <==

  DFHelper Memory: AOs need 0.004 GiB; user supplied 0.103 GiB. Using in-core AOs.

  ==> MemDFJK: Density-Fitted J/K Matrices <==

    J tasked:                   Yes
    K tasked:                   Yes
    wK tasked:                   No
    OpenMP threads:               1
    Memory [MiB]:               105
    Algorithm:                 Core
    Schwarz Cutoff:           1E-12
    Mask sparsity (%):       0.0000
    Fitting Condition:        1E-10

   => Auxiliary Basis Set <=

  Basis Set: (CC-PVTZ AUX)
    Blend: CC-PVTZ-JKFIT
    Number of shells: 45
    Number of basis function: 139
    Number of Cartesian functions: 166
    Spherical Harmonics?: true
    Max angular momentum: 4

  Cached 100.0% of DFT collocation blocks in 0.263 [GiB].

  Minimum eigenvalue in the overlap matrix is 2.5816020467E-03.
  Using Symmetric Orthogonalization.

  SCF Guess: Superposition of Atomic Densities via on-the-fly atomic UHF.

  ==> Iterations <==

                           Total Energy        Delta E     RMS |[F,P]|

   @DF-RKS iter SAD:   -76.00147616929976   -7.60015e+01   0.00000e+00 
   @DF-RKS iter   1:   -76.30770669671030   -3.06231e-01   1.84264e-02 DIIS
   @DF-RKS iter   2:   -76.27618338330056    3.15233e-02   2.15189e-02 DIIS
   @DF-RKS iter   3:   -76.42495834050537   -1.48775e-01   4.58176e-04 DIIS
   @DF-RKS iter   4:   -76.42504387816099   -8.55377e-05   1.14003e-04 DIIS
   @DF-RKS iter   5:   -76.42504879455470   -4.91639e-06   2.15892e-05 DIIS
   @DF-RKS iter   6:   -76.42504899733554   -2.02781e-07   3.38482e-06 DIIS
   @DF-RKS iter   7:   -76.42504900779844   -1.04629e-08   2.74260e-07 DIIS
   @DF-RKS iter   8:   -76.42504900790574   -1.07306e-10   2.98015e-08 DIIS
   @DF-RKS iter   9:   -76.42504900790701   -1.26477e-12   3.83543e-09 DIIS
  Energy and wave function converged.


  ==> Post-Iterations <==

    Orbital Energies [Eh]
    ---------------------

    Doubly Occupied:                                                      

       1A1   -19.614900     2A1    -1.127201     1B1    -0.594251  
       3A1    -0.471115     1B2    -0.393785  

    Virtual:                                                              

       4A1     0.061852     2B1     0.127474     3B1     0.412066  
       5A1     0.470587     6A1     0.547152     2B2     0.643506  
       7A1     0.658289     4B1     0.668699     1A2     0.729461  
       3B2     0.810403     8A1     0.978316     5B1     1.057811  
       6B1     1.335122     9A1     1.368589     4B2     1.824647  
       2A2     1.834147     7B1     1.862559    10A1     1.940739  
      11A1     2.008209    12A1     2.281551     8B1     2.656212  
       5B2     3.046536    13A1     3.187304     3A2     3.295722  
       9B1     3.368005     6B2     3.434920    10B1     3.547171  
      14A1     3.586203     4A2     3.649355     7B2     3.694086  
      11B1     3.740493    15A1     3.839906     5A2     3.991970  
      16A1     4.023260    12B1     4.270575     8B2     4.320790  
      13B1     4.511764    17A1     4.753627    18A1     4.842356  
      14B1     5.103309     9B2     5.618493    19A1     6.119773  
      10B2     6.392815     6A2     6.410040    20A1     6.487052  
      15B1     6.514613    11B2     6.535021    21A1     6.688733  
       7A2     6.756732    22A1     6.933819    16B1     7.281943  
      17B1     7.670411    23A1    12.105681  

    Final Occupation by Irrep:
             A1    A2    B1    B2 
    DOCC [     3,    0,    1,    1 ]

  @DF-RKS Final Energy:   -76.42504900790701

   => Energetics <=

    Nuclear Repulsion Energy =              9.1334334609951409
    One-Electron Energy =                -123.0047742244838389
    Two-Electron Energy =                  41.9294737076128428
    DFT Exchange-Correlation Energy =      -4.4831819520311509
    Empirical Dispersion Energy =           0.0000000000000000
    VV10 Nonlocal Energy =                  0.0000000000000000
    Total Energy =                        -76.4250490079070062

Computation Completed


Properties will be evaluated at   0.000000,   0.000000,   0.000000 [a0]

Properties computed using the SCF density matrix

  Nuclear Dipole Moment: [e a0]
     X:     0.0000      Y:     0.0000      Z:     1.0109

  Electronic Dipole Moment: [e a0]
     X:     0.0000      Y:     0.0000      Z:    -0.2222

  Dipole Moment: [e a0]
     X:     0.0000      Y:     0.0000      Z:     0.7887     Total:     0.7887

  Dipole Moment: [D]
     X:     0.0000      Y:     0.0000      Z:     2.0048     Total:     2.0048


*** tstop() called on atlantis at Tue Apr 19 00:18:32 2022
Module time:
	user time   =       2.63 seconds =       0.04 minutes
	system time =       0.02 seconds =       0.00 minutes
	total time  =          3 seconds =       0.05 minutes
Total time:
	user time   =       4.83 seconds =       0.08 minutes
	system time =       0.09 seconds =       0.00 minutes
	total time  =          5 seconds =       0.08 minutes

*** tstart() called on atlantis
*** at Tue Apr 19 00:18:32 2022


         ------------------------------------------------------------
                                   SCF GRAD                          
                          Rob Parrish, Justin Turney,                
                       Andy Simmonett, and Alex Sokolov              
         ------------------------------------------------------------

  ==> Geometry <==

    Molecular point group: c2v
    Full point group: C2v

    Geometry (in Angstrom), charge = 0, multiplicity = 1:

       Center              X                  Y                   Z               Mass       
    ------------   -----------------  -----------------  -----------------  -----------------
         O            0.000000000000     0.000000000000    -0.067969259994    15.994914619570
         H            0.749030000000     0.000000000000     0.539360740006     1.007825032230
         H           -0.749030000000    -0.000000000000     0.539360740006     1.007825032230

  Nuclear repulsion =    9.133433460995141

  ==> Basis Set <==

  Basis Set: CC-PVTZ
    Blend: CC-PVTZ
    Number of shells: 22
    Number of basis function: 58
    Number of Cartesian functions: 65
    Spherical Harmonics?: true
    Max angular momentum: 3

  ==> DFJKGrad: Density-Fitted SCF Gradients <==

    Gradient:                    1
    J tasked:                  Yes
    K tasked:                  Yes
    wK tasked:                  No
    OpenMP threads:              1
    Integrals threads:           1
    Memory [MiB]:              375
    Schwarz Cutoff:          0E+00
    Fitting Condition:       1E-10

   => Auxiliary Basis Set <=

  Basis Set: (CC-PVTZ AUX)
    Blend: CC-PVTZ-JKFIT
    Number of shells: 45
    Number of basis function: 139
    Number of Cartesian functions: 166
    Spherical Harmonics?: true
    Max angular momentum: 4

  ==> DFT Potential <==

   => Composite Functional: M06-2X <= 

    Hybrid M06-2X Meta-GGA XC Functional

    Y. Zhao and D. G. Truhlar,  Theor. Chem. Acc., 120, 215, 2008


    Deriv               =              1
    GGA                 =           TRUE
    Meta                =           TRUE

    Exchange Hybrid     =           TRUE
    MP2 Hybrid          =          FALSE

   => Exchange Functionals <=

    1.0000   XC_HYB_MGGA_X_M06_2X

   => Exact (HF) Exchange <=

    0.5400               HF 

   => Correlation Functionals <=

    1.0000   XC_MGGA_C_M06_2X

   => Molecular Quadrature <=

    Radial Scheme          =       TREUTLER
    Pruning Scheme         =           FLAT
    Nuclear Scheme         =       TREUTLER

    BS radius alpha        =              1
    Pruning alpha          =              1
    Radial Points          =             75
    Spherical Points       =            302
    Total Points           =          66791
    Total Blocks           =            563
    Max Points             =            256
    Max Functions          =             58


  -Total Gradient:
     Atom            X                  Y                   Z
    ------   -----------------  -----------------  -----------------
       1        0.000000000000     0.000000000000    -0.011383949152
       2        0.000484037449     0.000000000000     0.005709752774
       3       -0.000484037449    -0.000000000000     0.005709752774


*** tstop() called on atlantis at Tue Apr 19 00:18:32 2022
Module time:
	user time   =       0.47 seconds =       0.01 minutes
	system time =       0.01 seconds =       0.00 minutes
	total time  =          0 seconds =       0.00 minutes
Total time:
	user time   =       5.30 seconds =       0.09 minutes
	system time =       0.10 seconds =       0.00 minutes
	total time  =          5 seconds =       0.08 minutes

  Based on options and gradient (rms=4.66E-03), recommend projecting translations and projecting rotations.
hessian() will perform frequency computation by finite difference of analytic gradients.

         ----------------------------------------------------------
                                   FINDIF
                     R. A. King and Jonathon Misiewicz
         ---------------------------------------------------------

  Using finite-differences of gradients to determine vibrational frequencies and 
  normal modes.  Resulting frequencies are only valid at stationary points.
    Generating geometries for use with 3-point formula.
    Displacement size will be 5.00e-03.
    Number of atoms is 3.
    Number of irreps is 4.
    Number of SALCs is 3.
    Translations projected? 1. Rotations projected? 1.
    Index of SALCs per irrep:
     1 :  0  1 
     2 : 
     3 :  2 
     4 : 
    Number of SALCs per irrep:
     Irrep 1: 2
     Irrep 2: 0
     Irrep 3: 1
     Irrep 4: 0
    Number of geometries (including reference) is 6.
    Number of displacements per irrep:
      Irrep 1: 4
      Irrep 2: 0
      Irrep 3: 1
      Irrep 4: 0

  //>>>>>>>>>>>>>>>>>>>>>>>>>>>>>>>>>>>//
  //    Loading displacement 1 of 6    //
  //<<<<<<<<<<<<<<<<<<<<<<<<<<<<<<<<<<<//
gradient() will perform analytic gradient computation.

*** tstart() called on atlantis
*** at Tue Apr 19 00:18:33 2022

   => Loading Basis Set <=

    Name: CC-PVTZ
    Role: ORBITAL
    Keyword: BASIS
    atoms 1   entry O          line   262 file /home/akrom/software/anaconda3/envs/ffpenv/share/psi4/basis/cc-pvtz.gbs 
    atoms 2-3 entry H          line    23 file /home/akrom/software/anaconda3/envs/ffpenv/share/psi4/basis/cc-pvtz.gbs 


         ---------------------------------------------------------
                                   SCF
               by Justin Turney, Rob Parrish, Andy Simmonett
                          and Daniel G. A. Smith
                              RKS Reference
                        1 Threads,    500 MiB Core
         ---------------------------------------------------------

  ==> Geometry <==

    Molecular point group: c2v
    Full point group: C2v

    Geometry (in Angstrom), charge = 0, multiplicity = 1:

       Center              X                  Y                   Z               Mass       
    ------------   -----------------  -----------------  -----------------  -----------------
         O            0.000000000000     0.000000000000    -0.067969259994    15.994914619570
         H            0.749030000000     0.000000000000     0.539360740006     1.007825032230
         H           -0.749030000000    -0.000000000000     0.539360740006     1.007825032230

  Running in c2v symmetry.

  Rotational constants: A =     25.53156  B =     14.90675  C =      9.41168 [cm^-1]
  Rotational constants: A = 765416.81232  B = 446893.08836  C = 282155.15104 [MHz]
  Nuclear repulsion =    9.133433460995141

  Charge       = 0
  Multiplicity = 1
  Electrons    = 10
  Nalpha       = 5
  Nbeta        = 5

  ==> Algorithm <==

  SCF Algorithm Type is DF.
  DIIS enabled.
  MOM disabled.
  Fractional occupation disabled.
  Guess Type is SAD.
  Energy threshold   = 1.00e-08
  Density threshold  = 1.00e-08
  Integral threshold = 0.00e+00

  ==> Primary Basis <==

  Basis Set: CC-PVTZ
    Blend: CC-PVTZ
    Number of shells: 22
    Number of basis function: 58
    Number of Cartesian functions: 65
    Spherical Harmonics?: true
    Max angular momentum: 3

  ==> DFT Potential <==

   => Composite Functional: M06-2X <= 

    Hybrid M06-2X Meta-GGA XC Functional

    Y. Zhao and D. G. Truhlar,  Theor. Chem. Acc., 120, 215, 2008


    Deriv               =              1
    GGA                 =           TRUE
    Meta                =           TRUE

    Exchange Hybrid     =           TRUE
    MP2 Hybrid          =          FALSE

   => Exchange Functionals <=

    1.0000   XC_HYB_MGGA_X_M06_2X

   => Exact (HF) Exchange <=

    0.5400               HF 

   => Correlation Functionals <=

    1.0000   XC_MGGA_C_M06_2X

   => Molecular Quadrature <=

    Radial Scheme          =       TREUTLER
    Pruning Scheme         =           FLAT
    Nuclear Scheme         =       TREUTLER

    BS radius alpha        =              1
    Pruning alpha          =              1
    Radial Points          =             75
    Spherical Points       =            302
    Total Points           =          66791
    Total Blocks           =            563
    Max Points             =            256
    Max Functions          =             58

   => Loading Basis Set <=

    Name: (CC-PVTZ AUX)
    Role: JKFIT
    Keyword: DF_BASIS_SCF
    atoms 1   entry O          line   229 file /home/akrom/software/anaconda3/envs/ffpenv/share/psi4/basis/cc-pvtz-jkfit.gbs 
    atoms 2-3 entry H          line    51 file /home/akrom/software/anaconda3/envs/ffpenv/share/psi4/basis/cc-pvtz-jkfit.gbs 

  ==> Pre-Iterations <==

   -------------------------------------------------------
    Irrep   Nso     Nmo     Nalpha   Nbeta   Ndocc  Nsocc
   -------------------------------------------------------
     A1        23      23       0       0       0       0
     A2         7       7       0       0       0       0
     B1        17      17       0       0       0       0
     B2        11      11       0       0       0       0
   -------------------------------------------------------
    Total      58      58       5       5       5       0
   -------------------------------------------------------

  ==> Integral Setup <==

  DFHelper Memory: AOs need 0.004 GiB; user supplied 0.103 GiB. Using in-core AOs.

  ==> MemDFJK: Density-Fitted J/K Matrices <==

    J tasked:                   Yes
    K tasked:                   Yes
    wK tasked:                   No
    OpenMP threads:               1
    Memory [MiB]:               105
    Algorithm:                 Core
    Schwarz Cutoff:           1E-12
    Mask sparsity (%):       0.0000
    Fitting Condition:        1E-10

   => Auxiliary Basis Set <=

  Basis Set: (CC-PVTZ AUX)
    Blend: CC-PVTZ-JKFIT
    Number of shells: 45
    Number of basis function: 139
    Number of Cartesian functions: 166
    Spherical Harmonics?: true
    Max angular momentum: 4

  Cached 100.0% of DFT collocation blocks in 0.263 [GiB].

  Minimum eigenvalue in the overlap matrix is 2.5816020467E-03.
  Using Symmetric Orthogonalization.

  SCF Guess: Superposition of Atomic Densities via on-the-fly atomic UHF.

  ==> Iterations <==

                           Total Energy        Delta E     RMS |[F,P]|

   @DF-RKS iter SAD:   -76.00147616929979   -7.60015e+01   0.00000e+00 
   @DF-RKS iter   1:   -76.30770669671034   -3.06231e-01   1.84264e-02 DIIS
   @DF-RKS iter   2:   -76.27618338330061    3.15233e-02   2.15189e-02 DIIS
   @DF-RKS iter   3:   -76.42495834050533   -1.48775e-01   4.58176e-04 DIIS
   @DF-RKS iter   4:   -76.42504387816105   -8.55377e-05   1.14003e-04 DIIS
   @DF-RKS iter   5:   -76.42504879455474   -4.91639e-06   2.15892e-05 DIIS
   @DF-RKS iter   6:   -76.42504899733551   -2.02781e-07   3.38482e-06 DIIS
   @DF-RKS iter   7:   -76.42504900779836   -1.04629e-08   2.74260e-07 DIIS
   @DF-RKS iter   8:   -76.42504900790584   -1.07477e-10   2.98015e-08 DIIS
   @DF-RKS iter   9:   -76.42504900790694   -1.09424e-12   3.83543e-09 DIIS
  Energy and wave function converged.


  ==> Post-Iterations <==

    Orbital Energies [Eh]
    ---------------------

    Doubly Occupied:                                                      

       1A1   -19.614900     2A1    -1.127201     1B1    -0.594251  
       3A1    -0.471115     1B2    -0.393785  

    Virtual:                                                              

       4A1     0.061852     2B1     0.127474     3B1     0.412066  
       5A1     0.470587     6A1     0.547152     2B2     0.643506  
       7A1     0.658289     4B1     0.668699     1A2     0.729461  
       3B2     0.810403     8A1     0.978316     5B1     1.057811  
       6B1     1.335122     9A1     1.368589     4B2     1.824647  
       2A2     1.834147     7B1     1.862559    10A1     1.940739  
      11A1     2.008209    12A1     2.281551     8B1     2.656212  
       5B2     3.046536    13A1     3.187304     3A2     3.295722  
       9B1     3.368005     6B2     3.434920    10B1     3.547171  
      14A1     3.586203     4A2     3.649355     7B2     3.694086  
      11B1     3.740493    15A1     3.839906     5A2     3.991970  
      16A1     4.023260    12B1     4.270575     8B2     4.320790  
      13B1     4.511764    17A1     4.753627    18A1     4.842356  
      14B1     5.103309     9B2     5.618493    19A1     6.119773  
      10B2     6.392815     6A2     6.410040    20A1     6.487052  
      15B1     6.514613    11B2     6.535021    21A1     6.688733  
       7A2     6.756732    22A1     6.933819    16B1     7.281943  
      17B1     7.670411    23A1    12.105681  

    Final Occupation by Irrep:
             A1    A2    B1    B2 
    DOCC [     3,    0,    1,    1 ]

  @DF-RKS Final Energy:   -76.42504900790694

   => Energetics <=

    Nuclear Repulsion Energy =              9.1334334609951409
    One-Electron Energy =                -123.0047742244838247
    Two-Electron Energy =                  41.9294737076128996
    DFT Exchange-Correlation Energy =      -4.4831819520311509
    Empirical Dispersion Energy =           0.0000000000000000
    VV10 Nonlocal Energy =                  0.0000000000000000
    Total Energy =                        -76.4250490079069351

Computation Completed


Properties will be evaluated at   0.000000,   0.000000,   0.000000 [a0]

Properties computed using the SCF density matrix

  Nuclear Dipole Moment: [e a0]
     X:     0.0000      Y:     0.0000      Z:     1.0109

  Electronic Dipole Moment: [e a0]
     X:     0.0000      Y:     0.0000      Z:    -0.2222

  Dipole Moment: [e a0]
     X:     0.0000      Y:     0.0000      Z:     0.7887     Total:     0.7887

  Dipole Moment: [D]
     X:     0.0000      Y:     0.0000      Z:     2.0048     Total:     2.0048


*** tstop() called on atlantis at Tue Apr 19 00:18:35 2022
Module time:
	user time   =       2.65 seconds =       0.04 minutes
	system time =       0.00 seconds =       0.00 minutes
	total time  =          2 seconds =       0.03 minutes
Total time:
	user time   =       8.22 seconds =       0.14 minutes
	system time =       0.11 seconds =       0.00 minutes
	total time  =          8 seconds =       0.13 minutes

*** tstart() called on atlantis
*** at Tue Apr 19 00:18:35 2022


         ------------------------------------------------------------
                                   SCF GRAD                          
                          Rob Parrish, Justin Turney,                
                       Andy Simmonett, and Alex Sokolov              
         ------------------------------------------------------------

  ==> Geometry <==

    Molecular point group: c2v
    Full point group: C2v

    Geometry (in Angstrom), charge = 0, multiplicity = 1:

       Center              X                  Y                   Z               Mass       
    ------------   -----------------  -----------------  -----------------  -----------------
         O            0.000000000000     0.000000000000    -0.067969259994    15.994914619570
         H            0.749030000000     0.000000000000     0.539360740006     1.007825032230
         H           -0.749030000000    -0.000000000000     0.539360740006     1.007825032230

  Nuclear repulsion =    9.133433460995141

  ==> Basis Set <==

  Basis Set: CC-PVTZ
    Blend: CC-PVTZ
    Number of shells: 22
    Number of basis function: 58
    Number of Cartesian functions: 65
    Spherical Harmonics?: true
    Max angular momentum: 3

  ==> DFJKGrad: Density-Fitted SCF Gradients <==

    Gradient:                    1
    J tasked:                  Yes
    K tasked:                  Yes
    wK tasked:                  No
    OpenMP threads:              1
    Integrals threads:           1
    Memory [MiB]:              375
    Schwarz Cutoff:          0E+00
    Fitting Condition:       1E-10

   => Auxiliary Basis Set <=

  Basis Set: (CC-PVTZ AUX)
    Blend: CC-PVTZ-JKFIT
    Number of shells: 45
    Number of basis function: 139
    Number of Cartesian functions: 166
    Spherical Harmonics?: true
    Max angular momentum: 4

  ==> DFT Potential <==

   => Composite Functional: M06-2X <= 

    Hybrid M06-2X Meta-GGA XC Functional

    Y. Zhao and D. G. Truhlar,  Theor. Chem. Acc., 120, 215, 2008


    Deriv               =              1
    GGA                 =           TRUE
    Meta                =           TRUE

    Exchange Hybrid     =           TRUE
    MP2 Hybrid          =          FALSE

   => Exchange Functionals <=

    1.0000   XC_HYB_MGGA_X_M06_2X

   => Exact (HF) Exchange <=

    0.5400               HF 

   => Correlation Functionals <=

    1.0000   XC_MGGA_C_M06_2X

   => Molecular Quadrature <=

    Radial Scheme          =       TREUTLER
    Pruning Scheme         =           FLAT
    Nuclear Scheme         =       TREUTLER

    BS radius alpha        =              1
    Pruning alpha          =              1
    Radial Points          =             75
    Spherical Points       =            302
    Total Points           =          66791
    Total Blocks           =            563
    Max Points             =            256
    Max Functions          =             58


  -Total Gradient:
     Atom            X                  Y                   Z
    ------   -----------------  -----------------  -----------------
       1        0.000000000000    -0.000000000000    -0.011383949143
       2        0.000484037444     0.000000000000     0.005709752770
       3       -0.000484037444    -0.000000000000     0.005709752770


*** tstop() called on atlantis at Tue Apr 19 00:18:36 2022
Module time:
	user time   =       0.46 seconds =       0.01 minutes
	system time =       0.01 seconds =       0.00 minutes
	total time  =          1 seconds =       0.02 minutes
Total time:
	user time   =       8.68 seconds =       0.14 minutes
	system time =       0.12 seconds =       0.00 minutes
	total time  =          9 seconds =       0.15 minutes

  //>>>>>>>>>>>>>>>>>>>>>>>>>>>>>>>>>>>//
  //    Loading displacement 2 of 6    //
  //<<<<<<<<<<<<<<<<<<<<<<<<<<<<<<<<<<<//
gradient() will perform analytic gradient computation.

*** tstart() called on atlantis
*** at Tue Apr 19 00:18:36 2022

   => Loading Basis Set <=

    Name: CC-PVTZ
    Role: ORBITAL
    Keyword: BASIS
    atoms 1   entry O          line   262 file /home/akrom/software/anaconda3/envs/ffpenv/share/psi4/basis/cc-pvtz.gbs 
    atoms 2-3 entry H          line    23 file /home/akrom/software/anaconda3/envs/ffpenv/share/psi4/basis/cc-pvtz.gbs 


         ---------------------------------------------------------
                                   SCF
               by Justin Turney, Rob Parrish, Andy Simmonett
                          and Daniel G. A. Smith
                              RKS Reference
                        1 Threads,    500 MiB Core
         ---------------------------------------------------------

  ==> Geometry <==

    Molecular point group: c2v
    Full point group: C2v

    Geometry (in Angstrom), charge = 0, multiplicity = 1:

       Center              X                  Y                   Z               Mass       
    ------------   -----------------  -----------------  -----------------  -----------------
         O            0.000000000000     0.000000000000    -0.068190581735    15.994914619570
         H            0.749030000000     0.000000000000     0.541117008324     1.007825032230
         H           -0.749030000000    -0.000000000000     0.541117008324     1.007825032230

  Running in c2v symmetry.

  Rotational constants: A =     25.36609  B =     14.90675  C =      9.38911 [cm^-1]
  Rotational constants: A = 760456.34809  B = 446893.08836  C = 281478.31580 [MHz]
  Nuclear repulsion =    9.122096529799810

  Charge       = 0
  Multiplicity = 1
  Electrons    = 10
  Nalpha       = 5
  Nbeta        = 5

  ==> Algorithm <==

  SCF Algorithm Type is DF.
  DIIS enabled.
  MOM disabled.
  Fractional occupation disabled.
  Guess Type is SAD.
  Energy threshold   = 1.00e-08
  Density threshold  = 1.00e-08
  Integral threshold = 0.00e+00

  ==> Primary Basis <==

  Basis Set: CC-PVTZ
    Blend: CC-PVTZ
    Number of shells: 22
    Number of basis function: 58
    Number of Cartesian functions: 65
    Spherical Harmonics?: true
    Max angular momentum: 3

  ==> DFT Potential <==

   => Composite Functional: M06-2X <= 

    Hybrid M06-2X Meta-GGA XC Functional

    Y. Zhao and D. G. Truhlar,  Theor. Chem. Acc., 120, 215, 2008


    Deriv               =              1
    GGA                 =           TRUE
    Meta                =           TRUE

    Exchange Hybrid     =           TRUE
    MP2 Hybrid          =          FALSE

   => Exchange Functionals <=

    1.0000   XC_HYB_MGGA_X_M06_2X

   => Exact (HF) Exchange <=

    0.5400               HF 

   => Correlation Functionals <=

    1.0000   XC_MGGA_C_M06_2X

   => Molecular Quadrature <=

    Radial Scheme          =       TREUTLER
    Pruning Scheme         =           FLAT
    Nuclear Scheme         =       TREUTLER

    BS radius alpha        =              1
    Pruning alpha          =              1
    Radial Points          =             75
    Spherical Points       =            302
    Total Points           =          66791
    Total Blocks           =            563
    Max Points             =            256
    Max Functions          =             58

   => Loading Basis Set <=

    Name: (CC-PVTZ AUX)
    Role: JKFIT
    Keyword: DF_BASIS_SCF
    atoms 1   entry O          line   229 file /home/akrom/software/anaconda3/envs/ffpenv/share/psi4/basis/cc-pvtz-jkfit.gbs 
    atoms 2-3 entry H          line    51 file /home/akrom/software/anaconda3/envs/ffpenv/share/psi4/basis/cc-pvtz-jkfit.gbs 

  ==> Pre-Iterations <==

   -------------------------------------------------------
    Irrep   Nso     Nmo     Nalpha   Nbeta   Ndocc  Nsocc
   -------------------------------------------------------
     A1        23      23       0       0       0       0
     A2         7       7       0       0       0       0
     B1        17      17       0       0       0       0
     B2        11      11       0       0       0       0
   -------------------------------------------------------
    Total      58      58       5       5       5       0
   -------------------------------------------------------

  ==> Integral Setup <==

  DFHelper Memory: AOs need 0.004 GiB; user supplied 0.103 GiB. Using in-core AOs.

  ==> MemDFJK: Density-Fitted J/K Matrices <==

    J tasked:                   Yes
    K tasked:                   Yes
    wK tasked:                   No
    OpenMP threads:               1
    Memory [MiB]:               105
    Algorithm:                 Core
    Schwarz Cutoff:           1E-12
    Mask sparsity (%):       0.0000
    Fitting Condition:        1E-10

   => Auxiliary Basis Set <=

  Basis Set: (CC-PVTZ AUX)
    Blend: CC-PVTZ-JKFIT
    Number of shells: 45
    Number of basis function: 139
    Number of Cartesian functions: 166
    Spherical Harmonics?: true
    Max angular momentum: 4

  Cached 100.0% of DFT collocation blocks in 0.263 [GiB].

  Minimum eigenvalue in the overlap matrix is 2.5946794781E-03.
  Using Symmetric Orthogonalization.

  SCF Guess: Superposition of Atomic Densities via on-the-fly atomic UHF.

  ==> Iterations <==

                           Total Energy        Delta E     RMS |[F,P]|

   @DF-RKS iter SAD:   -76.00057298032230   -7.60006e+01   0.00000e+00 
   @DF-RKS iter   1:   -76.30769122012235   -3.07118e-01   1.84131e-02 DIIS
   @DF-RKS iter   2:   -76.27576286288752    3.19284e-02   2.15371e-02 DIIS
   @DF-RKS iter   3:   -76.42491209633064   -1.49149e-01   4.59103e-04 DIIS
   @DF-RKS iter   4:   -76.42499804630907   -8.59500e-05   1.14385e-04 DIIS
   @DF-RKS iter   5:   -76.42500300524635   -4.95894e-06   2.16840e-05 DIIS
   @DF-RKS iter   6:   -76.42500320962958   -2.04383e-07   3.39485e-06 DIIS
   @DF-RKS iter   7:   -76.42500322015732   -1.05277e-08   2.73412e-07 DIIS
   @DF-RKS iter   8:   -76.42500322026387   -1.06553e-10   2.99182e-08 DIIS
   @DF-RKS iter   9:   -76.42500322026507   -1.19371e-12   3.88460e-09 DIIS
  Energy and wave function converged.


  ==> Post-Iterations <==

    Orbital Energies [Eh]
    ---------------------

    Doubly Occupied:                                                      

       1A1   -19.615185     2A1    -1.126773     1B1    -0.593393  
       3A1    -0.471305     1B2    -0.393731  

    Virtual:                                                              

       4A1     0.061638     2B1     0.127338     3B1     0.411246  
       5A1     0.470353     6A1     0.547304     2B2     0.643403  
       7A1     0.657280     4B1     0.668810     1A2     0.729577  
       3B2     0.809588     8A1     0.979344     5B1     1.057568  
       6B1     1.333732     9A1     1.367095     4B2     1.824859  
       2A2     1.833259     7B1     1.864155    10A1     1.940309  
      11A1     2.008407    12A1     2.280479     8B1     2.655559  
       5B2     3.044884    13A1     3.185670     3A2     3.296284  
       9B1     3.367105     6B2     3.433637    10B1     3.546137  
      14A1     3.586107     4A2     3.648687     7B2     3.693502  
      11B1     3.738918    15A1     3.838234     5A2     3.989465  
      16A1     4.019962    12B1     4.268782     8B2     4.319325  
      13B1     4.511360    17A1     4.750612    18A1     4.841267  
      14B1     5.102000     9B2     5.616571    19A1     6.116702  
      10B2     6.388449     6A2     6.407516    20A1     6.483776  
      15B1     6.506938    11B2     6.534864    21A1     6.690102  
       7A2     6.754541    22A1     6.932372    16B1     7.279441  
      17B1     7.666137    23A1    12.084869  

    Final Occupation by Irrep:
             A1    A2    B1    B2 
    DOCC [     3,    0,    1,    1 ]

  @DF-RKS Final Energy:   -76.42500322026507

   => Energetics <=

    Nuclear Repulsion Energy =              9.1220965297998102
    One-Electron Energy =                -122.9841682566642191
    Two-Electron Energy =                  41.9197430342861921
    DFT Exchange-Correlation Energy =      -4.4826745276868447
    Empirical Dispersion Energy =           0.0000000000000000
    VV10 Nonlocal Energy =                  0.0000000000000000
    Total Energy =                        -76.4250032202650686

Computation Completed


Properties will be evaluated at   0.000000,   0.000000,   0.000000 [a0]

Properties computed using the SCF density matrix

  Nuclear Dipole Moment: [e a0]
     X:     0.0000      Y:     0.0000      Z:     1.0142

  Electronic Dipole Moment: [e a0]
     X:     0.0000      Y:     0.0000      Z:    -0.2241

  Dipole Moment: [e a0]
     X:     0.0000      Y:     0.0000      Z:     0.7901     Total:     0.7901

  Dipole Moment: [D]
     X:     0.0000      Y:     0.0000      Z:     2.0082     Total:     2.0082


*** tstop() called on atlantis at Tue Apr 19 00:18:38 2022
Module time:
	user time   =       2.63 seconds =       0.04 minutes
	system time =       0.00 seconds =       0.00 minutes
	total time  =          2 seconds =       0.03 minutes
Total time:
	user time   =      11.32 seconds =       0.19 minutes
	system time =       0.12 seconds =       0.00 minutes
	total time  =         11 seconds =       0.18 minutes

*** tstart() called on atlantis
*** at Tue Apr 19 00:18:38 2022


         ------------------------------------------------------------
                                   SCF GRAD                          
                          Rob Parrish, Justin Turney,                
                       Andy Simmonett, and Alex Sokolov              
         ------------------------------------------------------------

  ==> Geometry <==

    Molecular point group: c2v
    Full point group: C2v

    Geometry (in Angstrom), charge = 0, multiplicity = 1:

       Center              X                  Y                   Z               Mass       
    ------------   -----------------  -----------------  -----------------  -----------------
         O            0.000000000000     0.000000000000    -0.068190581735    15.994914619570
         H            0.749030000000     0.000000000000     0.541117008324     1.007825032230
         H           -0.749030000000    -0.000000000000     0.541117008324     1.007825032230

  Nuclear repulsion =    9.122096529799810

  ==> Basis Set <==

  Basis Set: CC-PVTZ
    Blend: CC-PVTZ
    Number of shells: 22
    Number of basis function: 58
    Number of Cartesian functions: 65
    Spherical Harmonics?: true
    Max angular momentum: 3

  ==> DFJKGrad: Density-Fitted SCF Gradients <==

    Gradient:                    1
    J tasked:                  Yes
    K tasked:                  Yes
    wK tasked:                  No
    OpenMP threads:              1
    Integrals threads:           1
    Memory [MiB]:              375
    Schwarz Cutoff:          0E+00
    Fitting Condition:       1E-10

   => Auxiliary Basis Set <=

  Basis Set: (CC-PVTZ AUX)
    Blend: CC-PVTZ-JKFIT
    Number of shells: 45
    Number of basis function: 139
    Number of Cartesian functions: 166
    Spherical Harmonics?: true
    Max angular momentum: 4

  ==> DFT Potential <==

   => Composite Functional: M06-2X <= 

    Hybrid M06-2X Meta-GGA XC Functional

    Y. Zhao and D. G. Truhlar,  Theor. Chem. Acc., 120, 215, 2008


    Deriv               =              1
    GGA                 =           TRUE
    Meta                =           TRUE

    Exchange Hybrid     =           TRUE
    MP2 Hybrid          =          FALSE

   => Exchange Functionals <=

    1.0000   XC_HYB_MGGA_X_M06_2X

   => Exact (HF) Exchange <=

    0.5400               HF 

   => Correlation Functionals <=

    1.0000   XC_MGGA_C_M06_2X

   => Molecular Quadrature <=

    Radial Scheme          =       TREUTLER
    Pruning Scheme         =           FLAT
    Nuclear Scheme         =       TREUTLER

    BS radius alpha        =              1
    Pruning alpha          =              1
    Radial Points          =             75
    Spherical Points       =            302
    Total Points           =          66791
    Total Blocks           =            563
    Max Points             =            256
    Max Functions          =             58


  -Total Gradient:
     Atom            X                  Y                   Z
    ------   -----------------  -----------------  -----------------
       1        0.000000000000     0.000000000000    -0.013142510801
       2        0.001236659742     0.000000000000     0.006589247894
       3       -0.001236659742    -0.000000000000     0.006589247894


*** tstop() called on atlantis at Tue Apr 19 00:18:39 2022
Module time:
	user time   =       0.47 seconds =       0.01 minutes
	system time =       0.00 seconds =       0.00 minutes
	total time  =          1 seconds =       0.02 minutes
Total time:
	user time   =      11.80 seconds =       0.20 minutes
	system time =       0.12 seconds =       0.00 minutes
	total time  =         12 seconds =       0.20 minutes

  //>>>>>>>>>>>>>>>>>>>>>>>>>>>>>>>>>>>//
  //    Loading displacement 3 of 6    //
  //<<<<<<<<<<<<<<<<<<<<<<<<<<<<<<<<<<<//
gradient() will perform analytic gradient computation.

*** tstart() called on atlantis
*** at Tue Apr 19 00:18:39 2022

   => Loading Basis Set <=

    Name: CC-PVTZ
    Role: ORBITAL
    Keyword: BASIS
    atoms 1   entry O          line   262 file /home/akrom/software/anaconda3/envs/ffpenv/share/psi4/basis/cc-pvtz.gbs 
    atoms 2-3 entry H          line    23 file /home/akrom/software/anaconda3/envs/ffpenv/share/psi4/basis/cc-pvtz.gbs 


         ---------------------------------------------------------
                                   SCF
               by Justin Turney, Rob Parrish, Andy Simmonett
                          and Daniel G. A. Smith
                              RKS Reference
                        1 Threads,    500 MiB Core
         ---------------------------------------------------------

  ==> Geometry <==

    Molecular point group: c2v
    Full point group: C2v

    Geometry (in Angstrom), charge = 0, multiplicity = 1:

       Center              X                  Y                   Z               Mass       
    ------------   -----------------  -----------------  -----------------  -----------------
         O            0.000000000000     0.000000000000    -0.067747938253    15.994914619570
         H            0.749030000000     0.000000000000     0.537604471688     1.007825032230
         H           -0.749030000000    -0.000000000000     0.537604471688     1.007825032230

  Running in c2v symmetry.

  Rotational constants: A =     25.69864  B =     14.90675  C =      9.43429 [cm^-1]
  Rotational constants: A = 770425.97106  B = 446893.08836  C = 282833.03288 [MHz]
  Nuclear repulsion =    9.144777407102437

  Charge       = 0
  Multiplicity = 1
  Electrons    = 10
  Nalpha       = 5
  Nbeta        = 5

  ==> Algorithm <==

  SCF Algorithm Type is DF.
  DIIS enabled.
  MOM disabled.
  Fractional occupation disabled.
  Guess Type is SAD.
  Energy threshold   = 1.00e-08
  Density threshold  = 1.00e-08
  Integral threshold = 0.00e+00

  ==> Primary Basis <==

  Basis Set: CC-PVTZ
    Blend: CC-PVTZ
    Number of shells: 22
    Number of basis function: 58
    Number of Cartesian functions: 65
    Spherical Harmonics?: true
    Max angular momentum: 3

  ==> DFT Potential <==

   => Composite Functional: M06-2X <= 

    Hybrid M06-2X Meta-GGA XC Functional

    Y. Zhao and D. G. Truhlar,  Theor. Chem. Acc., 120, 215, 2008


    Deriv               =              1
    GGA                 =           TRUE
    Meta                =           TRUE

    Exchange Hybrid     =           TRUE
    MP2 Hybrid          =          FALSE

   => Exchange Functionals <=

    1.0000   XC_HYB_MGGA_X_M06_2X

   => Exact (HF) Exchange <=

    0.5400               HF 

   => Correlation Functionals <=

    1.0000   XC_MGGA_C_M06_2X

   => Molecular Quadrature <=

    Radial Scheme          =       TREUTLER
    Pruning Scheme         =           FLAT
    Nuclear Scheme         =       TREUTLER

    BS radius alpha        =              1
    Pruning alpha          =              1
    Radial Points          =             75
    Spherical Points       =            302
    Total Points           =          66791
    Total Blocks           =            563
    Max Points             =            256
    Max Functions          =             58

   => Loading Basis Set <=

    Name: (CC-PVTZ AUX)
    Role: JKFIT
    Keyword: DF_BASIS_SCF
    atoms 1   entry O          line   229 file /home/akrom/software/anaconda3/envs/ffpenv/share/psi4/basis/cc-pvtz-jkfit.gbs 
    atoms 2-3 entry H          line    51 file /home/akrom/software/anaconda3/envs/ffpenv/share/psi4/basis/cc-pvtz-jkfit.gbs 

  ==> Pre-Iterations <==

   -------------------------------------------------------
    Irrep   Nso     Nmo     Nalpha   Nbeta   Ndocc  Nsocc
   -------------------------------------------------------
     A1        23      23       0       0       0       0
     A2         7       7       0       0       0       0
     B1        17      17       0       0       0       0
     B2        11      11       0       0       0       0
   -------------------------------------------------------
    Total      58      58       5       5       5       0
   -------------------------------------------------------

  ==> Integral Setup <==

  DFHelper Memory: AOs need 0.004 GiB; user supplied 0.103 GiB. Using in-core AOs.

  ==> MemDFJK: Density-Fitted J/K Matrices <==

    J tasked:                   Yes
    K tasked:                   Yes
    wK tasked:                   No
    OpenMP threads:               1
    Memory [MiB]:               105
    Algorithm:                 Core
    Schwarz Cutoff:           1E-12
    Mask sparsity (%):       0.0000
    Fitting Condition:        1E-10

   => Auxiliary Basis Set <=

  Basis Set: (CC-PVTZ AUX)
    Blend: CC-PVTZ-JKFIT
    Number of shells: 45
    Number of basis function: 139
    Number of Cartesian functions: 166
    Spherical Harmonics?: true
    Max angular momentum: 4

  Cached 100.0% of DFT collocation blocks in 0.263 [GiB].

  Minimum eigenvalue in the overlap matrix is 2.5686469121E-03.
  Using Symmetric Orthogonalization.

  SCF Guess: Superposition of Atomic Densities via on-the-fly atomic UHF.

  ==> Iterations <==

                           Total Energy        Delta E     RMS |[F,P]|

   @DF-RKS iter SAD:   -76.00237383545513   -7.60024e+01   0.00000e+00 
   @DF-RKS iter   1:   -76.30771383664448   -3.05340e-01   1.84398e-02 DIIS
   @DF-RKS iter   2:   -76.27659245564843    3.11214e-02   2.15008e-02 DIIS
   @DF-RKS iter   3:   -76.42499799753237   -1.48406e-01   4.57254e-04 DIIS
   @DF-RKS iter   4:   -76.42508312743965   -8.51299e-05   1.13624e-04 DIIS
   @DF-RKS iter   5:   -76.42508800186143   -4.87442e-06   2.14951e-05 DIIS
   @DF-RKS iter   6:   -76.42508820306526   -2.01204e-07   3.37491e-06 DIIS
   @DF-RKS iter   7:   -76.42508821346453   -1.03993e-08   2.75112e-07 DIIS
   @DF-RKS iter   8:   -76.42508821357255   -1.08017e-10   2.96850e-08 DIIS
   @DF-RKS iter   9:   -76.42508821357382   -1.26477e-12   3.78644e-09 DIIS
  Energy and wave function converged.


  ==> Post-Iterations <==

    Orbital Energies [Eh]
    ---------------------

    Doubly Occupied:                                                      

       1A1   -19.614615     2A1    -1.127628     1B1    -0.595111  
       3A1    -0.470924     1B2    -0.393840  

    Virtual:                                                              

       4A1     0.062064     2B1     0.127608     3B1     0.412888  
       5A1     0.470812     6A1     0.547004     2B2     0.643605  
       7A1     0.659306     4B1     0.668590     1A2     0.729344  
       3B2     0.811224     8A1     0.977293     5B1     1.058052  
       6B1     1.336518     9A1     1.370081     4B2     1.824425  
       2A2     1.835034     7B1     1.860976    10A1     1.941132  
      11A1     2.008019    12A1     2.282669     8B1     2.656851  
       5B2     3.048201    13A1     3.188940     3A2     3.295159  
       9B1     3.368881     6B2     3.436204    10B1     3.548237  
      14A1     3.586302     4A2     3.650007     7B2     3.694673  
      11B1     3.742059    15A1     3.841564     5A2     3.994495  
      16A1     4.026560    12B1     4.272284     8B2     4.322255  
      13B1     4.512276    17A1     4.756612    18A1     4.843501  
      14B1     5.104628     9B2     5.620398    19A1     6.122815  
      10B2     6.397088     6A2     6.412527    20A1     6.490290  
      15B1     6.522311    11B2     6.535282    21A1     6.687386  
       7A2     6.758936    22A1     6.935301    16B1     7.284454  
      17B1     7.674653    23A1    12.126509  

    Final Occupation by Irrep:
             A1    A2    B1    B2 
    DOCC [     3,    0,    1,    1 ]

  @DF-RKS Final Energy:   -76.42508821357382

   => Energetics <=

    Nuclear Repulsion Energy =              9.1447774071024366
    One-Electron Energy =                -123.0253795421776033
    Two-Electron Energy =                  41.9392034806319955
    DFT Exchange-Correlation Energy =      -4.4836895591306503
    Empirical Dispersion Energy =           0.0000000000000000
    VV10 Nonlocal Energy =                  0.0000000000000000
    Total Energy =                        -76.4250882135738152

Computation Completed


Properties will be evaluated at   0.000000,   0.000000,   0.000000 [a0]

Properties computed using the SCF density matrix

  Nuclear Dipole Moment: [e a0]
     X:     0.0000      Y:     0.0000      Z:     1.0077

  Electronic Dipole Moment: [e a0]
     X:     0.0000      Y:     0.0000      Z:    -0.2203

  Dipole Moment: [e a0]
     X:     0.0000      Y:     0.0000      Z:     0.7874     Total:     0.7874

  Dipole Moment: [D]
     X:     0.0000      Y:     0.0000      Z:     2.0013     Total:     2.0013


*** tstop() called on atlantis at Tue Apr 19 00:18:42 2022
Module time:
	user time   =       2.63 seconds =       0.04 minutes
	system time =       0.02 seconds =       0.00 minutes
	total time  =          3 seconds =       0.05 minutes
Total time:
	user time   =      14.43 seconds =       0.24 minutes
	system time =       0.14 seconds =       0.00 minutes
	total time  =         15 seconds =       0.25 minutes

*** tstart() called on atlantis
*** at Tue Apr 19 00:18:42 2022


         ------------------------------------------------------------
                                   SCF GRAD                          
                          Rob Parrish, Justin Turney,                
                       Andy Simmonett, and Alex Sokolov              
         ------------------------------------------------------------

  ==> Geometry <==

    Molecular point group: c2v
    Full point group: C2v

    Geometry (in Angstrom), charge = 0, multiplicity = 1:

       Center              X                  Y                   Z               Mass       
    ------------   -----------------  -----------------  -----------------  -----------------
         O            0.000000000000     0.000000000000    -0.067747938253    15.994914619570
         H            0.749030000000     0.000000000000     0.537604471688     1.007825032230
         H           -0.749030000000    -0.000000000000     0.537604471688     1.007825032230

  Nuclear repulsion =    9.144777407102437

  ==> Basis Set <==

  Basis Set: CC-PVTZ
    Blend: CC-PVTZ
    Number of shells: 22
    Number of basis function: 58
    Number of Cartesian functions: 65
    Spherical Harmonics?: true
    Max angular momentum: 3

  ==> DFJKGrad: Density-Fitted SCF Gradients <==

    Gradient:                    1
    J tasked:                  Yes
    K tasked:                  Yes
    wK tasked:                  No
    OpenMP threads:              1
    Integrals threads:           1
    Memory [MiB]:              375
    Schwarz Cutoff:          0E+00
    Fitting Condition:       1E-10

   => Auxiliary Basis Set <=

  Basis Set: (CC-PVTZ AUX)
    Blend: CC-PVTZ-JKFIT
    Number of shells: 45
    Number of basis function: 139
    Number of Cartesian functions: 166
    Spherical Harmonics?: true
    Max angular momentum: 4

  ==> DFT Potential <==

   => Composite Functional: M06-2X <= 

    Hybrid M06-2X Meta-GGA XC Functional

    Y. Zhao and D. G. Truhlar,  Theor. Chem. Acc., 120, 215, 2008


    Deriv               =              1
    GGA                 =           TRUE
    Meta                =           TRUE

    Exchange Hybrid     =           TRUE
    MP2 Hybrid          =          FALSE

   => Exchange Functionals <=

    1.0000   XC_HYB_MGGA_X_M06_2X

   => Exact (HF) Exchange <=

    0.5400               HF 

   => Correlation Functionals <=

    1.0000   XC_MGGA_C_M06_2X

   => Molecular Quadrature <=

    Radial Scheme          =       TREUTLER
    Pruning Scheme         =           FLAT
    Nuclear Scheme         =       TREUTLER

    BS radius alpha        =              1
    Pruning alpha          =              1
    Radial Points          =             75
    Spherical Points       =            302
    Total Points           =          66791
    Total Blocks           =            563
    Max Points             =            256
    Max Functions          =             58


  -Total Gradient:
     Atom            X                  Y                   Z
    ------   -----------------  -----------------  -----------------
       1        0.000000000000     0.000000000000    -0.009619331997
       2       -0.000276801296    -0.000000000000     0.004827098885
       3        0.000276801296     0.000000000000     0.004827098885


*** tstop() called on atlantis at Tue Apr 19 00:18:42 2022
Module time:
	user time   =       0.48 seconds =       0.01 minutes
	system time =       0.00 seconds =       0.00 minutes
	total time  =          0 seconds =       0.00 minutes
Total time:
	user time   =      14.91 seconds =       0.25 minutes
	system time =       0.14 seconds =       0.00 minutes
	total time  =         15 seconds =       0.25 minutes

  //>>>>>>>>>>>>>>>>>>>>>>>>>>>>>>>>>>>//
  //    Loading displacement 4 of 6    //
  //<<<<<<<<<<<<<<<<<<<<<<<<<<<<<<<<<<<//
gradient() will perform analytic gradient computation.

*** tstart() called on atlantis
*** at Tue Apr 19 00:18:42 2022

   => Loading Basis Set <=

    Name: CC-PVTZ
    Role: ORBITAL
    Keyword: BASIS
    atoms 1   entry O          line   262 file /home/akrom/software/anaconda3/envs/ffpenv/share/psi4/basis/cc-pvtz.gbs 
    atoms 2-3 entry H          line    23 file /home/akrom/software/anaconda3/envs/ffpenv/share/psi4/basis/cc-pvtz.gbs 


         ---------------------------------------------------------
                                   SCF
               by Justin Turney, Rob Parrish, Andy Simmonett
                          and Daniel G. A. Smith
                              RKS Reference
                        1 Threads,    500 MiB Core
         ---------------------------------------------------------

  ==> Geometry <==

    Molecular point group: c2v
    Full point group: C2v

    Geometry (in Angstrom), charge = 0, multiplicity = 1:

       Center              X                  Y                   Z               Mass       
    ------------   -----------------  -----------------  -----------------  -----------------
         O            0.000000000000     0.000000000000    -0.067969259994    15.994914619570
         H            0.747166353368     0.000000000000     0.539360740006     1.007825032230
         H           -0.747166353368    -0.000000000000     0.539360740006     1.007825032230

  Running in c2v symmetry.

  Rotational constants: A =     25.53156  B =     14.98121  C =      9.44131 [cm^-1]
  Rotational constants: A = 765416.81232  B = 449125.22710  C = 283043.31057 [MHz]
  Nuclear repulsion =    9.147508349681694

  Charge       = 0
  Multiplicity = 1
  Electrons    = 10
  Nalpha       = 5
  Nbeta        = 5

  ==> Algorithm <==

  SCF Algorithm Type is DF.
  DIIS enabled.
  MOM disabled.
  Fractional occupation disabled.
  Guess Type is SAD.
  Energy threshold   = 1.00e-08
  Density threshold  = 1.00e-08
  Integral threshold = 0.00e+00

  ==> Primary Basis <==

  Basis Set: CC-PVTZ
    Blend: CC-PVTZ
    Number of shells: 22
    Number of basis function: 58
    Number of Cartesian functions: 65
    Spherical Harmonics?: true
    Max angular momentum: 3

  ==> DFT Potential <==

   => Composite Functional: M06-2X <= 

    Hybrid M06-2X Meta-GGA XC Functional

    Y. Zhao and D. G. Truhlar,  Theor. Chem. Acc., 120, 215, 2008


    Deriv               =              1
    GGA                 =           TRUE
    Meta                =           TRUE

    Exchange Hybrid     =           TRUE
    MP2 Hybrid          =          FALSE

   => Exchange Functionals <=

    1.0000   XC_HYB_MGGA_X_M06_2X

   => Exact (HF) Exchange <=

    0.5400               HF 

   => Correlation Functionals <=

    1.0000   XC_MGGA_C_M06_2X

   => Molecular Quadrature <=

    Radial Scheme          =       TREUTLER
    Pruning Scheme         =           FLAT
    Nuclear Scheme         =       TREUTLER

    BS radius alpha        =              1
    Pruning alpha          =              1
    Radial Points          =             75
    Spherical Points       =            302
    Total Points           =          66791
    Total Blocks           =            563
    Max Points             =            256
    Max Functions          =             58

   => Loading Basis Set <=

    Name: (CC-PVTZ AUX)
    Role: JKFIT
    Keyword: DF_BASIS_SCF
    atoms 1   entry O          line   229 file /home/akrom/software/anaconda3/envs/ffpenv/share/psi4/basis/cc-pvtz-jkfit.gbs 
    atoms 2-3 entry H          line    51 file /home/akrom/software/anaconda3/envs/ffpenv/share/psi4/basis/cc-pvtz-jkfit.gbs 

  ==> Pre-Iterations <==

   -------------------------------------------------------
    Irrep   Nso     Nmo     Nalpha   Nbeta   Ndocc  Nsocc
   -------------------------------------------------------
     A1        23      23       0       0       0       0
     A2         7       7       0       0       0       0
     B1        17      17       0       0       0       0
     B2        11      11       0       0       0       0
   -------------------------------------------------------
    Total      58      58       5       5       5       0
   -------------------------------------------------------

  ==> Integral Setup <==

  DFHelper Memory: AOs need 0.004 GiB; user supplied 0.103 GiB. Using in-core AOs.

  ==> MemDFJK: Density-Fitted J/K Matrices <==

    J tasked:                   Yes
    K tasked:                   Yes
    wK tasked:                   No
    OpenMP threads:               1
    Memory [MiB]:               105
    Algorithm:                 Core
    Schwarz Cutoff:           1E-12
    Mask sparsity (%):       0.0000
    Fitting Condition:        1E-10

   => Auxiliary Basis Set <=

  Basis Set: (CC-PVTZ AUX)
    Blend: CC-PVTZ-JKFIT
    Number of shells: 45
    Number of basis function: 139
    Number of Cartesian functions: 166
    Spherical Harmonics?: true
    Max angular momentum: 4

  Cached 100.0% of DFT collocation blocks in 0.263 [GiB].

  Minimum eigenvalue in the overlap matrix is 2.5696699349E-03.
  Using Symmetric Orthogonalization.

  SCF Guess: Superposition of Atomic Densities via on-the-fly atomic UHF.

  ==> Iterations <==

                           Total Energy        Delta E     RMS |[F,P]|

   @DF-RKS iter SAD:   -76.00280281599893   -7.60028e+01   0.00000e+00 
   @DF-RKS iter   1:   -76.30766588865730   -3.04863e-01   1.84395e-02 DIIS
   @DF-RKS iter   2:   -76.27649542541150    3.11705e-02   2.15038e-02 DIIS
   @DF-RKS iter   3:   -76.42495735797000   -1.48462e-01   4.57188e-04 DIIS
   @DF-RKS iter   4:   -76.42504236950997   -8.50115e-05   1.13486e-04 DIIS
   @DF-RKS iter   5:   -76.42504722630198   -4.85679e-06   2.14989e-05 DIIS
   @DF-RKS iter   6:   -76.42504742693484   -2.00633e-07   3.36786e-06 DIIS
   @DF-RKS iter   7:   -76.42504743725618   -1.03213e-08   2.72334e-07 DIIS
   @DF-RKS iter   8:   -76.42504743736154   -1.05359e-10   2.94402e-08 DIIS
   @DF-RKS iter   9:   -76.42504743736269   -1.15108e-12   3.78557e-09 DIIS
  Energy and wave function converged.


  ==> Post-Iterations <==

    Orbital Energies [Eh]
    ---------------------

    Doubly Occupied:                                                      

       1A1   -19.614735     2A1    -1.127968     1B1    -0.594616  
       3A1    -0.471567     1B2    -0.393952  

    Virtual:                                                              

       4A1     0.062019     2B1     0.127688     3B1     0.412500  
       5A1     0.471918     6A1     0.546897     2B2     0.643546  
       7A1     0.657891     4B1     0.668822     1A2     0.730049  
       3B2     0.809949     8A1     0.977482     5B1     1.059036  
       6B1     1.336084     9A1     1.370963     4B2     1.825852  
       2A2     1.834451     7B1     1.860611    10A1     1.941268  
      11A1     2.007488    12A1     2.282042     8B1     2.657829  
       5B2     3.045187    13A1     3.187176     3A2     3.297806  
       9B1     3.370848     6B2     3.435748    10B1     3.548941  
      14A1     3.587368     4A2     3.651039     7B2     3.694131  
      11B1     3.741221    15A1     3.841778     5A2     3.993813  
      16A1     4.024236    12B1     4.276338     8B2     4.321872  
      13B1     4.514508    17A1     4.759269    18A1     4.842986  
      14B1     5.103988     9B2     5.621604    19A1     6.126431  
      10B2     6.396824     6A2     6.412286    20A1     6.490819  
      15B1     6.516436    11B2     6.536172    21A1     6.691284  
       7A2     6.759843    22A1     6.934621    16B1     7.286105  
      17B1     7.677347    23A1    12.128252  

    Final Occupation by Irrep:
             A1    A2    B1    B2 
    DOCC [     3,    0,    1,    1 ]

  @DF-RKS Final Energy:   -76.42504743736269

   => Energetics <=

    Nuclear Repulsion Energy =              9.1475083496816936
    One-Electron Energy =                -123.0292390311988697
    Two-Electron Energy =                  41.9404675401041018
    DFT Exchange-Correlation Energy =      -4.4837842959496186
    Empirical Dispersion Energy =           0.0000000000000000
    VV10 Nonlocal Energy =                  0.0000000000000000
    Total Energy =                        -76.4250474373627071

Computation Completed


Properties will be evaluated at   0.000000,   0.000000,   0.000000 [a0]

Properties computed using the SCF density matrix

  Nuclear Dipole Moment: [e a0]
     X:     0.0000      Y:     0.0000      Z:     1.0109

  Electronic Dipole Moment: [e a0]
     X:     0.0000      Y:     0.0000      Z:    -0.2218

  Dipole Moment: [e a0]
     X:     0.0000      Y:     0.0000      Z:     0.7891     Total:     0.7891

  Dipole Moment: [D]
     X:     0.0000      Y:     0.0000      Z:     2.0058     Total:     2.0058


*** tstop() called on atlantis at Tue Apr 19 00:18:45 2022
Module time:
	user time   =       2.62 seconds =       0.04 minutes
	system time =       0.02 seconds =       0.00 minutes
	total time  =          3 seconds =       0.05 minutes
Total time:
	user time   =      17.53 seconds =       0.29 minutes
	system time =       0.16 seconds =       0.00 minutes
	total time  =         18 seconds =       0.30 minutes

*** tstart() called on atlantis
*** at Tue Apr 19 00:18:45 2022


         ------------------------------------------------------------
                                   SCF GRAD                          
                          Rob Parrish, Justin Turney,                
                       Andy Simmonett, and Alex Sokolov              
         ------------------------------------------------------------

  ==> Geometry <==

    Molecular point group: c2v
    Full point group: C2v

    Geometry (in Angstrom), charge = 0, multiplicity = 1:

       Center              X                  Y                   Z               Mass       
    ------------   -----------------  -----------------  -----------------  -----------------
         O            0.000000000000     0.000000000000    -0.067969259994    15.994914619570
         H            0.747166353368     0.000000000000     0.539360740006     1.007825032230
         H           -0.747166353368    -0.000000000000     0.539360740006     1.007825032230

  Nuclear repulsion =    9.147508349681694

  ==> Basis Set <==

  Basis Set: CC-PVTZ
    Blend: CC-PVTZ
    Number of shells: 22
    Number of basis function: 58
    Number of Cartesian functions: 65
    Spherical Harmonics?: true
    Max angular momentum: 3

  ==> DFJKGrad: Density-Fitted SCF Gradients <==

    Gradient:                    1
    J tasked:                  Yes
    K tasked:                  Yes
    wK tasked:                  No
    OpenMP threads:              1
    Integrals threads:           1
    Memory [MiB]:              375
    Schwarz Cutoff:          0E+00
    Fitting Condition:       1E-10

   => Auxiliary Basis Set <=

  Basis Set: (CC-PVTZ AUX)
    Blend: CC-PVTZ-JKFIT
    Number of shells: 45
    Number of basis function: 139
    Number of Cartesian functions: 166
    Spherical Harmonics?: true
    Max angular momentum: 4

  ==> DFT Potential <==

   => Composite Functional: M06-2X <= 

    Hybrid M06-2X Meta-GGA XC Functional

    Y. Zhao and D. G. Truhlar,  Theor. Chem. Acc., 120, 215, 2008


    Deriv               =              1
    GGA                 =           TRUE
    Meta                =           TRUE

    Exchange Hybrid     =           TRUE
    MP2 Hybrid          =          FALSE

   => Exchange Functionals <=

    1.0000   XC_HYB_MGGA_X_M06_2X

   => Exact (HF) Exchange <=

    0.5400               HF 

   => Correlation Functionals <=

    1.0000   XC_MGGA_C_M06_2X

   => Molecular Quadrature <=

    Radial Scheme          =       TREUTLER
    Pruning Scheme         =           FLAT
    Nuclear Scheme         =       TREUTLER

    BS radius alpha        =              1
    Pruning alpha          =              1
    Radial Points          =             75
    Spherical Points       =            302
    Total Points           =          66791
    Total Blocks           =            563
    Max Points             =            256
    Max Functions          =             58


  -Total Gradient:
     Atom            X                  Y                   Z
    ------   -----------------  -----------------  -----------------
       1        0.000000000000     0.000000000000    -0.009946161828
       2       -0.000915606063    -0.000000000000     0.004991896924
       3        0.000915606063     0.000000000000     0.004991896924


*** tstop() called on atlantis at Tue Apr 19 00:18:45 2022
Module time:
	user time   =       0.47 seconds =       0.01 minutes
	system time =       0.00 seconds =       0.00 minutes
	total time  =          0 seconds =       0.00 minutes
Total time:
	user time   =      18.00 seconds =       0.30 minutes
	system time =       0.16 seconds =       0.00 minutes
	total time  =         18 seconds =       0.30 minutes

  //>>>>>>>>>>>>>>>>>>>>>>>>>>>>>>>>>>>//
  //    Loading displacement 5 of 6    //
  //<<<<<<<<<<<<<<<<<<<<<<<<<<<<<<<<<<<//
gradient() will perform analytic gradient computation.

*** tstart() called on atlantis
*** at Tue Apr 19 00:18:45 2022

   => Loading Basis Set <=

    Name: CC-PVTZ
    Role: ORBITAL
    Keyword: BASIS
    atoms 1   entry O          line   262 file /home/akrom/software/anaconda3/envs/ffpenv/share/psi4/basis/cc-pvtz.gbs 
    atoms 2-3 entry H          line    23 file /home/akrom/software/anaconda3/envs/ffpenv/share/psi4/basis/cc-pvtz.gbs 


         ---------------------------------------------------------
                                   SCF
               by Justin Turney, Rob Parrish, Andy Simmonett
                          and Daniel G. A. Smith
                              RKS Reference
                        1 Threads,    500 MiB Core
         ---------------------------------------------------------

  ==> Geometry <==

    Molecular point group: c2v
    Full point group: C2v

    Geometry (in Angstrom), charge = 0, multiplicity = 1:

       Center              X                  Y                   Z               Mass       
    ------------   -----------------  -----------------  -----------------  -----------------
         O            0.000000000000     0.000000000000    -0.067969259994    15.994914619570
         H            0.750893646632     0.000000000000     0.539360740006     1.007825032230
         H           -0.750893646632    -0.000000000000     0.539360740006     1.007825032230

  Running in c2v symmetry.

  Rotational constants: A =     25.53156  B =     14.83285  C =      9.38217 [cm^-1]
  Rotational constants: A = 765416.81232  B = 444677.54885  C = 281270.35616 [MHz]
  Nuclear repulsion =    9.119389510013045

  Charge       = 0
  Multiplicity = 1
  Electrons    = 10
  Nalpha       = 5
  Nbeta        = 5

  ==> Algorithm <==

  SCF Algorithm Type is DF.
  DIIS enabled.
  MOM disabled.
  Fractional occupation disabled.
  Guess Type is SAD.
  Energy threshold   = 1.00e-08
  Density threshold  = 1.00e-08
  Integral threshold = 0.00e+00

  ==> Primary Basis <==

  Basis Set: CC-PVTZ
    Blend: CC-PVTZ
    Number of shells: 22
    Number of basis function: 58
    Number of Cartesian functions: 65
    Spherical Harmonics?: true
    Max angular momentum: 3

  ==> DFT Potential <==

   => Composite Functional: M06-2X <= 

    Hybrid M06-2X Meta-GGA XC Functional

    Y. Zhao and D. G. Truhlar,  Theor. Chem. Acc., 120, 215, 2008


    Deriv               =              1
    GGA                 =           TRUE
    Meta                =           TRUE

    Exchange Hybrid     =           TRUE
[...]
                                   SCF
               by Justin Turney, Rob Parrish, Andy Simmonett
                          and Daniel G. A. Smith
                              RKS Reference
                        1 Threads,    500 MiB Core
         ---------------------------------------------------------

  ==> Geometry <==

    Molecular point group: cs
    Full point group: Cs

    Geometry (in Angstrom), charge = 0, multiplicity = 1:

       Center              X                  Y                   Z               Mass       
    ------------   -----------------  -----------------  -----------------  -----------------
         O           -0.000175859669     0.000000000000    -0.067969259994    15.994914619570
         H            0.750425510279     0.000000000000     0.540492250436     1.007825032230
         H           -0.747634489721     0.000000000000     0.538229229576     1.007825032230

  Running in cs symmetry.

  Rotational constants: A =     25.53242  B =     14.90636  C =      9.41165 [cm^-1]
  Rotational constants: A = 765442.57583  B = 446881.53998  C = 282154.04824 [MHz]
  Nuclear repulsion =    9.133468287774228

  Charge       = 0
  Multiplicity = 1
  Electrons    = 10
  Nalpha       = 5
  Nbeta        = 5

  ==> Algorithm <==

  SCF Algorithm Type is DF.
  DIIS enabled.
  MOM disabled.
  Fractional occupation disabled.
  Guess Type is SAD.
  Energy threshold   = 1.00e-08
  Density threshold  = 1.00e-08
  Integral threshold = 0.00e+00

  ==> Primary Basis <==

  Basis Set: CC-PVTZ
    Blend: CC-PVTZ
    Number of shells: 22
    Number of basis function: 58
    Number of Cartesian functions: 65
    Spherical Harmonics?: true
    Max angular momentum: 3

  ==> DFT Potential <==

   => Composite Functional: M06-2X <= 

    Hybrid M06-2X Meta-GGA XC Functional

    Y. Zhao and D. G. Truhlar,  Theor. Chem. Acc., 120, 215, 2008


    Deriv               =              1
    GGA                 =           TRUE
    Meta                =           TRUE

    Exchange Hybrid     =           TRUE
    MP2 Hybrid          =          FALSE

   => Exchange Functionals <=

    1.0000   XC_HYB_MGGA_X_M06_2X

   => Exact (HF) Exchange <=

    0.5400               HF 

   => Correlation Functionals <=

    1.0000   XC_MGGA_C_M06_2X

   => Molecular Quadrature <=

    Radial Scheme          =       TREUTLER
    Pruning Scheme         =           FLAT
    Nuclear Scheme         =       TREUTLER

    BS radius alpha        =              1
    Pruning alpha          =              1
    Radial Points          =             75
    Spherical Points       =            302
    Total Points           =          66791
    Total Blocks           =            568
    Max Points             =            253
    Max Functions          =             58

   => Loading Basis Set <=

    Name: (CC-PVTZ AUX)
    Role: JKFIT
    Keyword: DF_BASIS_SCF
    atoms 1   entry O          line   229 file /home/akrom/software/anaconda3/envs/ffpenv/share/psi4/basis/cc-pvtz-jkfit.gbs 
    atoms 2-3 entry H          line    51 file /home/akrom/software/anaconda3/envs/ffpenv/share/psi4/basis/cc-pvtz-jkfit.gbs 

  ==> Pre-Iterations <==

   -------------------------------------------------------
    Irrep   Nso     Nmo     Nalpha   Nbeta   Ndocc  Nsocc
   -------------------------------------------------------
     A'        40      40       0       0       0       0
     A"        18      18       0       0       0       0
   -------------------------------------------------------
    Total      58      58       5       5       5       0
   -------------------------------------------------------

  ==> Integral Setup <==

  DFHelper Memory: AOs need 0.004 GiB; user supplied 0.104 GiB. Using in-core AOs.

  ==> MemDFJK: Density-Fitted J/K Matrices <==

    J tasked:                   Yes
    K tasked:                   Yes
    wK tasked:                   No
    OpenMP threads:               1
    Memory [MiB]:               106
    Algorithm:                 Core
    Schwarz Cutoff:           1E-12
    Mask sparsity (%):       0.0000
    Fitting Condition:        1E-10

   => Auxiliary Basis Set <=

  Basis Set: (CC-PVTZ AUX)
    Blend: CC-PVTZ-JKFIT
    Number of shells: 45
    Number of basis function: 139
    Number of Cartesian functions: 166
    Spherical Harmonics?: true
    Max angular momentum: 4

  Cached 100.0% of DFT collocation blocks in 0.263 [GiB].

  Minimum eigenvalue in the overlap matrix is 2.5814344762E-03.
  Using Symmetric Orthogonalization.

  SCF Guess: Superposition of Atomic Densities via on-the-fly atomic UHF.

  ==> Iterations <==

                           Total Energy        Delta E     RMS |[F,P]|

   @DF-RKS iter SAD:   -76.00147152682435   -7.60015e+01   0.00000e+00 
   @DF-RKS iter   1:   -76.30769637176603   -3.06225e-01   1.32045e-02 DIIS
   @DF-RKS iter   2:   -76.27617110103625    3.15253e-02   1.54206e-02 DIIS
   @DF-RKS iter   3:   -76.42495120243217   -1.48780e-01   3.28334e-04 DIIS
   @DF-RKS iter   4:   -76.42503674626479   -8.55438e-05   8.16972e-05 DIIS
   @DF-RKS iter   5:   -76.42504166305181   -4.91679e-06   1.54717e-05 DIIS
   @DF-RKS iter   6:   -76.42504186586190   -2.02810e-07   2.42574e-06 DIIS
   @DF-RKS iter   7:   -76.42504187632697   -1.04651e-08   1.96633e-07 DIIS
   @DF-RKS iter   8:   -76.42504187643429   -1.07320e-10   2.15928e-08 DIIS
   @DF-RKS iter   9:   -76.42504187643549   -1.19371e-12   3.34222e-09 DIIS
  Energy and wave function converged.


  ==> Post-Iterations <==

    Orbital Energies [Eh]
    ---------------------

    Doubly Occupied:                                                      

       1Ap   -19.614900     2Ap    -1.127204     3Ap    -0.594252  
       4Ap    -0.471115     1App   -0.393786  

    Virtual:                                                              

       5Ap     0.061849     6Ap     0.127474     7Ap     0.412047  
       8Ap     0.470607     9Ap     0.547153     2App    0.643502  
      10Ap     0.658290    11Ap     0.668704     3App    0.729464  
       4App    0.810405    12Ap     0.978309    13Ap     1.057813  
      14Ap     1.334945    15Ap     1.368776     5App    1.824551  
       6App    1.834241    16Ap     1.862563    17Ap     1.940746  
      18Ap     2.008220    19Ap     2.281550    20Ap     2.656217  
       7App    3.046538    21Ap     3.187302     8App    3.295718  
      22Ap     3.367999     9App    3.434926    23Ap     3.547146  
      24Ap     3.586214    10App    3.649353    11App    3.694083  
      25Ap     3.740437    26Ap     3.839952    12App    3.991968  
      27Ap     4.023271    28Ap     4.270540    13App    4.320797  
      29Ap     4.511725    30Ap     4.753747    31Ap     4.842369  
      32Ap     5.103321    14App    5.618505    33Ap     6.119779  
      15App    6.391579    16App    6.411139    34Ap     6.486008  
      35Ap     6.515709    17App    6.535085    36Ap     6.688735  
      18App    6.756822    37Ap     6.933809    38Ap     7.281986  
      39Ap     7.670401    40Ap    12.105743  

    Final Occupation by Irrep:
             Ap   App 
    DOCC [     4,    1 ]

  @DF-RKS Final Energy:   -76.42504187643549

   => Energetics <=

    Nuclear Repulsion Energy =              9.1334682877742281
    One-Electron Energy =                -123.0048221911082322
    Two-Electron Energy =                  41.9294955781746879
    DFT Exchange-Correlation Energy =      -4.4831835512761549
    Empirical Dispersion Energy =           0.0000000000000000
    VV10 Nonlocal Energy =                  0.0000000000000000
    Total Energy =                        -76.4250418764354862

Computation Completed


Properties will be evaluated at   0.000000,   0.000000,   0.000000 [a0]

Properties computed using the SCF density matrix

  Nuclear Dipole Moment: [e a0]
     X:     0.0026      Y:     0.0000      Z:     1.0109

  Electronic Dipole Moment: [e a0]
     X:    -0.0015      Y:     0.0000      Z:    -0.2222

  Dipole Moment: [e a0]
     X:     0.0012      Y:     0.0000      Z:     0.7887     Total:     0.7887

  Dipole Moment: [D]
     X:     0.0029      Y:     0.0000      Z:     2.0048     Total:     2.0048


*** tstop() called on atlantis at Tue Apr 19 00:18:51 2022
Module time:
	user time   =       2.63 seconds =       0.04 minutes
	system time =       0.01 seconds =       0.00 minutes
	total time  =          3 seconds =       0.05 minutes
Total time:
	user time   =      23.74 seconds =       0.40 minutes
	system time =       0.20 seconds =       0.00 minutes
	total time  =         24 seconds =       0.40 minutes

*** tstart() called on atlantis
*** at Tue Apr 19 00:18:51 2022


         ------------------------------------------------------------
                                   SCF GRAD                          
                          Rob Parrish, Justin Turney,                
                       Andy Simmonett, and Alex Sokolov              
         ------------------------------------------------------------

  ==> Geometry <==

    Molecular point group: cs
    Full point group: Cs

    Geometry (in Angstrom), charge = 0, multiplicity = 1:

       Center              X                  Y                   Z               Mass       
    ------------   -----------------  -----------------  -----------------  -----------------
         O           -0.000175859669     0.000000000000    -0.067969259994    15.994914619570
         H            0.750425510279     0.000000000000     0.540492250436     1.007825032230
         H           -0.747634489721     0.000000000000     0.538229229576     1.007825032230

  Nuclear repulsion =    9.133468287774228

  ==> Basis Set <==

  Basis Set: CC-PVTZ
    Blend: CC-PVTZ
    Number of shells: 22
    Number of basis function: 58
    Number of Cartesian functions: 65
    Spherical Harmonics?: true
    Max angular momentum: 3

  ==> DFJKGrad: Density-Fitted SCF Gradients <==

    Gradient:                    1
    J tasked:                  Yes
    K tasked:                  Yes
    wK tasked:                  No
    OpenMP threads:              1
    Integrals threads:           1
    Memory [MiB]:              375
    Schwarz Cutoff:          0E+00
    Fitting Condition:       1E-10

   => Auxiliary Basis Set <=

  Basis Set: (CC-PVTZ AUX)
    Blend: CC-PVTZ-JKFIT
    Number of shells: 45
    Number of basis function: 139
    Number of Cartesian functions: 166
    Spherical Harmonics?: true
    Max angular momentum: 4

  ==> DFT Potential <==

   => Composite Functional: M06-2X <= 

    Hybrid M06-2X Meta-GGA XC Functional

    Y. Zhao and D. G. Truhlar,  Theor. Chem. Acc., 120, 215, 2008


    Deriv               =              1
    GGA                 =           TRUE
    Meta                =           TRUE

    Exchange Hybrid     =           TRUE
    MP2 Hybrid          =          FALSE

   => Exchange Functionals <=

    1.0000   XC_HYB_MGGA_X_M06_2X

   => Exact (HF) Exchange <=

    0.5400               HF 

   => Correlation Functionals <=

    1.0000   XC_MGGA_C_M06_2X

   => Molecular Quadrature <=

    Radial Scheme          =       TREUTLER
    Pruning Scheme         =           FLAT
    Nuclear Scheme         =       TREUTLER

    BS radius alpha        =              1
    Pruning alpha          =              1
    Radial Points          =             75
    Spherical Points       =            302
    Total Points           =          66791
    Total Blocks           =            568
    Max Points             =            253
    Max Functions          =             58


  -Total Gradient:
     Atom            X                  Y                   Z
    ------   -----------------  -----------------  -----------------
       1       -0.003053226125     0.000000000000    -0.011367048851
       2        0.002005288497     0.000000000000     0.006929469475
       3        0.001056917041     0.000000000000     0.004473392855


*** tstop() called on atlantis at Tue Apr 19 00:18:52 2022
Module time:
	user time   =       0.47 seconds =       0.01 minutes
	system time =       0.00 seconds =       0.00 minutes
	total time  =          1 seconds =       0.02 minutes
Total time:
	user time   =      24.21 seconds =       0.40 minutes
	system time =       0.20 seconds =       0.00 minutes
	total time  =         25 seconds =       0.42 minutes

         ----------------------------------------------------------
                                   FINDIF
                     R. A. King and Jonathon Misiewicz
         ---------------------------------------------------------

  Computing second-derivative from gradients using projected, 
  symmetry-adapted, cartesian coordinates.

  6 gradients passed in, including the reference geometry.
  Generating complete list of displacements from unique ones.

    Operation 2 takes plus displacements of irrep B1 to minus ones.

-------------------------------------------------------------


  ==> Harmonic Vibrational Analysis <==

  non-mass-weighted Hessian:       Symmetric? True   Hermitian? True   Lin Dep Dim?  6 (0)
  projection of translations (True) and rotations (True) removed 6 degrees of freedom (6)
  total projector:                 Symmetric? True   Hermitian? True   Lin Dep Dim?  6 (6)
  mass-weighted Hessian:           Symmetric? True   Hermitian? True   Lin Dep Dim?  6 (0)
  pre-proj  low-frequency mode:    0.0000i [cm^-1]
  pre-proj  low-frequency mode:    0.0000i [cm^-1]
  pre-proj  low-frequency mode:    0.0000i [cm^-1]
  pre-proj  low-frequency mode:    0.0000  [cm^-1]
  pre-proj  low-frequency mode:    0.0000  [cm^-1]
  pre-proj  low-frequency mode:    0.0000  [cm^-1]
  pre-proj  all modes:['0.0001i' '0.0000i' '0.0000i' '0.0000' '0.0000' '0.0000' '1668.1940'
 '3815.3602' '3893.4638']
  projected mass-weighted Hessian: Symmetric? True   Hermitian? True   Lin Dep Dim?  6 (6)
  post-proj low-frequency mode:    0.0000i [cm^-1] (TR)
  post-proj low-frequency mode:    0.0000i [cm^-1] (TR)
  post-proj low-frequency mode:    0.0000i [cm^-1] (TR)
  post-proj low-frequency mode:    0.0000i [cm^-1] (TR)
  post-proj low-frequency mode:    0.0000  [cm^-1] (TR)
  post-proj low-frequency mode:    0.0000  [cm^-1] (TR)
  post-proj  all modes:['0.0000i' '0.0000i' '0.0000i' '0.0000i' '0.0000' '0.0000' '1668.1940'
 '3815.3602' '3893.4638']

  Vibration                       7                   8                   9           
  Freq [cm^-1]                1668.1940           3815.3602           3893.4638       
  Irrep                           A1                  A1                  B1          
  Reduced mass [u]              1.0810              1.0468              1.0793        
  Force const [mDyne/A]         1.7724              8.9779              9.6396        
  Turning point v=0 [a0]        0.2584              0.1736              0.1693        
  RMS dev v=0 [a0 u^1/2]        0.1900              0.1256              0.1243        
  Char temp [K]               2400.1598           5489.4539           5601.8275       
  ----------------------------------------------------------------------------------
      1   O               -0.00  0.00 -0.07    0.00 -0.00 -0.05   -0.07 -0.00 -0.00   
      2   H               -0.44 -0.00  0.55    0.58  0.00  0.40    0.55  0.00  0.44   
      3   H                0.44 -0.00  0.55   -0.58 -0.00  0.40    0.55 -0.00 -0.44   

  ==> Thermochemistry Components <==

  Entropy, S
    Electronic S            0.000 [cal/(mol K)]        0.000 [J/(mol K)]       0.00000000 [mEh/K] (multiplicity = 1)
    Translational S        34.608 [cal/(mol K)]      144.801 [J/(mol K)]       0.05515177 [mEh/K] (mol. weight = 18.0106 [u], P = 101325.00 [Pa])
    Rotational S           10.508 [cal/(mol K)]       43.968 [J/(mol K)]       0.01674635 [mEh/K] (symmetry no. = 2)
    Vibrational S           0.006 [cal/(mol K)]        0.024 [J/(mol K)]       0.00000915 [mEh/K]
  Total S                  45.122 [cal/(mol K)]      188.793 [J/(mol K)]       0.07190727 [mEh/K]
  Correction S              0.000 [cal/(mol K)]        0.000 [J/(mol K)]       0.00000000 [mEh/K]

  Constant volume heat capacity, Cv
    Electronic Cv           0.000 [cal/(mol K)]        0.000 [J/(mol K)]       0.00000000 [mEh/K]
    Translational Cv        2.981 [cal/(mol K)]       12.472 [J/(mol K)]       0.00475022 [mEh/K]
    Rotational Cv           2.981 [cal/(mol K)]       12.472 [J/(mol K)]       0.00475022 [mEh/K]
    Vibrational Cv          0.041 [cal/(mol K)]        0.172 [J/(mol K)]       0.00006554 [mEh/K]
  Total Cv                  6.003 [cal/(mol K)]       25.115 [J/(mol K)]       0.00956597 [mEh/K]
  Correction Cv             0.000 [cal/(mol K)]        0.000 [J/(mol K)]       0.00000000 [mEh/K]

  Constant pressure heat capacity, Cp
    Electronic Cp           0.000 [cal/(mol K)]        0.000 [J/(mol K)]       0.00000000 [mEh/K]
    Translational Cp        4.968 [cal/(mol K)]       20.786 [J/(mol K)]       0.00791703 [mEh/K]
    Rotational Cp           2.981 [cal/(mol K)]       12.472 [J/(mol K)]       0.00475022 [mEh/K]
    Vibrational Cp          0.041 [cal/(mol K)]        0.172 [J/(mol K)]       0.00006554 [mEh/K]
  Total Cp                  7.990 [cal/(mol K)]       33.430 [J/(mol K)]       0.01273278 [mEh/K]
  Correction Cp             0.000 [cal/(mol K)]        0.000 [J/(mol K)]       0.00000000 [mEh/K]

  ==> Thermochemistry Energy Analysis <==

  Raw electronic energy, E0
  Total E0, Electronic energy at well bottom at 0 [K]                  -76.42504901 [Eh]

  Zero-point energy, ZPE_vib = Sum_i nu_i / 2
    Electronic ZPE          0.000 [kcal/mol]        0.000 [kJ/mol]       0.00000000 [Eh]
    Translational ZPE       0.000 [kcal/mol]        0.000 [kJ/mol]       0.00000000 [Eh]
    Rotational ZPE          0.000 [kcal/mol]        0.000 [kJ/mol]       0.00000000 [Eh]
    Vibrational ZPE        13.405 [kcal/mol]       56.087 [kJ/mol]       0.02136242 [Eh]        4688.509 [cm^-1]
  Correction ZPE           13.405 [kcal/mol]       56.087 [kJ/mol]       0.02136242 [Eh]        4688.509 [cm^-1]
  Total ZPE, Electronic energy at 0 [K]                                -76.40368659 [Eh]

  Thermal Energy, E (includes ZPE)
    Electronic E            0.000 [kcal/mol]        0.000 [kJ/mol]       0.00000000 [Eh]
    Translational E         0.889 [kcal/mol]        3.718 [kJ/mol]       0.00141628 [Eh]
    Rotational E            0.889 [kcal/mol]        3.718 [kJ/mol]       0.00141628 [Eh]
    Vibrational E          13.407 [kcal/mol]       56.093 [kJ/mol]       0.02136484 [Eh]
  Correction E             15.184 [kcal/mol]       63.530 [kJ/mol]       0.02419740 [Eh]
  Total E, Electronic energy at  298.15 [K]                            -76.40085161 [Eh]

  Enthalpy, H_trans = E_trans + k_B * T
    Electronic H            0.000 [kcal/mol]        0.000 [kJ/mol]       0.00000000 [Eh]
    Translational H         1.481 [kcal/mol]        6.197 [kJ/mol]       0.00236046 [Eh]
    Rotational H            0.889 [kcal/mol]        3.718 [kJ/mol]       0.00141628 [Eh]
    Vibrational H          13.407 [kcal/mol]       56.093 [kJ/mol]       0.02136484 [Eh]
  Correction H             15.777 [kcal/mol]       66.009 [kJ/mol]       0.02514158 [Eh]
  Total H, Enthalpy at  298.15 [K]                                     -76.39990742 [Eh]

  Gibbs free energy, G = H - T * S
    Electronic G            0.000 [kcal/mol]        0.000 [kJ/mol]       0.00000000 [Eh]
    Translational G        -8.837 [kcal/mol]      -36.975 [kJ/mol]      -0.01408304 [Eh]
    Rotational G           -2.244 [kcal/mol]       -9.390 [kJ/mol]      -0.00357665 [Eh]
    Vibrational G          13.405 [kcal/mol]       56.086 [kJ/mol]       0.02136212 [Eh]
  Correction G              2.323 [kcal/mol]        9.721 [kJ/mol]       0.00370243 [Eh]
  Total G, Free enthalpy at  298.15 [K]                                -76.42134658 [Eh]

    Psi4 stopped on: Tuesday, 19 April 2022 12:18AM
    Psi4 wall time for execution: 0:00:24.65

*** Psi4 exiting successfully. Buy a developer a beer!
