
    -----------------------------------------------------------------------
          Psi4: An Open-Source Ab Initio Electronic Structure Package
                               Psi4 1.3.2 release

                         Git: Rev {HEAD} ecbda83 


    R. M. Parrish, L. A. Burns, D. G. A. Smith, A. C. Simmonett,
    A. E. DePrince III, E. G. Hohenstein, U. Bozkaya, A. Yu. Sokolov,
    R. Di Remigio, R. M. Richard, J. F. Gonthier, A. M. James,
    H. R. McAlexander, A. Kumar, M. Saitow, X. Wang, B. P. Pritchard,
    P. Verma, H. F. Schaefer III, K. Patkowski, R. A. King, E. F. Valeev,
    F. A. Evangelista, J. M. Turney, T. D. Crawford, and C. D. Sherrill,
    J. Chem. Theory Comput. 13(7) pp 3185--3197 (2017).
    (doi: 10.1021/acs.jctc.7b00174)


                         Additional Contributions by
    P. Kraus, H. Kruse, M. H. Lechner, M. C. Schieber, R. A. Shaw,
    A. Alenaizan, R. Galvelis, Z. L. Glick, S. Lehtola, and J. P. Misiewicz

    -----------------------------------------------------------------------


    Psi4 started on: Tuesday, 19 April 2022 12:20AM

    Process ID: 25390
    Host:       atlantis
    PSIDATADIR: /home/akrom/software/anaconda3/envs/ffpenv/share/psi4
    Memory:     500.0 MiB
    Threads:    1
    
  ==> Input File <==

--------------------------------------------------------------------------
set basis  aug-cc-pVTZ
molecule {
0 1
   O        0.00000        0.00000       -0.06797
   H        0.74903        0.00000        0.53936
   H       -0.74903        0.00000        0.53936
}
energy('CCSD')
frequencies('CCSD')


--------------------------------------------------------------------------

*** tstart() called on atlantis
*** at Tue Apr 19 00:20:04 2022

   => Loading Basis Set <=

    Name: AUG-CC-PVTZ
    Role: ORBITAL
    Keyword: BASIS
    atoms 1   entry O          line   327 file /home/akrom/software/anaconda3/envs/ffpenv/share/psi4/basis/aug-cc-pvtz.gbs 
    atoms 2-3 entry H          line    36 file /home/akrom/software/anaconda3/envs/ffpenv/share/psi4/basis/aug-cc-pvtz.gbs 


         ---------------------------------------------------------
                                   SCF
               by Justin Turney, Rob Parrish, Andy Simmonett
                          and Daniel G. A. Smith
                              RHF Reference
                        1 Threads,    500 MiB Core
         ---------------------------------------------------------

  ==> Geometry <==

    Molecular point group: c2v
    Full point group: C2v

    Geometry (in Angstrom), charge = 0, multiplicity = 1:

       Center              X                  Y                   Z               Mass       
    ------------   -----------------  -----------------  -----------------  -----------------
         O            0.000000000000     0.000000000000    -0.067969259994    15.994914619570
         H            0.749030000000     0.000000000000     0.539360740006     1.007825032230
         H           -0.749030000000    -0.000000000000     0.539360740006     1.007825032230

  Running in c2v symmetry.

  Rotational constants: A =     25.53156  B =     14.90675  C =      9.41168 [cm^-1]
  Rotational constants: A = 765416.81232  B = 446893.08836  C = 282155.15104 [MHz]
  Nuclear repulsion =    9.133433460995141

  Charge       = 0
  Multiplicity = 1
  Electrons    = 10
  Nalpha       = 5
  Nbeta        = 5

  ==> Algorithm <==

  SCF Algorithm Type is PK.
  DIIS enabled.
  MOM disabled.
  Fractional occupation disabled.
  Guess Type is SAD.
  Energy threshold   = 1.00e-08
  Density threshold  = 1.00e-08
  Integral threshold = 0.00e+00

  ==> Primary Basis <==

  Basis Set: AUG-CC-PVTZ
    Blend: AUG-CC-PVTZ
    Number of shells: 32
    Number of basis function: 92
    Number of Cartesian functions: 105
    Spherical Harmonics?: true
    Max angular momentum: 3

  ==> Pre-Iterations <==

   -------------------------------------------------------
    Irrep   Nso     Nmo     Nalpha   Nbeta   Ndocc  Nsocc
   -------------------------------------------------------
     A1        35      35       0       0       0       0
     A2        12      12       0       0       0       0
     B1        27      27       0       0       0       0
     B2        18      18       0       0       0       0
   -------------------------------------------------------
    Total      92      92       5       5       5       0
   -------------------------------------------------------

  ==> Integral Setup <==

  Using in-core PK algorithm.
   Calculation information:
      Number of atoms:                   3
      Number of AO shells:              32
      Number of primitives:             52
      Number of atomic orbitals:       105
      Number of basis functions:        92

      Integral cutoff                 1.00e-12
      Number of threads:                 1

  Performing in-core PK
  Using 18305562 doubles for integral storage.
  We computed 139656 shell quartets total.
  Whereas there are 139656 unique shell quartets.

  ==> DiskJK: Disk-Based J/K Matrices <==

    J tasked:                  Yes
    K tasked:                  Yes
    wK tasked:                  No
    Memory [MiB]:              375
    Schwarz Cutoff:          1E-12

    OpenMP threads:              1

  Minimum eigenvalue in the overlap matrix is 3.9492132475E-04.
  Using Symmetric Orthogonalization.

  SCF Guess: Superposition of Atomic Densities via on-the-fly atomic UHF.

  ==> Iterations <==

                        Total Energy        Delta E     RMS |[F,P]|

   @RHF iter SAD:   -75.47261599695014   -7.54726e+01   0.00000e+00 
   @RHF iter   1:   -75.97492164285563   -5.02306e-01   9.51206e-03 DIIS
   @RHF iter   2:   -76.02732280578749   -5.24012e-02   6.53521e-03 DIIS
   @RHF iter   3:   -76.05932168782476   -3.19989e-02   4.43669e-04 DIIS
   @RHF iter   4:   -76.05971468619663   -3.92998e-04   1.07453e-04 DIIS
   @RHF iter   5:   -76.05974007268955   -2.53865e-05   2.46609e-05 DIIS
   @RHF iter   6:   -76.05974217478128   -2.10209e-06   5.36062e-06 DIIS
   @RHF iter   7:   -76.05974228297649   -1.08195e-07   9.35147e-07 DIIS
   @RHF iter   8:   -76.05974228584456   -2.86808e-09   1.57184e-07 DIIS
   @RHF iter   9:   -76.05974228590760   -6.30394e-11   3.80438e-08 DIIS
   @RHF iter  10:   -76.05974228591141   -3.80851e-12   5.85301e-09 DIIS
  Energy and wave function converged.


  ==> Post-Iterations <==

    Orbital Energies [Eh]
    ---------------------

    Doubly Occupied:                                                      

       1A1   -20.569564     2A1    -1.351835     1B1    -0.708932  
       3A1    -0.588660     1B2    -0.510540  

    Virtual:                                                              

       4A1     0.029185     2B1     0.047819     5A1     0.135543  
       2B2     0.159283     6A1     0.175523     3B1     0.183630  
       4B1     0.226128     7A1     0.245084     1A2     0.266198  
       3B2     0.297627     8A1     0.308704     5B1     0.366059  
       9A1     0.436620     6B1     0.465335     7B1     0.597640  
      10A1     0.660398    11A1     0.706098     2A2     0.724451  
       4B2     0.731439    12A1     0.831782     5B2     0.848239  
      13A1     0.893755     8B1     0.911833     6B2     0.915634  
       3A2     0.922965     9B1     0.932483    14A1     0.956717  
      15A1     1.019233    10B1     1.041510     7B2     1.081111  
      11B1     1.106250     4A2     1.177439    16A1     1.184097  
      12B1     1.262613     5A2     1.508421    17A1     1.519658  
       8B2     1.575171    18A1     1.810027    13B1     1.836230  
      14B1     1.973658    19A1     2.118259     9B2     2.263814  
       6A2     2.314434    20A1     2.329809    21A1     2.417831  
      10B2     2.422182    15B1     2.444862    22A1     2.484222  
      16B1     2.674637    11B2     2.697113    23A1     2.774964  
      17B1     2.794880     7A2     2.882522    18B1     3.653953  
      24A1     3.718229     8A2     4.025871    12B2     4.077260  
      25A1     4.133245    19B1     4.254303    13B2     4.257823  
      26A1     4.360981     9A2     4.375119    14B2     4.404940  
      20B1     4.527225    27A1     4.730341    21B1     4.845418  
      10A2     5.133520    22B1     5.172898    23B1     5.220628  
      28A1     5.307722    15B2     5.520660    29A1     5.631210  
      30A1     6.191679    24B1     6.503543    16B2     6.707484  
      31A1     6.917174    17B2     7.124534    18B2     7.250953  
      25B1     7.254027    11A2     7.309984    32A1     7.347076  
      12A2     7.348346    33A1     7.516060    34A1     7.861406  
      26B1     7.928450    27B1     8.800172    35A1    15.607005  

    Final Occupation by Irrep:
             A1    A2    B1    B2 
    DOCC [     3,    0,    1,    1 ]

  @RHF Final Energy:   -76.05974228591141

   => Energetics <=

    Nuclear Repulsion Energy =              9.1334334609951409
    One-Electron Energy =                -122.9272902911825440
    Two-Electron Energy =                  37.7341145442759824
    Total Energy =                        -76.0597422859114261

Computation Completed


Properties will be evaluated at   0.000000,   0.000000,   0.000000 [a0]

Properties computed using the SCF density matrix

  Nuclear Dipole Moment: [e a0]
     X:     0.0000      Y:     0.0000      Z:     1.0109

  Electronic Dipole Moment: [e a0]
     X:     0.0000      Y:     0.0000      Z:    -0.2120

  Dipole Moment: [e a0]
     X:     0.0000      Y:     0.0000      Z:     0.7989     Total:     0.7989

  Dipole Moment: [D]
     X:     0.0000      Y:     0.0000      Z:     2.0306     Total:     2.0306


*** tstop() called on atlantis at Tue Apr 19 00:20:05 2022
Module time:
	user time   =       0.80 seconds =       0.01 minutes
	system time =       0.03 seconds =       0.00 minutes
	total time  =          1 seconds =       0.02 minutes
Total time:
	user time   =       0.80 seconds =       0.01 minutes
	system time =       0.03 seconds =       0.00 minutes
	total time  =          1 seconds =       0.02 minutes
 MINTS: Wrapper to libmints.
   by Justin Turney

   Calculation information:
      Number of threads:                 1
      Number of atoms:                   3
      Number of AO shells:              32
      Number of SO shells:              23
      Number of primitives:             52
      Number of atomic orbitals:       105
      Number of basis functions:        92

      Number of irreps:                  4
      Integral cutoff                 0.00e+00
      Number of functions per irrep: [  35   12   27   18 ]

 OEINTS: Overlap, kinetic, potential, dipole, and quadrupole integrals
         stored in file 35.

      Computing two-electron integrals...done
      Computed 2217317 non-zero two-electron integrals.
        Stored in file 33.


*** tstart() called on atlantis
*** at Tue Apr 19 00:20:05 2022


	Wfn Parameters:
	--------------------
	Wavefunction         = CCSD
	Number of irreps     = 4
	Number of MOs        = 92
	Number of active MOs = 92
	AO-Basis             = NONE
	Semicanonical        = false
	Reference            = RHF
	Print Level          = 1

	IRREP	# MOs	# FZDC	# DOCC	# SOCC	# VIRT	# FZVR
	-----	-----	------	------	------	------	------
	 A1	   35	    0	    3	    0	    32	    0
	 A2	   12	    0	    0	    0	    12	    0
	 B1	   27	    0	    1	    0	    26	    0
	 B2	   18	    0	    1	    0	    17	    0
	Transforming integrals...
	IWL integrals will be deleted.
	(OO|OO)...
	Presorting SO-basis two-electron integrals.
	Sorting File: SO Ints (nn|nn) nbuckets = 1
	Transforming the one-electron integrals and constructing Fock matrices
	Starting first half-transformation.
	Sorting half-transformed integrals.
	First half integral transformation complete.
	Starting second half-transformation.
	Two-electron integral transformation complete.
	(OO|OV)...
	Starting second half-transformation.
	Two-electron integral transformation complete.
	(OO|VV)...
	Starting second half-transformation.
	Two-electron integral transformation complete.
	(OV|OO)...
	Starting first half-transformation.
	Sorting half-transformed integrals.
	First half integral transformation complete.
	Starting second half-transformation.
	Two-electron integral transformation complete.
	(OV|OV)...
	Starting second half-transformation.
	Two-electron integral transformation complete.
	(OV|VV)...
	Starting second half-transformation.
	Two-electron integral transformation complete.
	(VV|OO)...
	Starting first half-transformation.
	Sorting half-transformed integrals.
	First half integral transformation complete.
	Starting second half-transformation.
	Two-electron integral transformation complete.
	(VV|OV)...
	Starting second half-transformation.
	Two-electron integral transformation complete.
	(VV|VV)...
	Starting second half-transformation.
	Two-electron integral transformation complete.
	Frozen core energy     =      0.00000000000000

	Size of irrep 0 of <ab|cd> integrals:      4.550 (MW) /     36.398 (MB)
	Size of irrep 1 of <ab|cd> integrals:      2.729 (MW) /     21.833 (MB)
	Size of irrep 2 of <ab|cd> integrals:      4.293 (MW) /     34.345 (MB)
	Size of irrep 3 of <ab|cd> integrals:      2.931 (MW) /     23.448 (MB)
	Total:                                    14.503 (MW) /    116.023 (MB)

	Size of irrep 0 of <ia|bc> integrals:      0.296 (MW) /      2.372 (MB)
	Size of irrep 1 of <ia|bc> integrals:      0.131 (MW) /      1.044 (MB)
	Size of irrep 2 of <ia|bc> integrals:      0.253 (MW) /      2.022 (MB)
	Size of irrep 3 of <ia|bc> integrals:      0.163 (MW) /      1.301 (MB)
	Total:                                     0.842 (MW) /      6.739 (MB)

	Size of irrep 0 of tijab amplitudes:       0.023 (MW) /      0.188 (MB)
	Size of irrep 1 of tijab amplitudes:       0.003 (MW) /      0.026 (MB)
	Size of irrep 2 of tijab amplitudes:       0.012 (MW) /      0.099 (MB)
	Size of irrep 3 of tijab amplitudes:       0.010 (MW) /      0.082 (MB)
	Total:                                     0.049 (MW) /      0.396 (MB)

	Nuclear Rep. energy          =      9.13343346099514
	SCF energy                   =    -76.05974228591141
	One-electron energy          =   -122.92728997460075
	Two-electron energy          =     37.73411422769413
	Reference energy             =    -76.05974228591150

*** tstop() called on atlantis at Tue Apr 19 00:20:06 2022
Module time:
	user time   =       0.64 seconds =       0.01 minutes
	system time =       0.24 seconds =       0.00 minutes
	total time  =          1 seconds =       0.02 minutes
Total time:
	user time   =       1.68 seconds =       0.03 minutes
	system time =       0.28 seconds =       0.00 minutes
	total time  =          2 seconds =       0.03 minutes
            **************************
            *                        *
            *        CCENERGY        *
            *                        *
            **************************

    Nuclear Rep. energy (wfn)     =    9.133433460995141
    SCF energy          (wfn)     =  -76.059742285911412
    Reference energy    (file100) =  -76.059742285911497

    Input parameters:
    -----------------
    Wave function   =     CCSD
    Reference wfn   =     RHF
    Brueckner       =     No
    Memory (Mbytes) =     524.3
    Maxiter         =     50
    R_Convergence   =     1.0e-07
    E_Convergence   =     1.0e-06
    Restart         =     Yes
    DIIS            =     Yes
    AO Basis        =     NONE
    ABCD            =     NEW
    Cache Level     =     2
    Cache Type      =     LOW
    Print Level     =     1
    Num. of threads =     1
    # Amps to Print =     10
    Print MP2 Amps? =     No
    Analyze T2 Amps =     No
    Print Pair Ener =     No
    Local CC        =     No
    SCS-MP2         =     False
    SCSN-MP2        =     False
    SCS-CCSD        =     False

MP2 correlation energy -0.2842431148418876
                Solving CC Amplitude Equations
                ------------------------------
  Iter             Energy              RMS        T1Diag      D1Diag    New D1Diag    D2Diag
  ----     ---------------------    ---------   ----------  ----------  ----------   --------
     0        -0.284243114841888    0.000e+00    0.000000    0.000000    0.000000    0.118405
     1        -0.282456467849715    3.564e-02    0.007649    0.017263    0.017263    0.120966
     2        -0.287528204131240    1.256e-02    0.007500    0.017080    0.017080    0.125485
     3        -0.288882928059287    4.906e-03    0.008705    0.020371    0.020371    0.127661
     4        -0.288745107673903    1.038e-03    0.008862    0.020844    0.020844    0.127837
     5        -0.288759790563913    3.756e-04    0.008948    0.021145    0.021145    0.127892
     6        -0.288765263436692    9.221e-05    0.008969    0.021226    0.021226    0.127887
     7        -0.288763122995481    3.082e-05    0.008973    0.021244    0.021244    0.127878
     8        -0.288762779083914    8.482e-06    0.008974    0.021250    0.021250    0.127877
     9        -0.288762848534608    2.611e-06    0.008974    0.021252    0.021252    0.127877
    10        -0.288762684605649    9.706e-07    0.008975    0.021252    0.021252    0.127877
    11        -0.288762702947930    2.971e-07    0.008975    0.021252    0.021252    0.127877
    12        -0.288762695458094    1.230e-07    0.008975    0.021252    0.021252    0.127877
    13        -0.288762695884536    4.009e-08    0.008974    0.021252    0.021252    0.127877

    Iterations converged.


    Largest TIA Amplitudes:
              4  70        -0.0149654579
              4  71        -0.0130013090
              2   1         0.0081422334
              2   4        -0.0075112396
              3  56         0.0055488802
              4  80         0.0044075118
              3  52         0.0039996168
              3  63         0.0037495890
              4  72         0.0034941251
              4  73        -0.0034884176

    Largest TIjAb Amplitudes:
      3   3  48  48        -0.0222168113
      2   2   9   9        -0.0194023872
      4   4  75  75        -0.0157995205
      3   3  48  52        -0.0157922704
      3   3  52  48        -0.0157922704
      3   3  49  49        -0.0148805205
      2   2  49  49        -0.0136543924
      4   4  74  74        -0.0132342330
      3   3  52  52        -0.0131781028
      2   3   9  48         0.0127708184

    SCF energy       (wfn)                    =  -76.059742285911412
    Reference energy (file100)                =  -76.059742285911497

    Opposite-spin MP2 correlation energy      =   -0.215741455468280
    Same-spin MP2 correlation energy          =   -0.068501659373608
    MP2 correlation energy                    =   -0.284243114841888
      * MP2 total energy                      =  -76.343985400753382

    Opposite-spin CCSD correlation energy     =   -0.227749069924393
    Same-spin CCSD correlation energy         =   -0.061013625960143
    CCSD correlation energy                   =   -0.288762695884536
      * CCSD total energy                     =  -76.348504981796026

gradient() will perform analytic gradient computation.

*** tstart() called on atlantis
*** at Tue Apr 19 00:20:07 2022

   => Loading Basis Set <=

    Name: AUG-CC-PVTZ
    Role: ORBITAL
    Keyword: BASIS
    atoms 1   entry O          line   327 file /home/akrom/software/anaconda3/envs/ffpenv/share/psi4/basis/aug-cc-pvtz.gbs 
    atoms 2-3 entry H          line    36 file /home/akrom/software/anaconda3/envs/ffpenv/share/psi4/basis/aug-cc-pvtz.gbs 


         ---------------------------------------------------------
                                   SCF
               by Justin Turney, Rob Parrish, Andy Simmonett
                          and Daniel G. A. Smith
                              RHF Reference
                        1 Threads,    500 MiB Core
         ---------------------------------------------------------

  ==> Geometry <==

    Molecular point group: c2v
    Full point group: C2v

    Geometry (in Angstrom), charge = 0, multiplicity = 1:

       Center              X                  Y                   Z               Mass       
    ------------   -----------------  -----------------  -----------------  -----------------
         O            0.000000000000     0.000000000000    -0.067969259994    15.994914619570
         H            0.749030000000     0.000000000000     0.539360740006     1.007825032230
         H           -0.749030000000    -0.000000000000     0.539360740006     1.007825032230

  Running in c2v symmetry.

  Rotational constants: A =     25.53156  B =     14.90675  C =      9.41168 [cm^-1]
  Rotational constants: A = 765416.81232  B = 446893.08836  C = 282155.15104 [MHz]
  Nuclear repulsion =    9.133433460995141

  Charge       = 0
  Multiplicity = 1
  Electrons    = 10
  Nalpha       = 5
  Nbeta        = 5

  ==> Algorithm <==

  SCF Algorithm Type is PK.
  DIIS enabled.
  MOM disabled.
  Fractional occupation disabled.
  Guess Type is SAD.
  Energy threshold   = 1.00e-10
  Density threshold  = 1.00e-10
  Integral threshold = 0.00e+00

  ==> Primary Basis <==

  Basis Set: AUG-CC-PVTZ
    Blend: AUG-CC-PVTZ
    Number of shells: 32
    Number of basis function: 92
    Number of Cartesian functions: 105
    Spherical Harmonics?: true
    Max angular momentum: 3

  ==> Pre-Iterations <==

   -------------------------------------------------------
    Irrep   Nso     Nmo     Nalpha   Nbeta   Ndocc  Nsocc
   -------------------------------------------------------
     A1        35      35       0       0       0       0
     A2        12      12       0       0       0       0
     B1        27      27       0       0       0       0
     B2        18      18       0       0       0       0
   -------------------------------------------------------
    Total      92      92       5       5       5       0
   -------------------------------------------------------

  ==> Integral Setup <==

  Using in-core PK algorithm.
   Calculation information:
      Number of atoms:                   3
      Number of AO shells:              32
      Number of primitives:             52
      Number of atomic orbitals:       105
      Number of basis functions:        92

      Integral cutoff                 1.00e-12
      Number of threads:                 1

  Performing in-core PK
  Using 18305562 doubles for integral storage.
  We computed 139656 shell quartets total.
  Whereas there are 139656 unique shell quartets.

  ==> DiskJK: Disk-Based J/K Matrices <==

    J tasked:                  Yes
    K tasked:                  Yes
    wK tasked:                  No
    Memory [MiB]:              375
    Schwarz Cutoff:          1E-12

    OpenMP threads:              1

  Minimum eigenvalue in the overlap matrix is 3.9492132475E-04.
  Using Symmetric Orthogonalization.

  SCF Guess: Superposition of Atomic Densities via on-the-fly atomic UHF.

  ==> Iterations <==

                        Total Energy        Delta E     RMS |[F,P]|

   @RHF iter SAD:   -75.47261599695014   -7.54726e+01   0.00000e+00 
   @RHF iter   1:   -75.97492164285563   -5.02306e-01   9.51206e-03 DIIS
   @RHF iter   2:   -76.02732280578749   -5.24012e-02   6.53521e-03 DIIS
   @RHF iter   3:   -76.05932168782476   -3.19989e-02   4.43669e-04 DIIS
   @RHF iter   4:   -76.05971468619663   -3.92998e-04   1.07453e-04 DIIS
   @RHF iter   5:   -76.05974007268955   -2.53865e-05   2.46609e-05 DIIS
   @RHF iter   6:   -76.05974217478128   -2.10209e-06   5.36062e-06 DIIS
   @RHF iter   7:   -76.05974228297649   -1.08195e-07   9.35147e-07 DIIS
   @RHF iter   8:   -76.05974228584456   -2.86808e-09   1.57184e-07 DIIS
   @RHF iter   9:   -76.05974228590760   -6.30394e-11   3.80438e-08 DIIS
   @RHF iter  10:   -76.05974228591141   -3.80851e-12   5.85301e-09 DIIS
   @RHF iter  11:   -76.05974228591144   -2.84217e-14   8.84385e-10 DIIS
   @RHF iter  12:   -76.05974228591161   -1.70530e-13   1.53844e-10 DIIS
   @RHF iter  13:   -76.05974228591144    1.70530e-13   2.24610e-11 DIIS
  Energy and wave function converged.


  ==> Post-Iterations <==

    Orbital Energies [Eh]
    ---------------------

    Doubly Occupied:                                                      

       1A1   -20.569564     2A1    -1.351835     1B1    -0.708932  
       3A1    -0.588660     1B2    -0.510540  

    Virtual:                                                              

       4A1     0.029185     2B1     0.047819     5A1     0.135543  
       2B2     0.159283     6A1     0.175523     3B1     0.183630  
       4B1     0.226128     7A1     0.245084     1A2     0.266198  
       3B2     0.297627     8A1     0.308704     5B1     0.366059  
       9A1     0.436620     6B1     0.465335     7B1     0.597640  
      10A1     0.660398    11A1     0.706098     2A2     0.724451  
       4B2     0.731439    12A1     0.831782     5B2     0.848239  
      13A1     0.893755     8B1     0.911833     6B2     0.915634  
       3A2     0.922965     9B1     0.932483    14A1     0.956717  
      15A1     1.019233    10B1     1.041510     7B2     1.081111  
      11B1     1.106250     4A2     1.177439    16A1     1.184097  
      12B1     1.262613     5A2     1.508421    17A1     1.519658  
       8B2     1.575171    18A1     1.810027    13B1     1.836230  
      14B1     1.973658    19A1     2.118259     9B2     2.263814  
       6A2     2.314434    20A1     2.329809    21A1     2.417831  
      10B2     2.422182    15B1     2.444862    22A1     2.484222  
      16B1     2.674637    11B2     2.697113    23A1     2.774964  
      17B1     2.794880     7A2     2.882522    18B1     3.653953  
      24A1     3.718229     8A2     4.025871    12B2     4.077260  
      25A1     4.133245    19B1     4.254303    13B2     4.257823  
      26A1     4.360981     9A2     4.375119    14B2     4.404940  
      20B1     4.527225    27A1     4.730341    21B1     4.845418  
      10A2     5.133520    22B1     5.172898    23B1     5.220628  
      28A1     5.307722    15B2     5.520660    29A1     5.631210  
      30A1     6.191679    24B1     6.503543    16B2     6.707484  
      31A1     6.917174    17B2     7.124534    18B2     7.250953  
      25B1     7.254027    11A2     7.309984    32A1     7.347076  
      12A2     7.348346    33A1     7.516060    34A1     7.861406  
      26B1     7.928450    27B1     8.800172    35A1    15.607005  

    Final Occupation by Irrep:
             A1    A2    B1    B2 
    DOCC [     3,    0,    1,    1 ]

  @RHF Final Energy:   -76.05974228591144

   => Energetics <=

    Nuclear Repulsion Energy =              9.1334334609951409
    One-Electron Energy =                -122.9272899599903468
    Two-Electron Energy =                  37.7341142130837710
    Total Energy =                        -76.0597422859114403

Computation Completed


Properties will be evaluated at   0.000000,   0.000000,   0.000000 [a0]

Properties computed using the SCF density matrix

  Nuclear Dipole Moment: [e a0]
     X:     0.0000      Y:     0.0000      Z:     1.0109

  Electronic Dipole Moment: [e a0]
     X:     0.0000      Y:     0.0000      Z:    -0.2120

  Dipole Moment: [e a0]
     X:     0.0000      Y:     0.0000      Z:     0.7989     Total:     0.7989

  Dipole Moment: [D]
     X:     0.0000      Y:     0.0000      Z:     2.0306     Total:     2.0306


*** tstop() called on atlantis at Tue Apr 19 00:20:07 2022
Module time:
	user time   =       0.83 seconds =       0.01 minutes
	system time =       0.03 seconds =       0.00 minutes
	total time  =          0 seconds =       0.00 minutes
Total time:
	user time   =       2.82 seconds =       0.05 minutes
	system time =       0.59 seconds =       0.01 minutes
	total time  =          3 seconds =       0.05 minutes
 MINTS: Wrapper to libmints.
   by Justin Turney

   Calculation information:
      Number of threads:                 1
      Number of atoms:                   3
      Number of AO shells:              32
      Number of SO shells:              23
      Number of primitives:             52
      Number of atomic orbitals:       105
      Number of basis functions:        92

      Number of irreps:                  4
      Integral cutoff                 0.00e+00
      Number of functions per irrep: [  35   12   27   18 ]

 OEINTS: Overlap, kinetic, potential, dipole, and quadrupole integrals
         stored in file 35.

      Computing two-electron integrals...done
      Computed 2217317 non-zero two-electron integrals.
        Stored in file 33.


*** tstart() called on atlantis
*** at Tue Apr 19 00:20:08 2022


	Wfn Parameters:
	--------------------
	Wavefunction         = CCSD
	Number of irreps     = 4
	Number of MOs        = 92
	Number of active MOs = 92
	AO-Basis             = NONE
	Semicanonical        = false
	Reference            = RHF
	Print Level          = 1

	IRREP	# MOs	# FZDC	# DOCC	# SOCC	# VIRT	# FZVR
	-----	-----	------	------	------	------	------
	 A1	   35	    0	    3	    0	    32	    0
	 A2	   12	    0	    0	    0	    12	    0
	 B1	   27	    0	    1	    0	    26	    0
	 B2	   18	    0	    1	    0	    17	    0
	Transforming integrals...
	IWL integrals will be deleted.
	(OO|OO)...
	Presorting SO-basis two-electron integrals.
	Sorting File: SO Ints (nn|nn) nbuckets = 1
	Transforming the one-electron integrals and constructing Fock matrices
	Starting first half-transformation.
	Sorting half-transformed integrals.
	First half integral transformation complete.
	Starting second half-transformation.
	Two-electron integral transformation complete.
	(OO|OV)...
	Starting second half-transformation.
	Two-electron integral transformation complete.
	(OO|VV)...
	Starting second half-transformation.
	Two-electron integral transformation complete.
	(OV|OO)...
	Starting first half-transformation.
	Sorting half-transformed integrals.
	First half integral transformation complete.
	Starting second half-transformation.
	Two-electron integral transformation complete.
	(OV|OV)...
	Starting second half-transformation.
	Two-electron integral transformation complete.
	(OV|VV)...
	Starting second half-transformation.
	Two-electron integral transformation complete.
	(VV|OO)...
	Starting first half-transformation.
	Sorting half-transformed integrals.
	First half integral transformation complete.
	Starting second half-transformation.
	Two-electron integral transformation complete.
	(VV|OV)...
	Starting second half-transformation.
	Two-electron integral transformation complete.
	(VV|VV)...
	Starting second half-transformation.
	Two-electron integral transformation complete.
	Frozen core energy     =      0.00000000000000

	Size of irrep 0 of <ab|cd> integrals:      4.550 (MW) /     36.398 (MB)
	Size of irrep 1 of <ab|cd> integrals:      2.729 (MW) /     21.833 (MB)
	Size of irrep 2 of <ab|cd> integrals:      4.293 (MW) /     34.345 (MB)
	Size of irrep 3 of <ab|cd> integrals:      2.931 (MW) /     23.448 (MB)
	Total:                                    14.503 (MW) /    116.023 (MB)

	Size of irrep 0 of <ia|bc> integrals:      0.296 (MW) /      2.372 (MB)
	Size of irrep 1 of <ia|bc> integrals:      0.131 (MW) /      1.044 (MB)
	Size of irrep 2 of <ia|bc> integrals:      0.253 (MW) /      2.022 (MB)
	Size of irrep 3 of <ia|bc> integrals:      0.163 (MW) /      1.301 (MB)
	Total:                                     0.842 (MW) /      6.739 (MB)

	Size of irrep 0 of tijab amplitudes:       0.023 (MW) /      0.188 (MB)
	Size of irrep 1 of tijab amplitudes:       0.003 (MW) /      0.026 (MB)
	Size of irrep 2 of tijab amplitudes:       0.012 (MW) /      0.099 (MB)
	Size of irrep 3 of tijab amplitudes:       0.010 (MW) /      0.082 (MB)
	Total:                                     0.049 (MW) /      0.396 (MB)

	Nuclear Rep. energy          =      9.13343346099514
	SCF energy                   =    -76.05974228591144
	One-electron energy          =   -122.92728996130262
	Two-electron energy          =     37.73411421439597
	Reference energy             =    -76.05974228591153

*** tstop() called on atlantis at Tue Apr 19 00:20:09 2022
Module time:
	user time   =       0.62 seconds =       0.01 minutes
	system time =       0.25 seconds =       0.00 minutes
	total time  =          1 seconds =       0.02 minutes
Total time:
	user time   =       3.67 seconds =       0.06 minutes
	system time =       0.85 seconds =       0.01 minutes
	total time  =          5 seconds =       0.08 minutes
            **************************
            *                        *
            *        CCENERGY        *
            *                        *
            **************************

    Nuclear Rep. energy (wfn)     =    9.133433460995141
    SCF energy          (wfn)     =  -76.059742285911440
    Reference energy    (file100) =  -76.059742285911526

    Input parameters:
    -----------------
    Wave function   =     CCSD
    Reference wfn   =     RHF
    Brueckner       =     No
    Memory (Mbytes) =     524.3
    Maxiter         =     50
    R_Convergence   =     1.0e-07
    E_Convergence   =     1.0e-08
    Restart         =     Yes
    DIIS            =     Yes
    AO Basis        =     NONE
    ABCD            =     NEW
    Cache Level     =     2
    Cache Type      =     LOW
    Print Level     =     1
    Num. of threads =     1
    # Amps to Print =     10
    Print MP2 Amps? =     No
    Analyze T2 Amps =     No
    Print Pair Ener =     No
    Local CC        =     No
    SCS-MP2         =     False
    SCSN-MP2        =     False
    SCS-CCSD        =     False

    Using old T1 amplitudes.
    Using old T2 amplitudes.

MP2 correlation energy -0.2842431150497152
                Solving CC Amplitude Equations
                ------------------------------
  Iter             Energy              RMS        T1Diag      D1Diag    New D1Diag    D2Diag
  ----     ---------------------    ---------   ----------  ----------  ----------   --------
     0        -0.288762695934944    0.000e+00    0.008974    0.021252    0.021252    0.127877
     1        -0.288762696299066    2.468e-08    0.008974    0.021252    0.021252    0.127877
     2        -0.288762696360152    1.456e-08    0.008974    0.021252    0.021252    0.127877

    Iterations converged.


    Largest TIA Amplitudes:
              4  70        -0.0149654464
              4  71        -0.0130013026
              2   1         0.0081422432
              2   4        -0.0075112422
              3  56         0.0055488798
              4  80         0.0044075117
              3  52         0.0039996155
              3  63         0.0037495888
              4  72         0.0034941238
              4  73        -0.0034884156

    Largest TIjAb Amplitudes:
      3   3  48  48        -0.0222168119
      2   2   9   9        -0.0194023869
      4   4  75  75        -0.0157995206
      3   3  48  52        -0.0157922706
      3   3  52  48        -0.0157922706
      3   3  49  49        -0.0148805203
      2   2  49  49        -0.0136543925
      4   4  74  74        -0.0132342331
      3   3  52  52        -0.0131781025
      2   3   9  48         0.0127708186

    SCF energy       (wfn)                    =  -76.059742285911440
    Reference energy (file100)                =  -76.059742285911526

    Opposite-spin MP2 correlation energy      =   -0.215741455655637
    Same-spin MP2 correlation energy          =   -0.068501659394078
    MP2 correlation energy                    =   -0.284243115049715
      * MP2 total energy                      =  -76.343985400961245

    Opposite-spin CCSD correlation energy     =   -0.227749070926695
    Same-spin CCSD correlation energy         =   -0.061013625433457
    CCSD correlation energy                   =   -0.288762696360152
      * CCSD total energy                     =  -76.348504982271677


			**************************
			*                        *
			*         CCHBAR         *
			*                        *
			**************************


			**************************
			*        CCLAMBDA        *
			**************************


	Nuclear Rep. energy (wfn)     =    9.133433460995141
	Reference           (wfn)     =                    0
	SCF energy          (wfn)     =  -76.059742285911440
	Reference energy    (CC_INFO) =  -76.059742285911526
	CCSD energy         (CC_INFO) =   -0.288762696360152
	Total CCSD energy   (CC_INFO) =  -76.348504982271677

	Input parameters:
	-----------------
	Maxiter           =     50
	Convergence       = 1.0e-07
	Restart           =     No
	Cache Level       =     2
	Model III         =     No
	DIIS              =     Yes
	AO Basis          =     No
	ABCD              =     NEW
	Local CC          =     No
	Parameters for left-handed eigenvectors:
	    Irr   Root  Ground-State?    EOM energy        R0
	  1   0     0        Yes       0.0000000000   1.0000000000
	Labels for eigenvector 1:
	LIA 0 -1, Lia 0 -1, LIJAB 0 -1, Lijab 0 -1, LIjAb 0 -1, 2LIjAb - LIjbA 0 -1
	Symmetry of left-hand state: A1
	Symmetry of left-hand eigenvector: A1

	          Solving Lambda Equations
	          ------------------------
	Iter     PseudoEnergy or Norm         RMS  
	----     ---------------------     --------
	   0        -0.288806961935963    0.000e+00
	   1        -0.283649061995436    1.155e-02
	   2        -0.282982263894781    2.445e-03
	   3        -0.282860702284033    1.429e-03
	   4        -0.282858235859290    3.790e-04
	   5        -0.282866434491034    9.414e-05
	   6        -0.282866109541352    2.719e-05
	   7        -0.282865694004514    8.203e-06
	   8        -0.282865759391386    2.316e-06
	   9        -0.282865781952754    7.507e-07
	  10        -0.282865780860689    2.792e-07
	  11        -0.282865776848538    9.298e-08

	Largest LIA Amplitudes:
	          4  70        -0.0098312113
	          4  71        -0.0085638222
	          2   1         0.0045284328
	          2   4        -0.0044771568
	          3  56         0.0044575120
	          3  52         0.0035968844
	          4  80         0.0032494361
	          3  63         0.0029656119
	          2  15        -0.0027274989
	          2  23         0.0025967745

	Largest LIjAb Amplitudes:
	  3   3  48  48        -0.0217233237
	  2   2   9   9        -0.0190947684
	  4   4  75  75        -0.0155298922
	  3   3  48  52        -0.0155131953
	  3   3  52  48        -0.0155131953
	  3   3  49  49        -0.0144552639
	  2   2  49  49        -0.0132125931
	  4   4  74  74        -0.0130446275
	  3   3  52  52        -0.0129479007
	  2   3   9  48         0.0125487561

	Iterations converged.

	Overlap <L|e^T> =        0.93277608970

			**************************
			*                        *
			*        CCDENSITY       *
			*                        *
			**************************


	Input parameters:
	-----------------
	Wave function    =   CCSD
	Reference wfn    =   RHF
	Dertype          = 1
	Tolerance        = 1.0e-14
	Cache Level      = 2
	AO Basis         = No
	OPDM Only        = No
	Relax OPDM       = Yes
	Compute Xi       = No
	Use Zeta         = No
	Xi connected     = Yes
	Compute NO       = No

	Nuclear Rep. energy (wfn)     =    9.133433460995141
	SCF energy          (wfn)     =  -76.059742285911440
	Reference energy    (file100) =  -76.059742285911526
	CCSD energy         (CC_INFO) =   -0.288762696360152
	Total CCSD energy   (CC_INFO) =  -76.348504982271677
	Number of States = 1

	Ground?  State     EOM Energy       R0
	  Yes     0 A1    0.0000000000   1.00000000

	Virial Theorem Data:
	--------------------
	Kinetic energy (ref)   =   75.935421047173264
	Kinetic energy (corr)  =    0.271562002621005
	Kinetic energy (total) =   76.206983049794275
	-V/T (ref)             =    2.001637196936869
	-V/T (corr)            =    2.063339839790297
	-V/T (total)           =    2.001857073024200
  Cartesian Displacement SALCs
  By SALC:
  Number of SALCs: 3, nirreps: A1
  Project out translations: False
  Project out rotations: False
	irrep = 0, ncomponent = 1
		0: atom 0, direction z, coef 1.000000
	irrep = 0, ncomponent = 2
		0: atom 1, direction x, coef 0.707107
		1: atom 2, direction x, coef -0.707107
	irrep = 0, ncomponent = 2
		0: atom 1, direction z, coef 0.707107
		1: atom 2, direction z, coef 0.707107

  By Atomic Center:
  Number of atomic centers: 3
   Atomic Center 0:
	x component, size = 0
	y component, size = 0
	z component, size = 1
		0: salc 0, irrep 0, coef 1.000000
   Atomic Center 1:
	x component, size = 1
		0: salc 1, irrep 0, coef 0.707107
	y component, size = 0
	z component, size = 1
		0: salc 2, irrep 0, coef 0.707107
   Atomic Center 2:
	x component, size = 1
		0: salc 1, irrep 0, coef -0.707107
	y component, size = 0
	z component, size = 1
		0: salc 2, irrep 0, coef 0.707107

    Molecular point group: c2v
    Full point group: C2v

    Geometry (in Bohr), charge = 0, multiplicity = 1:

       Center              X                  Y                   Z       
    ------------   -----------------  -----------------  -----------------
         O            0.000000000000     0.000000000000    -0.128443286339
         H            1.415461559752     0.000000000000     1.019244081436
         H           -1.415461559752    -0.000000000000     1.019244081436

	Presorting MO-basis TPDM.
	Sorting File: MO TPDM (AA|AA) nbuckets = 1
	Starting first half-transformation.
	Sorting half-transformed TPDM.
	First half integral transformation complete.


  -Nuclear Repulsion Energy 1st Derivatives:
     Atom            X                  Y                   Z
    ------   -----------------  -----------------  -----------------
       1        0.000000000000     0.000000000000     3.034559410088
       2       -1.996065495508    -0.000000000000    -1.517279705044
       3        1.996065495508     0.000000000000    -1.517279705044


  -Core Hamiltonian Gradient:
     Atom            X                  Y                   Z
    ------   -----------------  -----------------  -----------------
       1        0.000000000000    -0.000000000000    -6.110333696619
       2        4.415931541743     0.000000000000     3.055166848309
       3       -4.415931541743    -0.000000000000     3.055166848309


  -Lagrangian contribution to gradient:
     Atom            X                  Y                   Z
    ------   -----------------  -----------------  -----------------
       1        0.000000000000     0.000000000000     0.315031754755
       2       -0.234798076124    -0.000000000000    -0.157515877378
       3        0.234798076124     0.000000000000    -0.157515877378


  -Two-electron contribution to gradient:
     Atom            X                  Y                   Z
    ------   -----------------  -----------------  -----------------
       1        0.000000000000     0.000000000000     2.746455260060
       2       -2.182066476517    -0.000000000000    -1.373227630030
       3        2.182066476517     0.000000000000    -1.373227630030


  -Total gradient:
     Atom            X                  Y                   Z
    ------   -----------------  -----------------  -----------------
       1        0.000000000000    -0.000000000000    -0.014287271715
       2        0.003001493595     0.000000000000     0.007143635858
       3       -0.003001493595    -0.000000000000     0.007143635858


  Based on options and gradient (rms=6.00E-03), recommend projecting translations and projecting rotations.
hessian() will perform frequency computation by finite difference of analytic gradients.

         ----------------------------------------------------------
                                   FINDIF
                     R. A. King and Jonathon Misiewicz
         ---------------------------------------------------------

  Using finite-differences of gradients to determine vibrational frequencies and 
  normal modes.  Resulting frequencies are only valid at stationary points.
    Generating geometries for use with 3-point formula.
    Displacement size will be 5.00e-03.
    Number of atoms is 3.
    Number of irreps is 4.
    Number of SALCs is 3.
    Translations projected? 1. Rotations projected? 1.
    Index of SALCs per irrep:
     1 :  0  1 
     2 : 
     3 :  2 
     4 : 
    Number of SALCs per irrep:
     Irrep 1: 2
     Irrep 2: 0
     Irrep 3: 1
     Irrep 4: 0
    Number of geometries (including reference) is 6.
    Number of displacements per irrep:
      Irrep 1: 4
      Irrep 2: 0
      Irrep 3: 1
      Irrep 4: 0

  //>>>>>>>>>>>>>>>>>>>>>>>>>>>>>>>>>>>//
  //    Loading displacement 1 of 6    //
  //<<<<<<<<<<<<<<<<<<<<<<<<<<<<<<<<<<<//
gradient() will perform analytic gradient computation.

*** tstart() called on atlantis
*** at Tue Apr 19 00:20:14 2022

   => Loading Basis Set <=

    Name: AUG-CC-PVTZ
    Role: ORBITAL
    Keyword: BASIS
    atoms 1   entry O          line   327 file /home/akrom/software/anaconda3/envs/ffpenv/share/psi4/basis/aug-cc-pvtz.gbs 
    atoms 2-3 entry H          line    36 file /home/akrom/software/anaconda3/envs/ffpenv/share/psi4/basis/aug-cc-pvtz.gbs 


         ---------------------------------------------------------
                                   SCF
               by Justin Turney, Rob Parrish, Andy Simmonett
                          and Daniel G. A. Smith
                              RHF Reference
                        1 Threads,    500 MiB Core
         ---------------------------------------------------------

  ==> Geometry <==

    Molecular point group: c2v
    Full point group: C2v

    Geometry (in Angstrom), charge = 0, multiplicity = 1:

       Center              X                  Y                   Z               Mass       
    ------------   -----------------  -----------------  -----------------  -----------------
         O            0.000000000000     0.000000000000    -0.067969259994    15.994914619570
         H            0.749030000000     0.000000000000     0.539360740006     1.007825032230
         H           -0.749030000000    -0.000000000000     0.539360740006     1.007825032230

  Running in c2v symmetry.

  Rotational constants: A =     25.53156  B =     14.90675  C =      9.41168 [cm^-1]
  Rotational constants: A = 765416.81232  B = 446893.08836  C = 282155.15104 [MHz]
  Nuclear repulsion =    9.133433460995141

  Charge       = 0
  Multiplicity = 1
  Electrons    = 10
  Nalpha       = 5
  Nbeta        = 5

  ==> Algorithm <==

  SCF Algorithm Type is PK.
  DIIS enabled.
  MOM disabled.
  Fractional occupation disabled.
  Guess Type is SAD.
  Energy threshold   = 1.00e-10
  Density threshold  = 1.00e-10
  Integral threshold = 0.00e+00

  ==> Primary Basis <==

  Basis Set: AUG-CC-PVTZ
    Blend: AUG-CC-PVTZ
    Number of shells: 32
    Number of basis function: 92
    Number of Cartesian functions: 105
    Spherical Harmonics?: true
    Max angular momentum: 3

  ==> Pre-Iterations <==

   -------------------------------------------------------
    Irrep   Nso     Nmo     Nalpha   Nbeta   Ndocc  Nsocc
   -------------------------------------------------------
     A1        35      35       0       0       0       0
     A2        12      12       0       0       0       0
     B1        27      27       0       0       0       0
     B2        18      18       0       0       0       0
   -------------------------------------------------------
    Total      92      92       5       5       5       0
   -------------------------------------------------------

  ==> Integral Setup <==

  Using in-core PK algorithm.
   Calculation information:
      Number of atoms:                   3
      Number of AO shells:              32
      Number of primitives:             52
      Number of atomic orbitals:       105
      Number of basis functions:        92

      Integral cutoff                 1.00e-12
      Number of threads:                 1

  Performing in-core PK
  Using 18305562 doubles for integral storage.
  We computed 139656 shell quartets total.
  Whereas there are 139656 unique shell quartets.

  ==> DiskJK: Disk-Based J/K Matrices <==

    J tasked:                  Yes
    K tasked:                  Yes
    wK tasked:                  No
    Memory [MiB]:              375
    Schwarz Cutoff:          1E-12

    OpenMP threads:              1

  Minimum eigenvalue in the overlap matrix is 3.9492132475E-04.
  Using Symmetric Orthogonalization.

  SCF Guess: Superposition of Atomic Densities via on-the-fly atomic UHF.

  ==> Iterations <==

                        Total Energy        Delta E     RMS |[F,P]|

   @RHF iter SAD:   -75.47261599695013   -7.54726e+01   0.00000e+00 
   @RHF iter   1:   -75.97492164285558   -5.02306e-01   9.51206e-03 DIIS
   @RHF iter   2:   -76.02732280578762   -5.24012e-02   6.53521e-03 DIIS
   @RHF iter   3:   -76.05932168782469   -3.19989e-02   4.43669e-04 DIIS
   @RHF iter   4:   -76.05971468619663   -3.92998e-04   1.07453e-04 DIIS
   @RHF iter   5:   -76.05974007268941   -2.53865e-05   2.46609e-05 DIIS
   @RHF iter   6:   -76.05974217478132   -2.10209e-06   5.36062e-06 DIIS
   @RHF iter   7:   -76.05974228297642   -1.08195e-07   9.35147e-07 DIIS
   @RHF iter   8:   -76.05974228584476   -2.86835e-09   1.57184e-07 DIIS
   @RHF iter   9:   -76.05974228590755   -6.27836e-11   3.80438e-08 DIIS
   @RHF iter  10:   -76.05974228591127   -3.72324e-12   5.85301e-09 DIIS
   @RHF iter  11:   -76.05974228591170   -4.26326e-13   8.84387e-10 DIIS
   @RHF iter  12:   -76.05974228591141    2.84217e-13   1.53839e-10 DIIS
   @RHF iter  13:   -76.05974228591150   -8.52651e-14   2.24637e-11 DIIS
  Energy and wave function converged.


  ==> Post-Iterations <==

    Orbital Energies [Eh]
    ---------------------

    Doubly Occupied:                                                      

       1A1   -20.569564     2A1    -1.351835     1B1    -0.708932  
       3A1    -0.588660     1B2    -0.510540  

    Virtual:                                                              

       4A1     0.029185     2B1     0.047819     5A1     0.135543  
       2B2     0.159283     6A1     0.175523     3B1     0.183630  
       4B1     0.226128     7A1     0.245084     1A2     0.266198  
       3B2     0.297627     8A1     0.308704     5B1     0.366059  
       9A1     0.436620     6B1     0.465335     7B1     0.597640  
      10A1     0.660398    11A1     0.706098     2A2     0.724451  
       4B2     0.731439    12A1     0.831782     5B2     0.848239  
      13A1     0.893755     8B1     0.911833     6B2     0.915634  
       3A2     0.922965     9B1     0.932483    14A1     0.956717  
      15A1     1.019233    10B1     1.041510     7B2     1.081111  
      11B1     1.106250     4A2     1.177439    16A1     1.184097  
      12B1     1.262613     5A2     1.508421    17A1     1.519658  
       8B2     1.575171    18A1     1.810027    13B1     1.836230  
      14B1     1.973658    19A1     2.118259     9B2     2.263814  
       6A2     2.314434    20A1     2.329809    21A1     2.417831  
      10B2     2.422182    15B1     2.444862    22A1     2.484222  
      16B1     2.674637    11B2     2.697113    23A1     2.774964  
      17B1     2.794880     7A2     2.882522    18B1     3.653953  
      24A1     3.718229     8A2     4.025871    12B2     4.077260  
      25A1     4.133245    19B1     4.254303    13B2     4.257823  
      26A1     4.360981     9A2     4.375119    14B2     4.404940  
      20B1     4.527225    27A1     4.730341    21B1     4.845418  
      10A2     5.133520    22B1     5.172898    23B1     5.220628  
      28A1     5.307722    15B2     5.520660    29A1     5.631210  
      30A1     6.191679    24B1     6.503543    16B2     6.707484  
      31A1     6.917174    17B2     7.124534    18B2     7.250953  
      25B1     7.254027    11A2     7.309984    32A1     7.347076  
      12A2     7.348346    33A1     7.516060    34A1     7.861406  
      26B1     7.928450    27B1     8.800172    35A1    15.607005  

    Final Occupation by Irrep:
             A1    A2    B1    B2 
    DOCC [     3,    0,    1,    1 ]

  @RHF Final Energy:   -76.05974228591150

   => Energetics <=

    Nuclear Repulsion Energy =              9.1334334609951409
    One-Electron Energy =                -122.9272899599901052
    Two-Electron Energy =                  37.7341142130834584
    Total Energy =                        -76.0597422859115113

Computation Completed


Properties will be evaluated at   0.000000,   0.000000,   0.000000 [a0]

Properties computed using the SCF density matrix

  Nuclear Dipole Moment: [e a0]
     X:     0.0000      Y:     0.0000      Z:     1.0109

  Electronic Dipole Moment: [e a0]
     X:     0.0000      Y:     0.0000      Z:    -0.2120

  Dipole Moment: [e a0]
     X:     0.0000      Y:     0.0000      Z:     0.7989     Total:     0.7989

  Dipole Moment: [D]
     X:     0.0000      Y:     0.0000      Z:     2.0306     Total:     2.0306


*** tstop() called on atlantis at Tue Apr 19 00:20:14 2022
Module time:
	user time   =       0.83 seconds =       0.01 minutes
	system time =       0.04 seconds =       0.00 minutes
	total time  =          0 seconds =       0.00 minutes
Total time:
	user time   =       7.82 seconds =       0.13 minutes
	system time =       2.35 seconds =       0.04 minutes
	total time  =         10 seconds =       0.17 minutes
 MINTS: Wrapper to libmints.
   by Justin Turney

   Calculation information:
      Number of threads:                 1
      Number of atoms:                   3
      Number of AO shells:              32
      Number of SO shells:              23
      Number of primitives:             52
      Number of atomic orbitals:       105
      Number of basis functions:        92

      Number of irreps:                  4
      Integral cutoff                 0.00e+00
      Number of functions per irrep: [  35   12   27   18 ]

 OEINTS: Overlap, kinetic, potential, dipole, and quadrupole integrals
         stored in file 35.

      Computing two-electron integrals...done
      Computed 2217317 non-zero two-electron integrals.
        Stored in file 33.


*** tstart() called on atlantis
*** at Tue Apr 19 00:20:15 2022


	Wfn Parameters:
	--------------------
	Wavefunction         = CCSD
	Number of irreps     = 4
	Number of MOs        = 92
	Number of active MOs = 92
	AO-Basis             = NONE
	Semicanonical        = false
	Reference            = RHF
	Print Level          = 1

	IRREP	# MOs	# FZDC	# DOCC	# SOCC	# VIRT	# FZVR
	-----	-----	------	------	------	------	------
	 A1	   35	    0	    3	    0	    32	    0
	 A2	   12	    0	    0	    0	    12	    0
	 B1	   27	    0	    1	    0	    26	    0
	 B2	   18	    0	    1	    0	    17	    0
	Transforming integrals...
	IWL integrals will be deleted.
	(OO|OO)...
	Presorting SO-basis two-electron integrals.
	Sorting File: SO Ints (nn|nn) nbuckets = 1
	Transforming the one-electron integrals and constructing Fock matrices
	Starting first half-transformation.
	Sorting half-transformed integrals.
	First half integral transformation complete.
	Starting second half-transformation.
	Two-electron integral transformation complete.
	(OO|OV)...
	Starting second half-transformation.
	Two-electron integral transformation complete.
	(OO|VV)...
	Starting second half-transformation.
	Two-electron integral transformation complete.
	(OV|OO)...
	Starting first half-transformation.
	Sorting half-transformed integrals.
	First half integral transformation complete.
	Starting second half-transformation.
	Two-electron integral transformation complete.
	(OV|OV)...
	Starting second half-transformation.
	Two-electron integral transformation complete.
	(OV|VV)...
	Starting second half-transformation.
	Two-electron integral transformation complete.
	(VV|OO)...
	Starting first half-transformation.
	Sorting half-transformed integrals.
	First half integral transformation complete.
	Starting second half-transformation.
	Two-electron integral transformation complete.
	(VV|OV)...
	Starting second half-transformation.
	Two-electron integral transformation complete.
	(VV|VV)...
	Starting second half-transformation.
	Two-electron integral transformation complete.
	Frozen core energy     =      0.00000000000000

	Size of irrep 0 of <ab|cd> integrals:      4.550 (MW) /     36.398 (MB)
	Size of irrep 1 of <ab|cd> integrals:      2.729 (MW) /     21.833 (MB)
	Size of irrep 2 of <ab|cd> integrals:      4.293 (MW) /     34.345 (MB)
	Size of irrep 3 of <ab|cd> integrals:      2.931 (MW) /     23.448 (MB)
	Total:                                    14.503 (MW) /    116.023 (MB)

	Size of irrep 0 of <ia|bc> integrals:      0.296 (MW) /      2.372 (MB)
	Size of irrep 1 of <ia|bc> integrals:      0.131 (MW) /      1.044 (MB)
	Size of irrep 2 of <ia|bc> integrals:      0.253 (MW) /      2.022 (MB)
	Size of irrep 3 of <ia|bc> integrals:      0.163 (MW) /      1.301 (MB)
	Total:                                     0.842 (MW) /      6.739 (MB)

	Size of irrep 0 of tijab amplitudes:       0.023 (MW) /      0.188 (MB)
	Size of irrep 1 of tijab amplitudes:       0.003 (MW) /      0.026 (MB)
	Size of irrep 2 of tijab amplitudes:       0.012 (MW) /      0.099 (MB)
	Size of irrep 3 of tijab amplitudes:       0.010 (MW) /      0.082 (MB)
	Total:                                     0.049 (MW) /      0.396 (MB)

	Nuclear Rep. energy          =      9.13343346099514
	SCF energy                   =    -76.05974228591150
	One-electron energy          =   -122.92728996130279
	Two-electron energy          =     37.73411421439613
	Reference energy             =    -76.05974228591153

*** tstop() called on atlantis at Tue Apr 19 00:20:16 2022
Module time:
	user time   =       0.63 seconds =       0.01 minutes
	system time =       0.24 seconds =       0.00 minutes
	total time  =          1 seconds =       0.02 minutes
Total time:
	user time   =       8.69 seconds =       0.14 minutes
	system time =       2.60 seconds =       0.04 minutes
	total time  =         12 seconds =       0.20 minutes
            **************************
            *                        *
            *        CCENERGY        *
            *                        *
            **************************

    Nuclear Rep. energy (wfn)     =    9.133433460995141
    SCF energy          (wfn)     =  -76.059742285911497
    Reference energy    (file100) =  -76.059742285911526

    Input parameters:
    -----------------
    Wave function   =     CCSD
    Reference wfn   =     RHF
    Brueckner       =     No
    Memory (Mbytes) =     524.3
    Maxiter         =     50
    R_Convergence   =     1.0e-07
    E_Convergence   =     1.0e-08
    Restart         =     Yes
    DIIS            =     Yes
    AO Basis        =     NONE
    ABCD            =     NEW
    Cache Level     =     2
    Cache Type      =     LOW
    Print Level     =     1
    Num. of threads =     1
    # Amps to Print =     10
    Print MP2 Amps? =     No
    Analyze T2 Amps =     No
    Print Pair Ener =     No
    Local CC        =     No
    SCS-MP2         =     False
    SCSN-MP2        =     False
    SCS-CCSD        =     False

MP2 correlation energy -0.2842431150497089
                Solving CC Amplitude Equations
                ------------------------------
  Iter             Energy              RMS        T1Diag      D1Diag    New D1Diag    D2Diag
  ----     ---------------------    ---------   ----------  ----------  ----------   --------
     0        -0.284243115049709    0.000e+00    0.000000    0.000000    0.000000    0.118405
     1        -0.282456468056313    3.564e-02    0.007649    0.017263    0.017263    0.120966
     2        -0.287528204355188    1.256e-02    0.007500    0.017080    0.017080    0.125485
     3        -0.288882928334284    4.906e-03    0.008705    0.020371    0.020371    0.127661
     4        -0.288745107947215    1.038e-03    0.008862    0.020844    0.020844    0.127837
     5        -0.288759790835555    3.756e-04    0.008948    0.021145    0.021145    0.127892
     6        -0.288765263708948    9.221e-05    0.008969    0.021226    0.021226    0.127887
     7        -0.288763123267719    3.082e-05    0.008973    0.021244    0.021244    0.127878
     8        -0.288762779356139    8.482e-06    0.008974    0.021250    0.021250    0.127877
     9        -0.288762848806845    2.611e-06    0.008974    0.021252    0.021252    0.127877
    10        -0.288762684877874    9.706e-07    0.008975    0.021252    0.021252    0.127877
    11        -0.288762703220154    2.971e-07    0.008975    0.021252    0.021252    0.127877
    12        -0.288762695730317    1.230e-07    0.008975    0.021252    0.021252    0.127877
    13        -0.288762696156758    4.009e-08    0.008974    0.021252    0.021252    0.127877

    Iterations converged.


    Largest TIA Amplitudes:
              4  70        -0.0149654581
              4  71        -0.0130013089
              2   1         0.0081422334
              2   4        -0.0075112393
              3  56         0.0055488800
              4  80         0.0044075117
              3  52         0.0039996163
              3  63         0.0037495889
              4  72         0.0034941252
              4  73        -0.0034884176

    Largest TIjAb Amplitudes:
      3   3  48  48        -0.0222168112
      2   2   9   9        -0.0194023867
      4   4  75  75        -0.0157995205
      3   3  48  52        -0.0157922702
      3   3  52  48        -0.0157922702
      3   3  49  49        -0.0148805200
      2   2  49  49        -0.0136543925
      4   4  74  74        -0.0132342333
      3   3  52  52        -0.0131781025
      2   3   9  48         0.0127708185

    SCF energy       (wfn)                    =  -76.059742285911497
    Reference energy (file100)                =  -76.059742285911526

    Opposite-spin MP2 correlation energy      =   -0.215741455655632
    Same-spin MP2 correlation energy          =   -0.068501659394077
    MP2 correlation energy                    =   -0.284243115049709
      * MP2 total energy                      =  -76.343985400961230

    Opposite-spin CCSD correlation energy     =   -0.227749070200807
    Same-spin CCSD correlation energy         =   -0.061013625955951
    CCSD correlation energy                   =   -0.288762696156758
      * CCSD total energy                     =  -76.348504982068278


			**************************
			*                        *
			*         CCHBAR         *
			*                        *
			**************************


			**************************
			*        CCLAMBDA        *
			**************************


	Nuclear Rep. energy (wfn)     =    9.133433460995141
	Reference           (wfn)     =                    0
	SCF energy          (wfn)     =  -76.059742285911497
	Reference energy    (CC_INFO) =  -76.059742285911526
	CCSD energy         (CC_INFO) =   -0.288762696156758
	Total CCSD energy   (CC_INFO) =  -76.348504982068278

	Input parameters:
	-----------------
	Maxiter           =     50
	Convergence       = 1.0e-07
	Restart           =     No
	Cache Level       =     2
	Model III         =     No
	DIIS              =     Yes
	AO Basis          =     No
	ABCD              =     NEW
	Local CC          =     No
	Parameters for left-handed eigenvectors:
	    Irr   Root  Ground-State?    EOM energy        R0
	  1   0     0        Yes       0.0000000000   1.0000000000
	Labels for eigenvector 1:
	LIA 0 -1, Lia 0 -1, LIJAB 0 -1, Lijab 0 -1, LIjAb 0 -1, 2LIjAb - LIjbA 0 -1
	Symmetry of left-hand state: A1
	Symmetry of left-hand eigenvector: A1

	          Solving Lambda Equations
	          ------------------------
	Iter     PseudoEnergy or Norm         RMS  
	----     ---------------------     --------
	   0        -0.288806961705522    9.298e-08
	   1        -0.283649061979718    1.155e-02
	   2        -0.282982263832236    2.445e-03
	   3        -0.282860702291507    1.429e-03
	   4        -0.282858235898371    3.790e-04
	   5        -0.282866434533226    9.414e-05
	   6        -0.282866109581926    2.719e-05
	   7        -0.282865694045498    8.203e-06
	   8        -0.282865759431563    2.315e-06
	   9        -0.282865781992755    7.507e-07
	  10        -0.282865780900686    2.792e-07
	  11        -0.282865776888585    9.298e-08

	Largest LIA Amplitudes:
	          4  70        -0.0098312118
	          4  71        -0.0085638228
	          2   1         0.0045284328
	          2   4        -0.0044771568
	          3  56         0.0044575119
	          3  52         0.0035968843
	          4  80         0.0032494360
	          3  63         0.0029656118
	          2  15        -0.0027274988
	          2  23         0.0025967745

	Largest LIjAb Amplitudes:
	  3   3  48  48        -0.0217233237
	  2   2   9   9        -0.0190947683
	  4   4  75  75        -0.0155298922
	  3   3  48  52        -0.0155131953
	  3   3  52  48        -0.0155131953
	  3   3  49  49        -0.0144552639
	  2   2  49  49        -0.0132125931
	  4   4  74  74        -0.0130446276
	  3   3  52  52        -0.0129479007
	  2   3   9  48         0.0125487561

	Iterations converged.

	Overlap <L|e^T> =        0.93277608942

			**************************
			*                        *
			*        CCDENSITY       *
			*                        *
			**************************


	Input parameters:
	-----------------
	Wave function    =   CCSD
	Reference wfn    =   RHF
	Dertype          = 1
	Tolerance        = 1.0e-14
	Cache Level      = 2
	AO Basis         = No
	OPDM Only        = No
	Relax OPDM       = Yes
	Compute Xi       = No
	Use Zeta         = No
	Xi connected     = Yes
	Compute NO       = No

	Nuclear Rep. energy (wfn)     =    9.133433460995141
	SCF energy          (wfn)     =  -76.059742285911497
	Reference energy    (file100) =  -76.059742285911526
	CCSD energy         (CC_INFO) =   -0.288762696156758
	Total CCSD energy   (CC_INFO) =  -76.348504982068278
	Number of States = 1

	Ground?  State     EOM Energy       R0
	  Yes     0 A1    0.0000000000   1.00000000

	Virial Theorem Data:
	--------------------
	Kinetic energy (ref)   =   75.935421047173492
	Kinetic energy (corr)  =    0.271561997185188
	Kinetic energy (total) =   76.206983044358680
	-V/T (ref)             =    2.001637196936866
	-V/T (corr)            =    2.063339860326038
	-V/T (total)           =    2.001857073092990
  Cartesian Displacement SALCs
  By SALC:
  Number of SALCs: 3, nirreps: A1
  Project out translations: False
  Project out rotations: False
	irrep = 0, ncomponent = 1
		0: atom 0, direction z, coef 1.000000
	irrep = 0, ncomponent = 2
		0: atom 1, direction x, coef 0.707107
		1: atom 2, direction x, coef -0.707107
	irrep = 0, ncomponent = 2
		0: atom 1, direction z, coef 0.707107
		1: atom 2, direction z, coef 0.707107

  By Atomic Center:
  Number of atomic centers: 3
   Atomic Center 0:
	x component, size = 0
	y component, size = 0
	z component, size = 1
		0: salc 0, irrep 0, coef 1.000000
   Atomic Center 1:
	x component, size = 1
		0: salc 1, irrep 0, coef 0.707107
	y component, size = 0
	z component, size = 1
		0: salc 2, irrep 0, coef 0.707107
   Atomic Center 2:
	x component, size = 1
		0: salc 1, irrep 0, coef -0.707107
	y component, size = 0
	z component, size = 1
		0: salc 2, irrep 0, coef 0.707107

    Molecular point group: c2v
    Full point group: C2v

    Geometry (in Bohr), charge = 0, multiplicity = 1:

       Center              X                  Y                   Z       
    ------------   -----------------  -----------------  -----------------
         O            0.000000000000     0.000000000000    -0.128443286339
         H            1.415461559752     0.000000000000     1.019244081436
         H           -1.415461559752    -0.000000000000     1.019244081436

	Presorting MO-basis TPDM.
	Sorting File: MO TPDM (AA|AA) nbuckets = 1
	Starting first half-transformation.
	Sorting half-transformed TPDM.
	First half integral transformation complete.


  -Nuclear Repulsion Energy 1st Derivatives:
     Atom            X                  Y                   Z
    ------   -----------------  -----------------  -----------------
       1        0.000000000000     0.000000000000     3.034559410088
       2       -1.996065495508    -0.000000000000    -1.517279705044
       3        1.996065495508     0.000000000000    -1.517279705044


  -Core Hamiltonian Gradient:
     Atom            X                  Y                   Z
    ------   -----------------  -----------------  -----------------
       1        0.000000000000     0.000000000000    -6.110333693095
       2        4.415931547988     0.000000000000     3.055166846547
       3       -4.415931547988    -0.000000000000     3.055166846547


  -Lagrangian contribution to gradient:
     Atom            X                  Y                   Z
    ------   -----------------  -----------------  -----------------
       1        0.000000000000     0.000000000000     0.315031755841
       2       -0.234798076765    -0.000000000000    -0.157515877921
       3        0.234798076765     0.000000000000    -0.157515877921


  -Two-electron contribution to gradient:
     Atom            X                  Y                   Z
    ------   -----------------  -----------------  -----------------
       1        0.000000000000     0.000000000000     2.746455255352
       2       -2.182066482061    -0.000000000000    -1.373227627676
       3        2.182066482061     0.000000000000    -1.373227627676


  -Total gradient:
     Atom            X                  Y                   Z
    ------   -----------------  -----------------  -----------------
       1        0.000000000000     0.000000000000    -0.014287271814
       2        0.003001493654     0.000000000000     0.007143635907
       3       -0.003001493654    -0.000000000000     0.007143635907


  //>>>>>>>>>>>>>>>>>>>>>>>>>>>>>>>>>>>//
  //    Loading displacement 2 of 6    //
  //<<<<<<<<<<<<<<<<<<<<<<<<<<<<<<<<<<<//
gradient() will perform analytic gradient computation.

*** tstart() called on atlantis
*** at Tue Apr 19 00:20:21 2022

   => Loading Basis Set <=

    Name: AUG-CC-PVTZ
    Role: ORBITAL
    Keyword: BASIS
    atoms 1   entry O          line   327 file /home/akrom/software/anaconda3/envs/ffpenv/share/psi4/basis/aug-cc-pvtz.gbs 
    atoms 2-3 entry H          line    36 file /home/akrom/software/anaconda3/envs/ffpenv/share/psi4/basis/aug-cc-pvtz.gbs 


         ---------------------------------------------------------
                                   SCF
               by Justin Turney, Rob Parrish, Andy Simmonett
                          and Daniel G. A. Smith
                              RHF Reference
                        1 Threads,    500 MiB Core
         ---------------------------------------------------------

  ==> Geometry <==

    Molecular point group: c2v
    Full point group: C2v

    Geometry (in Angstrom), charge = 0, multiplicity = 1:

       Center              X                  Y                   Z               Mass       
    ------------   -----------------  -----------------  -----------------  -----------------
         O            0.000000000000     0.000000000000    -0.068190581735    15.994914619570
         H            0.749030000000     0.000000000000     0.541117008324     1.007825032230
         H           -0.749030000000    -0.000000000000     0.541117008324     1.007825032230

  Running in c2v symmetry.

  Rotational constants: A =     25.36609  B =     14.90675  C =      9.38911 [cm^-1]
  Rotational constants: A = 760456.34809  B = 446893.08836  C = 281478.31580 [MHz]
  Nuclear repulsion =    9.122096529799810

  Charge       = 0
  Multiplicity = 1
  Electrons    = 10
  Nalpha       = 5
  Nbeta        = 5

  ==> Algorithm <==

  SCF Algorithm Type is PK.
  DIIS enabled.
  MOM disabled.
  Fractional occupation disabled.
  Guess Type is SAD.
  Energy threshold   = 1.00e-10
  Density threshold  = 1.00e-10
  Integral threshold = 0.00e+00

  ==> Primary Basis <==

  Basis Set: AUG-CC-PVTZ
    Blend: AUG-CC-PVTZ
    Number of shells: 32
    Number of basis function: 92
    Number of Cartesian functions: 105
    Spherical Harmonics?: true
    Max angular momentum: 3

  ==> Pre-Iterations <==

   -------------------------------------------------------
    Irrep   Nso     Nmo     Nalpha   Nbeta   Ndocc  Nsocc
   -------------------------------------------------------
     A1        35      35       0       0       0       0
     A2        12      12       0       0       0       0
     B1        27      27       0       0       0       0
     B2        18      18       0       0       0       0
   -------------------------------------------------------
    Total      92      92       5       5       5       0
   -------------------------------------------------------

  ==> Integral Setup <==

  Using in-core PK algorithm.
   Calculation information:
      Number of atoms:                   3
      Number of AO shells:              32
      Number of primitives:             52
      Number of atomic orbitals:       105
      Number of basis functions:        92

      Integral cutoff                 1.00e-12
      Number of threads:                 1

  Performing in-core PK
  Using 18305562 doubles for integral storage.
  We computed 139656 shell quartets total.
  Whereas there are 139656 unique shell quartets.

  ==> DiskJK: Disk-Based J/K Matrices <==

    J tasked:                  Yes
    K tasked:                  Yes
    wK tasked:                  No
    Memory [MiB]:              375
    Schwarz Cutoff:          1E-12

    OpenMP threads:              1

  Minimum eigenvalue in the overlap matrix is 3.9631856693E-04.
  Using Symmetric Orthogonalization.

  SCF Guess: Superposition of Atomic Densities via on-the-fly atomic UHF.

  ==> Iterations <==

                        Total Energy        Delta E     RMS |[F,P]|

   @RHF iter SAD:   -75.47136379441147   -7.54714e+01   0.00000e+00 
   @RHF iter   1:   -75.97469869559166   -5.03335e-01   9.51000e-03 DIIS
   @RHF iter   2:   -76.02706185441536   -5.23632e-02   6.54433e-03 DIIS
   @RHF iter   3:   -76.05917278320486   -3.21109e-02   4.44335e-04 DIIS
   @RHF iter   4:   -76.05956732877283   -3.94546e-04   1.07928e-04 DIIS
   @RHF iter   5:   -76.05959300390310   -2.56751e-05   2.48148e-05 DIIS
   @RHF iter   6:   -76.05959513547074   -2.13157e-06   5.39118e-06 DIIS
   @RHF iter   7:   -76.05959524490783   -1.09437e-07   9.36862e-07 DIIS
   @RHF iter   8:   -76.05959524778243   -2.87460e-09   1.57629e-07 DIIS
   @RHF iter   9:   -76.05959524784544   -6.30109e-11   3.81482e-08 DIIS
   @RHF iter  10:   -76.05959524784939   -3.95062e-12   5.89531e-09 DIIS
   @RHF iter  11:   -76.05959524784924    1.42109e-13   8.91722e-10 DIIS
   @RHF iter  12:   -76.05959524784944   -1.98952e-13   1.55070e-10 DIIS
   @RHF iter  13:   -76.05959524784933    1.13687e-13   2.25335e-11 DIIS
  Energy and wave function converged.


  ==> Post-Iterations <==

    Orbital Energies [Eh]
    ---------------------

    Doubly Occupied:                                                      

       1A1   -20.569863     2A1    -1.351329     1B1    -0.707906  
       3A1    -0.588775     1B2    -0.510494  

    Virtual:                                                              

       4A1     0.029156     2B1     0.047826     5A1     0.135508  
       2B2     0.159373     6A1     0.175519     3B1     0.183678  
       4B1     0.225947     7A1     0.245050     1A2     0.266260  
       3B2     0.297381     8A1     0.308556     5B1     0.366041  
       9A1     0.436351     6B1     0.465070     7B1     0.597458  
      10A1     0.660459    11A1     0.705889     2A2     0.724622  
       4B2     0.731442    12A1     0.831575     5B2     0.848316  
      13A1     0.894075     8B1     0.911553     6B2     0.915530  
       3A2     0.922895     9B1     0.932509    14A1     0.956243  
      15A1     1.018689    10B1     1.041042     7B2     1.080858  
      11B1     1.105880     4A2     1.177300    16A1     1.183975  
      12B1     1.263128     5A2     1.507949    17A1     1.518464  
       8B2     1.573970    18A1     1.810920    13B1     1.836666  
      14B1     1.971606    19A1     2.117416     9B2     2.263775  
       6A2     2.314102    20A1     2.330235    21A1     2.417604  
      10B2     2.422040    15B1     2.444987    22A1     2.484615  
      16B1     2.675171    11B2     2.697295    23A1     2.774470  
      17B1     2.792959     7A2     2.881842    18B1     3.652533  
      24A1     3.714754     8A2     4.025793    12B2     4.075699  
      25A1     4.130236    19B1     4.253329    13B2     4.254869  
      26A1     4.359974     9A2     4.374467    14B2     4.404082  
      20B1     4.527042    27A1     4.729476    21B1     4.842437  
      10A2     5.129703    22B1     5.173597    23B1     5.216631  
      28A1     5.302415    15B2     5.517558    29A1     5.627064  
      30A1     6.191522    24B1     6.502849    16B2     6.706988  
      31A1     6.916588    17B2     7.122700    25B1     7.248048  
      18B2     7.250373    11A2     7.307351    12A2     7.347667  
      32A1     7.348323    33A1     7.511988    34A1     7.857227  
      26B1     7.925704    27B1     8.795000    35A1    15.568548  

    Final Occupation by Irrep:
             A1    A2    B1    B2 
    DOCC [     3,    0,    1,    1 ]

  @RHF Final Energy:   -76.05959524784933

   => Energetics <=

    Nuclear Repulsion Energy =              9.1220965297998102
    One-Electron Energy =                -122.9066494390642532
    Two-Electron Energy =                  37.7249576614151323
    Total Energy =                        -76.0595952478493160

Computation Completed


Properties will be evaluated at   0.000000,   0.000000,   0.000000 [a0]

Properties computed using the SCF density matrix

  Nuclear Dipole Moment: [e a0]
     X:     0.0000      Y:     0.0000      Z:     1.0142

  Electronic Dipole Moment: [e a0]
     X:     0.0000      Y:     0.0000      Z:    -0.2138

  Dipole Moment: [e a0]
     X:     0.0000      Y:     0.0000      Z:     0.8005     Total:     0.8005

  Dipole Moment: [D]
     X:     0.0000      Y:     0.0000      Z:     2.0346     Total:     2.0346


*** tstop() called on atlantis at Tue Apr 19 00:20:21 2022
Module time:
	user time   =       0.81 seconds =       0.01 minutes
	system time =       0.03 seconds =       0.00 minutes
	total time  =          0 seconds =       0.00 minutes
Total time:
	user time   =      12.74 seconds =       0.21 minutes
	system time =       4.39 seconds =       0.07 minutes
	total time  =         17 seconds =       0.28 minutes
 MINTS: Wrapper to libmints.
   by Justin Turney

   Calculation information:
      Number of threads:                 1
      Number of atoms:                   3
      Number of AO shells:              32
      Number of SO shells:              23
      Number of primitives:             52
      Number of atomic orbitals:       105
      Number of basis functions:        92

      Number of irreps:                  4
      Integral cutoff                 0.00e+00
      Number of functions per irrep: [  35   12   27   18 ]

 OEINTS: Overlap, kinetic, potential, dipole, and quadrupole integrals
         stored in file 35.

      Computing two-electron integrals...done
      Computed 2217947 non-zero two-electron integrals.
        Stored in file 33.


*** tstart() called on atlantis
*** at Tue Apr 19 00:20:22 2022


	Wfn Parameters:
	--------------------
	Wavefunction         = CCSD
	Number of irreps     = 4
	Number of MOs        = 92
	Number of active MOs = 92
	AO-Basis             = NONE
	Semicanonical        = false
	Reference            = RHF
	Print Level          = 1

	IRREP	# MOs	# FZDC	# DOCC	# SOCC	# VIRT	# FZVR
	-----	-----	------	------	------	------	------
	 A1	   35	    0	    3	    0	    32	    0
	 A2	   12	    0	    0	    0	    12	    0
	 B1	   27	    0	    1	    0	    26	    0
	 B2	   18	    0	    1	    0	    17	    0
	Transforming integrals...
	IWL integrals will be deleted.
	(OO|OO)...
	Presorting SO-basis two-electron integrals.
	Sorting File: SO Ints (nn|nn) nbuckets = 1
[...]
Module time:
	user time   =       1.32 seconds =       0.02 minutes
	system time =       0.67 seconds =       0.01 minutes
	total time  =          2 seconds =       0.03 minutes
Total time:
	user time   =      34.40 seconds =       0.57 minutes
	system time =      12.94 seconds =       0.22 minutes
	total time  =         48 seconds =       0.80 minutes
            **************************
            *                        *
            *        CCENERGY        *
            *                        *
            **************************

    Nuclear Rep. energy (wfn)     =    9.133468287774228
    SCF energy          (wfn)     =  -76.059735137281422
    Reference energy    (file100) =  -76.059735137281422

    Input parameters:
    -----------------
    Wave function   =     CCSD
    Reference wfn   =     RHF
    Brueckner       =     No
    Memory (Mbytes) =     524.3
    Maxiter         =     50
    R_Convergence   =     1.0e-07
    E_Convergence   =     1.0e-08
    Restart         =     Yes
    DIIS            =     Yes
    AO Basis        =     NONE
    ABCD            =     NEW
    Cache Level     =     2
    Cache Type      =     LOW
    Print Level     =     1
    Num. of threads =     1
    # Amps to Print =     10
    Print MP2 Amps? =     No
    Analyze T2 Amps =     No
    Print Pair Ener =     No
    Local CC        =     No
    SCS-MP2         =     False
    SCSN-MP2        =     False
    SCS-CCSD        =     False

MP2 correlation energy -0.2842431103267067
                Solving CC Amplitude Equations
                ------------------------------
  Iter             Energy              RMS        T1Diag      D1Diag    New D1Diag    D2Diag
  ----     ---------------------    ---------   ----------  ----------  ----------   --------
     0        -0.284243110326707    0.000e+00    0.000000    0.000000    0.000000    0.118452
     1        -0.282456515432335    3.564e-02    0.007649    0.017264    0.017264    0.120983
     2        -0.287528282873114    1.256e-02    0.007500    0.017080    0.017080    0.125509
     3        -0.288883021588747    4.906e-03    0.008705    0.020371    0.020371    0.127685
     4        -0.288745198154572    1.038e-03    0.008862    0.020844    0.020844    0.127863
     5        -0.288759880871183    3.756e-04    0.008948    0.021145    0.021145    0.127918
     6        -0.288765353794391    9.221e-05    0.008969    0.021226    0.021226    0.127913
     7        -0.288763213395351    3.082e-05    0.008973    0.021244    0.021244    0.127905
     8        -0.288762869492500    8.483e-06    0.008974    0.021250    0.021250    0.127903
     9        -0.288762938958411    2.611e-06    0.008975    0.021252    0.021252    0.127903
    10        -0.288762775022895    9.707e-07    0.008975    0.021252    0.021252    0.127903
    11        -0.288762793369848    2.971e-07    0.008975    0.021252    0.021252    0.127903
    12        -0.288762785879622    1.230e-07    0.008975    0.021252    0.021252    0.127903
    13        -0.288762786306380    4.009e-08    0.008975    0.021252    0.021252    0.127903

    Iterations converged.


    Largest TIA Amplitudes:
              4  58        -0.0149655056
              4  60        -0.0130012562
              3   2         0.0081420171
              3   7        -0.0075111056
              2  27         0.0055481625
              4  76         0.0044073617
              2  20         0.0039963046
              2  43         0.0037488823
              4  62         0.0034940738
              4  63        -0.0034884389

    Largest TIjAb Amplitudes:
      2   2  10  10        -0.0222099284
      3   3  15  15        -0.0194009937
      4   4  66  66        -0.0157989976
      2   2  10  20         0.0157831846
      2   2  20  10         0.0157831846
      2   2  11  11        -0.0148799818
      3   3  11  11        -0.0136545553
      4   4  64  64        -0.0132340740
      2   2  20  20        -0.0131709711
      2   3  10  15        -0.0127677467

    SCF energy       (wfn)                    =  -76.059735137281422
    Reference energy (file100)                =  -76.059735137281422

    Opposite-spin MP2 correlation energy      =   -0.215741508261639
    Same-spin MP2 correlation energy          =   -0.068501602065067
    MP2 correlation energy                    =   -0.284243110326707
      * MP2 total energy                      =  -76.343978247608135

    Opposite-spin CCSD correlation energy     =   -0.227749210125520
    Same-spin CCSD correlation energy         =   -0.061013576180860
    CCSD correlation energy                   =   -0.288762786306380
      * CCSD total energy                     =  -76.348497923587800


			**************************
			*                        *
			*         CCHBAR         *
			*                        *
			**************************


			**************************
			*        CCLAMBDA        *
			**************************


	Nuclear Rep. energy (wfn)     =    9.133468287774228
	Reference           (wfn)     =                    0
	SCF energy          (wfn)     =  -76.059735137281422
	Reference energy    (CC_INFO) =  -76.059735137281422
	CCSD energy         (CC_INFO) =   -0.288762786306380
	Total CCSD energy   (CC_INFO) =  -76.348497923587800

	Input parameters:
	-----------------
	Maxiter           =     50
	Convergence       = 1.0e-07
	Restart           =     No
	Cache Level       =     2
	Model III         =     No
	DIIS              =     Yes
	AO Basis          =     No
	ABCD              =     NEW
	Local CC          =     No
	Parameters for left-handed eigenvectors:
	    Irr   Root  Ground-State?    EOM energy        R0
	  1   0     0        Yes       0.0000000000   1.0000000000
	Labels for eigenvector 1:
	LIA 0 -1, Lia 0 -1, LIJAB 0 -1, Lijab 0 -1, LIjAb 0 -1, 2LIjAb - LIjbA 0 -1
	Symmetry of left-hand state: Ap
	Symmetry of left-hand eigenvector: Ap

	          Solving Lambda Equations
	          ------------------------
	Iter     PseudoEnergy or Norm         RMS  
	----     ---------------------     --------
	   0        -0.288807051435752    9.394e-08
	   1        -0.283649109884049    1.155e-02
	   2        -0.282982310279329    2.446e-03
	   3        -0.282860746808688    1.429e-03
	   4        -0.282858279401670    3.790e-04
	   5        -0.282866478165975    9.415e-05
	   6        -0.282866153190799    2.719e-05
	   7        -0.282865737653427    8.203e-06
	   8        -0.282865803046605    2.316e-06
	   9        -0.282865825608578    7.507e-07
	  10        -0.282865824516683    2.793e-07
	  11        -0.282865820504312    9.298e-08

	Largest LIA Amplitudes:
	          4  58        -0.0098312257
	          4  60        -0.0085637765
	          3   2         0.0045282620
	          3   7        -0.0044770853
	          2  27         0.0044569834
	          2  20         0.0035939465
	          4  76         0.0032493237
	          2  43         0.0029650265
	          3  28        -0.0027262176
	          3  42         0.0025969142

	Largest LIjAb Amplitudes:
	  2   2  10  10        -0.0217165884
	  3   3  15  15        -0.0190933921
	  4   4  66  66        -0.0155293779
	  2   2  10  20         0.0155042525
	  2   2  20  10         0.0155042525
	  2   2  11  11        -0.0144547383
	  3   3  11  11        -0.0132127400
	  4   4  64  64        -0.0130444701
	  2   2  20  20        -0.0129408203
	  2   3  10  15        -0.0125457466

	Iterations converged.

	Overlap <L|e^T> =        0.93277586251

			**************************
			*                        *
			*        CCDENSITY       *
			*                        *
			**************************


	Input parameters:
	-----------------
	Wave function    =   CCSD
	Reference wfn    =   RHF
	Dertype          = 1
	Tolerance        = 1.0e-14
	Cache Level      = 2
	AO Basis         = No
	OPDM Only        = No
	Relax OPDM       = Yes
	Compute Xi       = No
	Use Zeta         = No
	Xi connected     = Yes
	Compute NO       = No

	Nuclear Rep. energy (wfn)     =    9.133468287774228
	SCF energy          (wfn)     =  -76.059735137281422
	Reference energy    (file100) =  -76.059735137281422
	CCSD energy         (CC_INFO) =   -0.288762786306380
	Total CCSD energy   (CC_INFO) =  -76.348497923587800
	Number of States = 1

	Ground?  State     EOM Energy       R0
	  Yes     0 Ap    0.0000000000   1.00000000

	Virial Theorem Data:
	--------------------
	Kinetic energy (ref)   =   75.935447667118666
	Kinetic energy (corr)  =    0.271561813481574
	Kinetic energy (total) =   76.207009480600234
	-V/T (ref)             =    2.001636751661854
	-V/T (corr)            =    2.063340911611540
	-V/T (total)           =    2.001856632925920
  Cartesian Displacement SALCs
  By SALC:
  Number of SALCs: 6, nirreps: A'
  Project out translations: False
  Project out rotations: False
	irrep = 0, ncomponent = 1
		0: atom 0, direction x, coef 1.000000
	irrep = 0, ncomponent = 1
		0: atom 0, direction z, coef 1.000000
	irrep = 0, ncomponent = 1
		0: atom 1, direction x, coef 1.000000
	irrep = 0, ncomponent = 1
		0: atom 1, direction z, coef 1.000000
	irrep = 0, ncomponent = 1
		0: atom 2, direction x, coef 1.000000
	irrep = 0, ncomponent = 1
		0: atom 2, direction z, coef 1.000000

  By Atomic Center:
  Number of atomic centers: 3
   Atomic Center 0:
	x component, size = 1
		0: salc 0, irrep 0, coef 1.000000
	y component, size = 0
	z component, size = 1
		0: salc 1, irrep 0, coef 1.000000
   Atomic Center 1:
	x component, size = 1
		0: salc 2, irrep 0, coef 1.000000
	y component, size = 0
	z component, size = 1
		0: salc 3, irrep 0, coef 1.000000
   Atomic Center 2:
	x component, size = 1
		0: salc 4, irrep 0, coef 1.000000
	y component, size = 0
	z component, size = 1
		0: salc 5, irrep 0, coef 1.000000

    Molecular point group: cs
    Full point group: Cs

    Geometry (in Bohr), charge = 0, multiplicity = 1:

       Center              X                  Y                   Z       
    ------------   -----------------  -----------------  -----------------
         O           -0.000332326610     0.000000000000    -0.128443286339
         H            1.418098691984     0.000000000000     1.021382326257
         H           -1.412824427519     0.000000000000     1.017105836614

	Presorting MO-basis TPDM.
	Sorting File: MO TPDM (AA|AA) nbuckets = 1
	Starting first half-transformation.
	Sorting half-transformed TPDM.
	First half integral transformation complete.


  -Nuclear Repulsion Energy 1st Derivatives:
     Atom            X                  Y                   Z
    ------   -----------------  -----------------  -----------------
       1       -0.014657373499     0.000000000000     3.034598523291
       2       -1.988757858744     0.000000000000    -1.511189256655
       3        2.003415232243     0.000000000000    -1.523409266637


  -Core Hamiltonian Gradient:
     Atom            X                  Y                   Z
    ------   -----------------  -----------------  -----------------
       1        0.018629754510     0.000000000000    -6.110352787934
       2        4.406656116685     0.000000000000     3.047689258973
       3       -4.425285871196     0.000000000000     3.062663528961


  -Lagrangian contribution to gradient:
     Atom            X                  Y                   Z
    ------   -----------------  -----------------  -----------------
       1        0.000597754448     0.000000000000     0.315025149032
       2       -0.235096885296     0.000000000000    -0.157749677827
       3        0.234499130848     0.000000000000    -0.157275471205


  -Two-electron contribution to gradient:
     Atom            X                  Y                   Z
    ------   -----------------  -----------------  -----------------
       1       -0.007581244994     0.000000000000     2.746458605659
       2       -2.178304073653     0.000000000000    -1.370404782025
       3        2.185885318648     0.000000000000    -1.376053823634


  -Total gradient:
     Atom            X                  Y                   Z
    ------   -----------------  -----------------  -----------------
       1       -0.003011109535     0.000000000000    -0.014270509951
       2        0.004497298992     0.000000000000     0.008345542466
       3       -0.001486189457     0.000000000000     0.005924967485


         ----------------------------------------------------------
                                   FINDIF
                     R. A. King and Jonathon Misiewicz
         ---------------------------------------------------------

  Computing second-derivative from gradients using projected, 
  symmetry-adapted, cartesian coordinates.

  6 gradients passed in, including the reference geometry.
  Generating complete list of displacements from unique ones.

    Operation 2 takes plus displacements of irrep B1 to minus ones.

-------------------------------------------------------------


  ==> Harmonic Vibrational Analysis <==

  non-mass-weighted Hessian:       Symmetric? True   Hermitian? True   Lin Dep Dim?  6 (0)
  projection of translations (True) and rotations (True) removed 6 degrees of freedom (6)
  total projector:                 Symmetric? True   Hermitian? True   Lin Dep Dim?  6 (6)
  mass-weighted Hessian:           Symmetric? True   Hermitian? True   Lin Dep Dim?  6 (0)
  pre-proj  low-frequency mode:    0.0000i [cm^-1]
  pre-proj  low-frequency mode:    0.0000i [cm^-1]
  pre-proj  low-frequency mode:    0.0000i [cm^-1]
  pre-proj  low-frequency mode:    0.0000  [cm^-1]
  pre-proj  low-frequency mode:    0.0000  [cm^-1]
  pre-proj  low-frequency mode:    0.0000  [cm^-1]
  pre-proj  all modes:['0.0000i' '0.0000i' '0.0000i' '0.0000' '0.0000' '0.0000' '1696.1837'
 '3782.5550' '3862.8492']
  projected mass-weighted Hessian: Symmetric? True   Hermitian? True   Lin Dep Dim?  6 (6)
  post-proj low-frequency mode:    0.0001i [cm^-1] (TR)
  post-proj low-frequency mode:    0.0001i [cm^-1] (TR)
  post-proj low-frequency mode:    0.0000i [cm^-1] (TR)
  post-proj low-frequency mode:    0.0000  [cm^-1] (TR)
  post-proj low-frequency mode:    0.0000  [cm^-1] (TR)
  post-proj low-frequency mode:    0.0000  [cm^-1] (TR)
  post-proj  all modes:['0.0001i' '0.0001i' '0.0000i' '0.0000' '0.0000' '0.0000' '1696.1837'
 '3782.5550' '3862.8492']

  Vibration                       7                   8                   9           
  Freq [cm^-1]                1696.1837           3782.5550           3862.8492       
  Irrep                           A1                  A1                  B1          
  Reduced mass [u]              1.0815              1.0463              1.0793        
  Force const [mDyne/A]         1.8332              8.8200              9.4886        
  Turning point v=0 [a0]        0.2562              0.1744              0.1699        
  RMS dev v=0 [a0 u^1/2]        0.1884              0.1262              0.1248        
  Char temp [K]               2440.4307           5442.2545           5557.7799       
  ----------------------------------------------------------------------------------
      1   O                0.00  0.00 -0.07    0.00  0.00 -0.05   -0.07  0.00 -0.00   
      2   H               -0.43 -0.00  0.56    0.58  0.00  0.40    0.55  0.00  0.44   
      3   H                0.43 -0.00  0.56   -0.58 -0.00  0.40    0.55 -0.00 -0.44   

  ==> Thermochemistry Components <==

  Entropy, S
    Electronic S            0.000 [cal/(mol K)]        0.000 [J/(mol K)]       0.00000000 [mEh/K] (multiplicity = 1)
    Translational S        34.608 [cal/(mol K)]      144.801 [J/(mol K)]       0.05515177 [mEh/K] (mol. weight = 18.0106 [u], P = 101325.00 [Pa])
    Rotational S           10.508 [cal/(mol K)]       43.968 [J/(mol K)]       0.01674635 [mEh/K] (symmetry no. = 2)
    Vibrational S           0.005 [cal/(mol K)]        0.021 [J/(mol K)]       0.00000811 [mEh/K]
  Total S                  45.122 [cal/(mol K)]      188.790 [J/(mol K)]       0.07190624 [mEh/K]
  Correction S              0.000 [cal/(mol K)]        0.000 [J/(mol K)]       0.00000000 [mEh/K]

  Constant volume heat capacity, Cv
    Electronic Cv           0.000 [cal/(mol K)]        0.000 [J/(mol K)]       0.00000000 [mEh/K]
    Translational Cv        2.981 [cal/(mol K)]       12.472 [J/(mol K)]       0.00475022 [mEh/K]
    Rotational Cv           2.981 [cal/(mol K)]       12.472 [J/(mol K)]       0.00475022 [mEh/K]
    Vibrational Cv          0.037 [cal/(mol K)]        0.155 [J/(mol K)]       0.00005919 [mEh/K]
  Total Cv                  5.999 [cal/(mol K)]       25.099 [J/(mol K)]       0.00955963 [mEh/K]
  Correction Cv             0.000 [cal/(mol K)]        0.000 [J/(mol K)]       0.00000000 [mEh/K]

  Constant pressure heat capacity, Cp
    Electronic Cp           0.000 [cal/(mol K)]        0.000 [J/(mol K)]       0.00000000 [mEh/K]
    Translational Cp        4.968 [cal/(mol K)]       20.786 [J/(mol K)]       0.00791703 [mEh/K]
    Rotational Cp           2.981 [cal/(mol K)]       12.472 [J/(mol K)]       0.00475022 [mEh/K]
    Vibrational Cp          0.037 [cal/(mol K)]        0.155 [J/(mol K)]       0.00005919 [mEh/K]
  Total Cp                  7.986 [cal/(mol K)]       33.413 [J/(mol K)]       0.01272644 [mEh/K]
  Correction Cp             0.000 [cal/(mol K)]        0.000 [J/(mol K)]       0.00000000 [mEh/K]

  ==> Thermochemistry Energy Analysis <==

  Raw electronic energy, E0
  Total E0, Electronic energy at well bottom at 0 [K]                  -76.34850498 [Eh]

  Zero-point energy, ZPE_vib = Sum_i nu_i / 2
    Electronic ZPE          0.000 [kcal/mol]        0.000 [kJ/mol]       0.00000000 [Eh]
    Translational ZPE       0.000 [kcal/mol]        0.000 [kJ/mol]       0.00000000 [Eh]
    Rotational ZPE          0.000 [kcal/mol]        0.000 [kJ/mol]       0.00000000 [Eh]
    Vibrational ZPE        13.354 [kcal/mol]       55.875 [kJ/mol]       0.02128170 [Eh]        4670.794 [cm^-1]
  Correction ZPE           13.354 [kcal/mol]       55.875 [kJ/mol]       0.02128170 [Eh]        4670.794 [cm^-1]
  Total ZPE, Electronic energy at 0 [K]                                -76.32722328 [Eh]

  Thermal Energy, E (includes ZPE)
    Electronic E            0.000 [kcal/mol]        0.000 [kJ/mol]       0.00000000 [Eh]
    Translational E         0.889 [kcal/mol]        3.718 [kJ/mol]       0.00141628 [Eh]
    Rotational E            0.889 [kcal/mol]        3.718 [kJ/mol]       0.00141628 [Eh]
    Vibrational E          13.356 [kcal/mol]       55.881 [kJ/mol]       0.02128386 [Eh]
  Correction E             15.133 [kcal/mol]       63.318 [kJ/mol]       0.02411641 [Eh]
  Total E, Electronic energy at  298.15 [K]                            -76.32438857 [Eh]

  Enthalpy, H_trans = E_trans + k_B * T
    Electronic H            0.000 [kcal/mol]        0.000 [kJ/mol]       0.00000000 [Eh]
    Translational H         1.481 [kcal/mol]        6.197 [kJ/mol]       0.00236046 [Eh]
    Rotational H            0.889 [kcal/mol]        3.718 [kJ/mol]       0.00141628 [Eh]
    Vibrational H          13.356 [kcal/mol]       55.881 [kJ/mol]       0.02128386 [Eh]
  Correction H             15.726 [kcal/mol]       65.797 [kJ/mol]       0.02506060 [Eh]
  Total H, Enthalpy at  298.15 [K]                                     -76.32344439 [Eh]

  Gibbs free energy, G = H - T * S
    Electronic G            0.000 [kcal/mol]        0.000 [kJ/mol]       0.00000000 [Eh]
    Translational G        -8.837 [kcal/mol]      -36.975 [kJ/mol]      -0.01408304 [Eh]
    Rotational G           -2.244 [kcal/mol]       -9.390 [kJ/mol]      -0.00357665 [Eh]
    Vibrational G          13.354 [kcal/mol]       55.874 [kJ/mol]       0.02128144 [Eh]
  Correction G              2.273 [kcal/mol]        9.509 [kJ/mol]       0.00362175 [Eh]
  Total G, Free enthalpy at  298.15 [K]                                -76.34488323 [Eh]

    Psi4 stopped on: Tuesday, 19 April 2022 12:21AM
    Psi4 wall time for execution: 0:00:58.43

*** Psi4 exiting successfully. Buy a developer a beer!
