
    -----------------------------------------------------------------------
          Psi4: An Open-Source Ab Initio Electronic Structure Package
                               Psi4 1.3.2 release

                         Git: Rev {HEAD} ecbda83 


    R. M. Parrish, L. A. Burns, D. G. A. Smith, A. C. Simmonett,
    A. E. DePrince III, E. G. Hohenstein, U. Bozkaya, A. Yu. Sokolov,
    R. Di Remigio, R. M. Richard, J. F. Gonthier, A. M. James,
    H. R. McAlexander, A. Kumar, M. Saitow, X. Wang, B. P. Pritchard,
    P. Verma, H. F. Schaefer III, K. Patkowski, R. A. King, E. F. Valeev,
    F. A. Evangelista, J. M. Turney, T. D. Crawford, and C. D. Sherrill,
    J. Chem. Theory Comput. 13(7) pp 3185--3197 (2017).
    (doi: 10.1021/acs.jctc.7b00174)


                         Additional Contributions by
    P. Kraus, H. Kruse, M. H. Lechner, M. C. Schieber, R. A. Shaw,
    A. Alenaizan, R. Galvelis, Z. L. Glick, S. Lehtola, and J. P. Misiewicz

    -----------------------------------------------------------------------


    Psi4 started on: Tuesday, 19 April 2022 12:19AM

    Process ID: 25386
    Host:       atlantis
    PSIDATADIR: /home/akrom/software/anaconda3/envs/ffpenv/share/psi4
    Memory:     500.0 MiB
    Threads:    1
    
  ==> Input File <==

--------------------------------------------------------------------------
set basis  aug-cc-pVDZ
molecule {
0 1
   O        0.00000        0.00000       -0.06797
   H        0.74903        0.00000        0.53936
   H       -0.74903        0.00000        0.53936
}
energy('CCSD')
frequencies('CCSD')


--------------------------------------------------------------------------

*** tstart() called on atlantis
*** at Tue Apr 19 00:19:57 2022

   => Loading Basis Set <=

    Name: AUG-CC-PVDZ
    Role: ORBITAL
    Keyword: BASIS
    atoms 1   entry O          line   250 file /home/akrom/software/anaconda3/envs/ffpenv/share/psi4/basis/aug-cc-pvdz.gbs 
    atoms 2-3 entry H          line    36 file /home/akrom/software/anaconda3/envs/ffpenv/share/psi4/basis/aug-cc-pvdz.gbs 


         ---------------------------------------------------------
                                   SCF
               by Justin Turney, Rob Parrish, Andy Simmonett
                          and Daniel G. A. Smith
                              RHF Reference
                        1 Threads,    500 MiB Core
         ---------------------------------------------------------

  ==> Geometry <==

    Molecular point group: c2v
    Full point group: C2v

    Geometry (in Angstrom), charge = 0, multiplicity = 1:

       Center              X                  Y                   Z               Mass       
    ------------   -----------------  -----------------  -----------------  -----------------
         O            0.000000000000     0.000000000000    -0.067969259994    15.994914619570
         H            0.749030000000     0.000000000000     0.539360740006     1.007825032230
         H           -0.749030000000    -0.000000000000     0.539360740006     1.007825032230

  Running in c2v symmetry.

  Rotational constants: A =     25.53156  B =     14.90675  C =      9.41168 [cm^-1]
  Rotational constants: A = 765416.81232  B = 446893.08836  C = 282155.15104 [MHz]
  Nuclear repulsion =    9.133433460995141

  Charge       = 0
  Multiplicity = 1
  Electrons    = 10
  Nalpha       = 5
  Nbeta        = 5

  ==> Algorithm <==

  SCF Algorithm Type is PK.
  DIIS enabled.
  MOM disabled.
  Fractional occupation disabled.
  Guess Type is SAD.
  Energy threshold   = 1.00e-08
  Density threshold  = 1.00e-08
  Integral threshold = 0.00e+00

  ==> Primary Basis <==

  Basis Set: AUG-CC-PVDZ
    Blend: AUG-CC-PVDZ
    Number of shells: 19
    Number of basis function: 41
    Number of Cartesian functions: 43
    Spherical Harmonics?: true
    Max angular momentum: 2

  ==> Pre-Iterations <==

   -------------------------------------------------------
    Irrep   Nso     Nmo     Nalpha   Nbeta   Ndocc  Nsocc
   -------------------------------------------------------
     A1        18      18       0       0       0       0
     A2         4       4       0       0       0       0
     B1        12      12       0       0       0       0
     B2         7       7       0       0       0       0
   -------------------------------------------------------
    Total      41      41       5       5       5       0
   -------------------------------------------------------

  ==> Integral Setup <==

  Using in-core PK algorithm.
   Calculation information:
      Number of atoms:                   3
      Number of AO shells:              19
      Number of primitives:             39
      Number of atomic orbitals:        43
      Number of basis functions:        41

      Integral cutoff                 1.00e-12
      Number of threads:                 1

  Performing in-core PK
  Using 742182 doubles for integral storage.
  We computed 18145 shell quartets total.
  Whereas there are 18145 unique shell quartets.

  ==> DiskJK: Disk-Based J/K Matrices <==

    J tasked:                  Yes
    K tasked:                  Yes
    wK tasked:                  No
    Memory [MiB]:              375
    Schwarz Cutoff:          1E-12

    OpenMP threads:              1

  Minimum eigenvalue in the overlap matrix is 2.6286121429E-03.
  Using Symmetric Orthogonalization.

  SCF Guess: Superposition of Atomic Densities via on-the-fly atomic UHF.

  ==> Iterations <==

                        Total Energy        Delta E     RMS |[F,P]|

   @RHF iter SAD:   -75.46053502675170   -7.54605e+01   0.00000e+00 
   @RHF iter   1:   -75.95597378814530   -4.95439e-01   1.96190e-02 DIIS
   @RHF iter   2:   -76.00908568332429   -5.31119e-02   1.29129e-02 DIIS
   @RHF iter   3:   -76.04025313582193   -3.11675e-02   9.23521e-04 DIIS
   @RHF iter   4:   -76.04063395555539   -3.80820e-04   2.10270e-04 DIIS
   @RHF iter   5:   -76.04065627023505   -2.23147e-05   4.80040e-05 DIIS
   @RHF iter   6:   -76.04065806067267   -1.79044e-06   9.57574e-06 DIIS
   @RHF iter   7:   -76.04065813478638   -7.41137e-08   1.54238e-06 DIIS
   @RHF iter   8:   -76.04065813655576   -1.76938e-09   2.37110e-07 DIIS
   @RHF iter   9:   -76.04065813659264   -3.68772e-11   6.18660e-08 DIIS
   @RHF iter  10:   -76.04065813659534   -2.70006e-12   8.82978e-09 DIIS
  Energy and wave function converged.


  ==> Post-Iterations <==

    Orbital Energies [Eh]
    ---------------------

    Doubly Occupied:                                                      

       1A1   -20.579606     2A1    -1.354874     1B1    -0.710329  
       3A1    -0.589399     1B2    -0.509605  

    Virtual:                                                              

       4A1     0.035093     2B1     0.058122     5A1     0.173817  
       2B2     0.197322     6A1     0.222470     3B1     0.232461  
       4B1     0.287334     7A1     0.334511     1A2     0.386759  
       8A1     0.398096     3B2     0.428951     5B1     0.540722  
       9A1     0.646027     6B1     0.658430     7B1     0.802092  
      10A1     0.935656     4B2     1.104223    11A1     1.119205  
       2A2     1.148113    12A1     1.293368     8B1     1.460899  
       5B2     1.477866    13A1     1.584234     3A2     2.000987  
       9B1     2.005148     6B2     2.112431    14A1     2.334944  
      10B1     2.473456    15A1     2.617584    11B1     2.706065  
      16A1     2.986794     7B2     3.674390    17A1     3.691395  
       4A2     3.700441    18A1     4.004088    12B1     4.299409  

    Final Occupation by Irrep:
             A1    A2    B1    B2 
    DOCC [     3,    0,    1,    1 ]

  @RHF Final Energy:   -76.04065813659534

   => Energetics <=

    Nuclear Repulsion Energy =              9.1334334609951409
    One-Electron Energy =                -122.8605575771143918
    Two-Electron Energy =                  37.6864659795239092
    Total Energy =                        -76.0406581365953400

Computation Completed


Properties will be evaluated at   0.000000,   0.000000,   0.000000 [a0]

Properties computed using the SCF density matrix

  Nuclear Dipole Moment: [e a0]
     X:     0.0000      Y:     0.0000      Z:     1.0109

  Electronic Dipole Moment: [e a0]
     X:     0.0000      Y:     0.0000      Z:    -0.2060

  Dipole Moment: [e a0]
     X:     0.0000      Y:     0.0000      Z:     0.8050     Total:     0.8050

  Dipole Moment: [D]
     X:     0.0000      Y:     0.0000      Z:     2.0460     Total:     2.0460


*** tstop() called on atlantis at Tue Apr 19 00:19:57 2022
Module time:
	user time   =       0.29 seconds =       0.00 minutes
	system time =       0.00 seconds =       0.00 minutes
	total time  =          0 seconds =       0.00 minutes
Total time:
	user time   =       0.29 seconds =       0.00 minutes
	system time =       0.00 seconds =       0.00 minutes
	total time  =          0 seconds =       0.00 minutes
 MINTS: Wrapper to libmints.
   by Justin Turney

   Calculation information:
      Number of threads:                 1
      Number of atoms:                   3
      Number of AO shells:              19
      Number of SO shells:              14
      Number of primitives:             39
      Number of atomic orbitals:        43
      Number of basis functions:        41

      Number of irreps:                  4
      Integral cutoff                 0.00e+00
      Number of functions per irrep: [  18    4   12    7 ]

 OEINTS: Overlap, kinetic, potential, dipole, and quadrupole integrals
         stored in file 35.

      Computing two-electron integrals...done
      Computed 92303 non-zero two-electron integrals.
        Stored in file 33.


*** tstart() called on atlantis
*** at Tue Apr 19 00:19:57 2022


	Wfn Parameters:
	--------------------
	Wavefunction         = CCSD
	Number of irreps     = 4
	Number of MOs        = 41
	Number of active MOs = 41
	AO-Basis             = NONE
	Semicanonical        = false
	Reference            = RHF
	Print Level          = 1

	IRREP	# MOs	# FZDC	# DOCC	# SOCC	# VIRT	# FZVR
	-----	-----	------	------	------	------	------
	 A1	   18	    0	    3	    0	    15	    0
	 A2	   4	    0	    0	    0	    4	    0
	 B1	   12	    0	    1	    0	    11	    0
	 B2	   7	    0	    1	    0	    6	    0
	Transforming integrals...
	IWL integrals will be deleted.
	(OO|OO)...
	Presorting SO-basis two-electron integrals.
	Sorting File: SO Ints (nn|nn) nbuckets = 1
	Transforming the one-electron integrals and constructing Fock matrices
	Starting first half-transformation.
	Sorting half-transformed integrals.
	First half integral transformation complete.
	Starting second half-transformation.
	Two-electron integral transformation complete.
	(OO|OV)...
	Starting second half-transformation.
	Two-electron integral transformation complete.
	(OO|VV)...
	Starting second half-transformation.
	Two-electron integral transformation complete.
	(OV|OO)...
	Starting first half-transformation.
	Sorting half-transformed integrals.
	First half integral transformation complete.
	Starting second half-transformation.
	Two-electron integral transformation complete.
	(OV|OV)...
	Starting second half-transformation.
	Two-electron integral transformation complete.
	(OV|VV)...
	Starting second half-transformation.
	Two-electron integral transformation complete.
	(VV|OO)...
	Starting first half-transformation.
	Sorting half-transformed integrals.
	First half integral transformation complete.
	Starting second half-transformation.
	Two-electron integral transformation complete.
	(VV|OV)...
	Starting second half-transformation.
	Two-electron integral transformation complete.
	(VV|VV)...
	Starting second half-transformation.
	Two-electron integral transformation complete.
	Frozen core energy     =      0.00000000000000

	Size of irrep 0 of <ab|cd> integrals:      0.158 (MW) /      1.267 (MB)
	Size of irrep 1 of <ab|cd> integrals:      0.064 (MW) /      0.508 (MB)
	Size of irrep 2 of <ab|cd> integrals:      0.143 (MW) /      1.143 (MB)
	Size of irrep 3 of <ab|cd> integrals:      0.072 (MW) /      0.575 (MB)
	Total:                                     0.437 (MW) /      3.493 (MB)

	Size of irrep 0 of <ia|bc> integrals:      0.025 (MW) /      0.197 (MB)
	Size of irrep 1 of <ia|bc> integrals:      0.007 (MW) /      0.058 (MB)
	Size of irrep 2 of <ia|bc> integrals:      0.020 (MW) /      0.157 (MB)
	Size of irrep 3 of <ia|bc> integrals:      0.010 (MW) /      0.079 (MB)
	Total:                                     0.062 (MW) /      0.492 (MB)

	Size of irrep 0 of tijab amplitudes:       0.004 (MW) /      0.035 (MB)
	Size of irrep 1 of tijab amplitudes:       0.001 (MW) /      0.004 (MB)
	Size of irrep 2 of tijab amplitudes:       0.002 (MW) /      0.018 (MB)
	Size of irrep 3 of tijab amplitudes:       0.002 (MW) /      0.013 (MB)
	Total:                                     0.009 (MW) /      0.070 (MB)

	Nuclear Rep. energy          =      9.13343346099514
	SCF energy                   =    -76.04065813659534
	One-electron energy          =   -122.86055739235725
	Two-electron energy          =     37.68646579476690
	Reference energy             =    -76.04065813659521

*** tstop() called on atlantis at Tue Apr 19 00:19:57 2022
Module time:
	user time   =       0.03 seconds =       0.00 minutes
	system time =       0.02 seconds =       0.00 minutes
	total time  =          0 seconds =       0.00 minutes
Total time:
	user time   =       0.35 seconds =       0.01 minutes
	system time =       0.02 seconds =       0.00 minutes
	total time  =          0 seconds =       0.00 minutes
            **************************
            *                        *
            *        CCENERGY        *
            *                        *
            **************************

    Nuclear Rep. energy (wfn)     =    9.133433460995141
    SCF energy          (wfn)     =  -76.040658136595340
    Reference energy    (file100) =  -76.040658136595212

    Input parameters:
    -----------------
    Wave function   =     CCSD
    Reference wfn   =     RHF
    Brueckner       =     No
    Memory (Mbytes) =     524.3
    Maxiter         =     50
    R_Convergence   =     1.0e-07
    E_Convergence   =     1.0e-06
    Restart         =     Yes
    DIIS            =     Yes
    AO Basis        =     NONE
    ABCD            =     NEW
    Cache Level     =     2
    Cache Type      =     LOW
    Print Level     =     1
    Num. of threads =     1
    # Amps to Print =     10
    Print MP2 Amps? =     No
    Analyze T2 Amps =     No
    Print Pair Ener =     No
    Local CC        =     No
    SCS-MP2         =     False
    SCSN-MP2        =     False
    SCS-CCSD        =     False

MP2 correlation energy -0.2226247034454214
                Solving CC Amplitude Equations
                ------------------------------
  Iter             Energy              RMS        T1Diag      D1Diag    New D1Diag    D2Diag
  ----     ---------------------    ---------   ----------  ----------  ----------   --------
     0        -0.222624703445421    0.000e+00    0.000000    0.000000    0.000000    0.114958
     1        -0.224385773068091    3.859e-02    0.009168    0.021277    0.021277    0.119766
     2        -0.228773930762142    1.303e-02    0.009233    0.021711    0.021711    0.124467
     3        -0.230141231608940    5.510e-03    0.010796    0.025865    0.025865    0.126812
     4        -0.230066929272942    1.014e-03    0.010980    0.026493    0.026493    0.126968
     5        -0.230073374836374    3.372e-04    0.011042    0.026735    0.026735    0.126999
     6        -0.230078334375464    9.047e-05    0.011062    0.026817    0.026817    0.126996
     7        -0.230076558723158    2.778e-05    0.011064    0.026832    0.026832    0.126988
     8        -0.230076229487124    7.916e-06    0.011065    0.026837    0.026837    0.126987
     9        -0.230076322033744    2.666e-06    0.011066    0.026838    0.026838    0.126987
    10        -0.230076192192793    8.998e-07    0.011066    0.026838    0.026838    0.126987
    11        -0.230076200537743    2.949e-07    0.011066    0.026838    0.026838    0.126987
    12        -0.230076194394633    1.215e-07    0.011066    0.026838    0.026838    0.126987
    13        -0.230076196338397    3.353e-08    0.011066    0.026838    0.026838    0.126987

    Iterations converged.


    Largest TIA Amplitudes:
              4  30        -0.0216771076
              4  31        -0.0157535903
              2   1         0.0119601648
              2   4        -0.0116712102
              3  27         0.0076484182
              3  21        -0.0045112245
              1   2         0.0044465687
              2   0        -0.0043145104
              2  11        -0.0041593125
              1  11        -0.0035727570

    Largest TIjAb Amplitudes:
      4   4  33  33        -0.0348460858
      3   3  24  24        -0.0259557332
      2   2  24  24        -0.0209590134
      3   3  21  21        -0.0208562630
      2   2   9   9        -0.0201608642
      3   3  21  24        -0.0193794458
      3   3  24  21        -0.0193794458
      4   4  30  33        -0.0185744598
      4   4  33  30        -0.0185744598
      4   4  30  30        -0.0182620237

    SCF energy       (wfn)                    =  -76.040658136595340
    Reference energy (file100)                =  -76.040658136595212

    Opposite-spin MP2 correlation energy      =   -0.165752187419424
    Same-spin MP2 correlation energy          =   -0.056872516025997
    MP2 correlation energy                    =   -0.222624703445421
      * MP2 total energy                      =  -76.263282840040631

    Opposite-spin CCSD correlation energy     =   -0.179835448662777
    Same-spin CCSD correlation energy         =   -0.050240747675620
    CCSD correlation energy                   =   -0.230076196338397
      * CCSD total energy                     =  -76.270734332933614

gradient() will perform analytic gradient computation.

*** tstart() called on atlantis
*** at Tue Apr 19 00:19:57 2022

   => Loading Basis Set <=

    Name: AUG-CC-PVDZ
    Role: ORBITAL
    Keyword: BASIS
    atoms 1   entry O          line   250 file /home/akrom/software/anaconda3/envs/ffpenv/share/psi4/basis/aug-cc-pvdz.gbs 
    atoms 2-3 entry H          line    36 file /home/akrom/software/anaconda3/envs/ffpenv/share/psi4/basis/aug-cc-pvdz.gbs 


         ---------------------------------------------------------
                                   SCF
               by Justin Turney, Rob Parrish, Andy Simmonett
                          and Daniel G. A. Smith
                              RHF Reference
                        1 Threads,    500 MiB Core
         ---------------------------------------------------------

  ==> Geometry <==

    Molecular point group: c2v
    Full point group: C2v

    Geometry (in Angstrom), charge = 0, multiplicity = 1:

       Center              X                  Y                   Z               Mass       
    ------------   -----------------  -----------------  -----------------  -----------------
         O            0.000000000000     0.000000000000    -0.067969259994    15.994914619570
         H            0.749030000000     0.000000000000     0.539360740006     1.007825032230
         H           -0.749030000000    -0.000000000000     0.539360740006     1.007825032230

  Running in c2v symmetry.

  Rotational constants: A =     25.53156  B =     14.90675  C =      9.41168 [cm^-1]
  Rotational constants: A = 765416.81232  B = 446893.08836  C = 282155.15104 [MHz]
  Nuclear repulsion =    9.133433460995141

  Charge       = 0
  Multiplicity = 1
  Electrons    = 10
  Nalpha       = 5
  Nbeta        = 5

  ==> Algorithm <==

  SCF Algorithm Type is PK.
  DIIS enabled.
  MOM disabled.
  Fractional occupation disabled.
  Guess Type is SAD.
  Energy threshold   = 1.00e-10
  Density threshold  = 1.00e-10
  Integral threshold = 0.00e+00

  ==> Primary Basis <==

  Basis Set: AUG-CC-PVDZ
    Blend: AUG-CC-PVDZ
    Number of shells: 19
    Number of basis function: 41
    Number of Cartesian functions: 43
    Spherical Harmonics?: true
    Max angular momentum: 2

  ==> Pre-Iterations <==

   -------------------------------------------------------
    Irrep   Nso     Nmo     Nalpha   Nbeta   Ndocc  Nsocc
   -------------------------------------------------------
     A1        18      18       0       0       0       0
     A2         4       4       0       0       0       0
     B1        12      12       0       0       0       0
     B2         7       7       0       0       0       0
   -------------------------------------------------------
    Total      41      41       5       5       5       0
   -------------------------------------------------------

  ==> Integral Setup <==

  Using in-core PK algorithm.
   Calculation information:
      Number of atoms:                   3
      Number of AO shells:              19
      Number of primitives:             39
      Number of atomic orbitals:        43
      Number of basis functions:        41

      Integral cutoff                 1.00e-12
      Number of threads:                 1

  Performing in-core PK
  Using 742182 doubles for integral storage.
  We computed 18145 shell quartets total.
  Whereas there are 18145 unique shell quartets.

  ==> DiskJK: Disk-Based J/K Matrices <==

    J tasked:                  Yes
    K tasked:                  Yes
    wK tasked:                  No
    Memory [MiB]:              375
    Schwarz Cutoff:          1E-12

    OpenMP threads:              1

  Minimum eigenvalue in the overlap matrix is 2.6286121429E-03.
  Using Symmetric Orthogonalization.

  SCF Guess: Superposition of Atomic Densities via on-the-fly atomic UHF.

  ==> Iterations <==

                        Total Energy        Delta E     RMS |[F,P]|

   @RHF iter SAD:   -75.46053502675170   -7.54605e+01   0.00000e+00 
   @RHF iter   1:   -75.95597378814530   -4.95439e-01   1.96190e-02 DIIS
   @RHF iter   2:   -76.00908568332429   -5.31119e-02   1.29129e-02 DIIS
   @RHF iter   3:   -76.04025313582193   -3.11675e-02   9.23521e-04 DIIS
   @RHF iter   4:   -76.04063395555539   -3.80820e-04   2.10270e-04 DIIS
   @RHF iter   5:   -76.04065627023505   -2.23147e-05   4.80040e-05 DIIS
   @RHF iter   6:   -76.04065806067267   -1.79044e-06   9.57574e-06 DIIS
   @RHF iter   7:   -76.04065813478638   -7.41137e-08   1.54238e-06 DIIS
   @RHF iter   8:   -76.04065813655576   -1.76938e-09   2.37110e-07 DIIS
   @RHF iter   9:   -76.04065813659264   -3.68772e-11   6.18660e-08 DIIS
   @RHF iter  10:   -76.04065813659534   -2.70006e-12   8.82978e-09 DIIS
   @RHF iter  11:   -76.04065813659523    1.13687e-13   1.28544e-09 DIIS
   @RHF iter  12:   -76.04065813659518    4.26326e-14   1.95548e-10 DIIS
   @RHF iter  13:   -76.04065813659527   -8.52651e-14   3.02067e-11 DIIS
  Energy and wave function converged.


  ==> Post-Iterations <==

    Orbital Energies [Eh]
    ---------------------

    Doubly Occupied:                                                      

       1A1   -20.579606     2A1    -1.354874     1B1    -0.710329  
       3A1    -0.589399     1B2    -0.509605  

    Virtual:                                                              

       4A1     0.035093     2B1     0.058122     5A1     0.173817  
       2B2     0.197322     6A1     0.222470     3B1     0.232461  
       4B1     0.287334     7A1     0.334511     1A2     0.386759  
       8A1     0.398096     3B2     0.428951     5B1     0.540722  
       9A1     0.646027     6B1     0.658430     7B1     0.802092  
      10A1     0.935656     4B2     1.104223    11A1     1.119205  
       2A2     1.148113    12A1     1.293368     8B1     1.460899  
       5B2     1.477866    13A1     1.584234     3A2     2.000987  
       9B1     2.005148     6B2     2.112431    14A1     2.334944  
      10B1     2.473456    15A1     2.617584    11B1     2.706065  
      16A1     2.986794     7B2     3.674390    17A1     3.691395  
       4A2     3.700441    18A1     4.004088    12B1     4.299409  

    Final Occupation by Irrep:
             A1    A2    B1    B2 
    DOCC [     3,    0,    1,    1 ]

  @RHF Final Energy:   -76.04065813659527

   => Energetics <=

    Nuclear Repulsion Energy =              9.1334334609951409
    One-Electron Energy =                -122.8605573898162504
    Two-Electron Energy =                  37.6864657922258530
    Total Energy =                        -76.0406581365952547

Computation Completed


Properties will be evaluated at   0.000000,   0.000000,   0.000000 [a0]

Properties computed using the SCF density matrix

  Nuclear Dipole Moment: [e a0]
     X:     0.0000      Y:     0.0000      Z:     1.0109

  Electronic Dipole Moment: [e a0]
     X:     0.0000      Y:     0.0000      Z:    -0.2060

  Dipole Moment: [e a0]
     X:     0.0000      Y:     0.0000      Z:     0.8050     Total:     0.8050

  Dipole Moment: [D]
     X:     0.0000      Y:     0.0000      Z:     2.0460     Total:     2.0460


*** tstop() called on atlantis at Tue Apr 19 00:19:57 2022
Module time:
	user time   =       0.29 seconds =       0.00 minutes
	system time =       0.00 seconds =       0.00 minutes
	total time  =          0 seconds =       0.00 minutes
Total time:
	user time   =       0.70 seconds =       0.01 minutes
	system time =       0.09 seconds =       0.00 minutes
	total time  =          0 seconds =       0.00 minutes
 MINTS: Wrapper to libmints.
   by Justin Turney

   Calculation information:
      Number of threads:                 1
      Number of atoms:                   3
      Number of AO shells:              19
      Number of SO shells:              14
      Number of primitives:             39
      Number of atomic orbitals:        43
      Number of basis functions:        41

      Number of irreps:                  4
      Integral cutoff                 0.00e+00
      Number of functions per irrep: [  18    4   12    7 ]

 OEINTS: Overlap, kinetic, potential, dipole, and quadrupole integrals
         stored in file 35.

      Computing two-electron integrals...done
      Computed 92303 non-zero two-electron integrals.
        Stored in file 33.


*** tstart() called on atlantis
*** at Tue Apr 19 00:19:57 2022


	Wfn Parameters:
	--------------------
	Wavefunction         = CCSD
	Number of irreps     = 4
	Number of MOs        = 41
	Number of active MOs = 41
	AO-Basis             = NONE
	Semicanonical        = false
	Reference            = RHF
	Print Level          = 1

	IRREP	# MOs	# FZDC	# DOCC	# SOCC	# VIRT	# FZVR
	-----	-----	------	------	------	------	------
	 A1	   18	    0	    3	    0	    15	    0
	 A2	   4	    0	    0	    0	    4	    0
	 B1	   12	    0	    1	    0	    11	    0
	 B2	   7	    0	    1	    0	    6	    0
	Transforming integrals...
	IWL integrals will be deleted.
	(OO|OO)...
	Presorting SO-basis two-electron integrals.
	Sorting File: SO Ints (nn|nn) nbuckets = 1
	Transforming the one-electron integrals and constructing Fock matrices
	Starting first half-transformation.
	Sorting half-transformed integrals.
	First half integral transformation complete.
	Starting second half-transformation.
	Two-electron integral transformation complete.
	(OO|OV)...
	Starting second half-transformation.
	Two-electron integral transformation complete.
	(OO|VV)...
	Starting second half-transformation.
	Two-electron integral transformation complete.
	(OV|OO)...
	Starting first half-transformation.
	Sorting half-transformed integrals.
	First half integral transformation complete.
	Starting second half-transformation.
	Two-electron integral transformation complete.
	(OV|OV)...
	Starting second half-transformation.
	Two-electron integral transformation complete.
	(OV|VV)...
	Starting second half-transformation.
	Two-electron integral transformation complete.
	(VV|OO)...
	Starting first half-transformation.
	Sorting half-transformed integrals.
	First half integral transformation complete.
	Starting second half-transformation.
	Two-electron integral transformation complete.
	(VV|OV)...
	Starting second half-transformation.
	Two-electron integral transformation complete.
	(VV|VV)...
	Starting second half-transformation.
	Two-electron integral transformation complete.
	Frozen core energy     =      0.00000000000000

	Size of irrep 0 of <ab|cd> integrals:      0.158 (MW) /      1.267 (MB)
	Size of irrep 1 of <ab|cd> integrals:      0.064 (MW) /      0.508 (MB)
	Size of irrep 2 of <ab|cd> integrals:      0.143 (MW) /      1.143 (MB)
	Size of irrep 3 of <ab|cd> integrals:      0.072 (MW) /      0.575 (MB)
	Total:                                     0.437 (MW) /      3.493 (MB)

	Size of irrep 0 of <ia|bc> integrals:      0.025 (MW) /      0.197 (MB)
	Size of irrep 1 of <ia|bc> integrals:      0.007 (MW) /      0.058 (MB)
	Size of irrep 2 of <ia|bc> integrals:      0.020 (MW) /      0.157 (MB)
	Size of irrep 3 of <ia|bc> integrals:      0.010 (MW) /      0.079 (MB)
	Total:                                     0.062 (MW) /      0.492 (MB)

	Size of irrep 0 of tijab amplitudes:       0.004 (MW) /      0.035 (MB)
	Size of irrep 1 of tijab amplitudes:       0.001 (MW) /      0.004 (MB)
	Size of irrep 2 of tijab amplitudes:       0.002 (MW) /      0.018 (MB)
	Size of irrep 3 of tijab amplitudes:       0.002 (MW) /      0.013 (MB)
	Total:                                     0.009 (MW) /      0.070 (MB)

	Nuclear Rep. energy          =      9.13343346099514
	SCF energy                   =    -76.04065813659527
	One-electron energy          =   -122.86055739065692
	Two-electron energy          =     37.68646579306654
	Reference energy             =    -76.04065813659524

*** tstop() called on atlantis at Tue Apr 19 00:19:57 2022
Module time:
	user time   =       0.03 seconds =       0.00 minutes
	system time =       0.01 seconds =       0.00 minutes
	total time  =          0 seconds =       0.00 minutes
Total time:
	user time   =       0.76 seconds =       0.01 minutes
	system time =       0.10 seconds =       0.00 minutes
	total time  =          0 seconds =       0.00 minutes
            **************************
            *                        *
            *        CCENERGY        *
            *                        *
            **************************

    Nuclear Rep. energy (wfn)     =    9.133433460995141
    SCF energy          (wfn)     =  -76.040658136595269
    Reference energy    (file100) =  -76.040658136595241

    Input parameters:
    -----------------
    Wave function   =     CCSD
    Reference wfn   =     RHF
    Brueckner       =     No
    Memory (Mbytes) =     524.3
    Maxiter         =     50
    R_Convergence   =     1.0e-07
    E_Convergence   =     1.0e-08
    Restart         =     Yes
    DIIS            =     Yes
    AO Basis        =     NONE
    ABCD            =     NEW
    Cache Level     =     2
    Cache Type      =     LOW
    Print Level     =     1
    Num. of threads =     1
    # Amps to Print =     10
    Print MP2 Amps? =     No
    Analyze T2 Amps =     No
    Print Pair Ener =     No
    Local CC        =     No
    SCS-MP2         =     False
    SCSN-MP2        =     False
    SCS-CCSD        =     False

    Using old T1 amplitudes.
    Using old T2 amplitudes.

MP2 correlation energy -0.2226247035322514
                Solving CC Amplitude Equations
                ------------------------------
  Iter             Energy              RMS        T1Diag      D1Diag    New D1Diag    D2Diag
  ----     ---------------------    ---------   ----------  ----------  ----------   --------
     0        -0.230076196419424    0.000e+00    0.011066    0.026838    0.026838    0.126987
     1        -0.230076196671799    1.873e-08    0.011066    0.026838    0.026838    0.126987
     2        -0.230076196892914    1.036e-08    0.011066    0.026838    0.026838    0.126987

    Iterations converged.


    Largest TIA Amplitudes:
              4  30        -0.0216770965
              4  31        -0.0157535858
              2   1         0.0119601730
              2   4        -0.0116712130
              3  27         0.0076484182
              3  21        -0.0045112275
              1   2         0.0044465674
              2   0        -0.0043145201
              2  11        -0.0041593128
              1  11        -0.0035727571

    Largest TIjAb Amplitudes:
      4   4  33  33        -0.0348460869
      3   3  24  24        -0.0259557335
      2   2  24  24        -0.0209590136
      3   3  21  21        -0.0208562642
      2   2   9   9        -0.0201608641
      3   3  21  24        -0.0193794466
      3   3  24  21        -0.0193794466
      4   4  30  33        -0.0185744586
      4   4  33  30        -0.0185744586
      4   4  30  30        -0.0182620204

    SCF energy       (wfn)                    =  -76.040658136595269
    Reference energy (file100)                =  -76.040658136595241

    Opposite-spin MP2 correlation energy      =   -0.165752187475384
    Same-spin MP2 correlation energy          =   -0.056872516056867
    MP2 correlation energy                    =   -0.222624703532251
      * MP2 total energy                      =  -76.263282840127488

    Opposite-spin CCSD correlation energy     =   -0.179835450125843
    Same-spin CCSD correlation energy         =   -0.050240746767071
    CCSD correlation energy                   =   -0.230076196892914
      * CCSD total energy                     =  -76.270734333488150


			**************************
			*                        *
			*         CCHBAR         *
			*                        *
			**************************


			**************************
			*        CCLAMBDA        *
			**************************


	Nuclear Rep. energy (wfn)     =    9.133433460995141
	Reference           (wfn)     =                    0
	SCF energy          (wfn)     =  -76.040658136595269
	Reference energy    (CC_INFO) =  -76.040658136595241
	CCSD energy         (CC_INFO) =   -0.230076196892914
	Total CCSD energy   (CC_INFO) =  -76.270734333488150

	Input parameters:
	-----------------
	Maxiter           =     50
	Convergence       = 1.0e-07
	Restart           =     No
	Cache Level       =     2
	Model III         =     No
	DIIS              =     Yes
	AO Basis          =     No
	ABCD              =     NEW
	Local CC          =     No
	Parameters for left-handed eigenvectors:
	    Irr   Root  Ground-State?    EOM energy        R0
	  1   0     0        Yes       0.0000000000   1.0000000000
	Labels for eigenvector 1:
	LIA 0 -1, Lia 0 -1, LIJAB 0 -1, Lijab 0 -1, LIjAb 0 -1, 2LIjAb - LIjbA 0 -1
	Symmetry of left-hand state: A1
	Symmetry of left-hand eigenvector: A1

	          Solving Lambda Equations
	          ------------------------
	Iter     PseudoEnergy or Norm         RMS  
	----     ---------------------     --------
	   0        -0.230177167672385    0.000e+00
	   1        -0.226658723351610    1.687e-02
	   2        -0.225893879290283    3.114e-03
	   3        -0.225729366435078    1.832e-03
	   4        -0.225704064467564    4.207e-04
	   5        -0.225713104507262    1.163e-04
	   6        -0.225713837652043    3.564e-05
	   7        -0.225713171077309    9.586e-06
	   8        -0.225713195389402    3.021e-06
	   9        -0.225713224617536    1.076e-06
	  10        -0.225713226995546    3.437e-07
	  11        -0.225713228950677    1.034e-07
	  12        -0.225713227342438    3.050e-08

	Largest LIA Amplitudes:
	          4  30        -0.0137889298
	          4  31        -0.0099185204
	          3  27         0.0066587265
	          2   4        -0.0065057236
	          2   1         0.0063828270
	          2   9         0.0037987635
	          1  11        -0.0035355385
	          2  11        -0.0034076639
	          3  25         0.0025867667
	          1   4         0.0025235267

	Largest LIjAb Amplitudes:
	  4   4  33  33        -0.0345532282
	  3   3  24  24        -0.0253032021
	  2   2  24  24        -0.0203141589
	  3   3  21  21        -0.0202202358
	  2   2   9   9        -0.0198795547
	  3   3  21  24        -0.0189130714
	  3   3  24  21        -0.0189130714
	  4   4  30  33        -0.0182427207
	  4   4  33  30        -0.0182427207
	  4   4  30  30        -0.0173232021

	Iterations converged.

	Overlap <L|e^T> =        0.93465223524

			**************************
			*                        *
			*        CCDENSITY       *
			*                        *
			**************************


	Input parameters:
	-----------------
	Wave function    =   CCSD
	Reference wfn    =   RHF
	Dertype          = 1
	Tolerance        = 1.0e-14
	Cache Level      = 2
	AO Basis         = No
	OPDM Only        = No
	Relax OPDM       = Yes
	Compute Xi       = No
	Use Zeta         = No
	Xi connected     = Yes
	Compute NO       = No

	Nuclear Rep. energy (wfn)     =    9.133433460995141
	SCF energy          (wfn)     =  -76.040658136595269
	Reference energy    (file100) =  -76.040658136595241
	CCSD energy         (CC_INFO) =   -0.230076196892914
	Total CCSD energy   (CC_INFO) =  -76.270734333488150
	Number of States = 1

	Ground?  State     EOM Energy       R0
	  Yes     0 A1    0.0000000000   1.00000000

	Virial Theorem Data:
	--------------------
	Kinetic energy (ref)   =   75.903201367227467
	Kinetic energy (corr)  =    0.121602534147834
	Kinetic energy (total) =   76.024803901375307
	-V/T (ref)             =    2.001810948245816
	-V/T (corr)            =    2.892034557546371
	-V/T (total)           =    2.003234870982790
  Cartesian Displacement SALCs
  By SALC:
  Number of SALCs: 3, nirreps: A1
  Project out translations: False
  Project out rotations: False
	irrep = 0, ncomponent = 1
		0: atom 0, direction z, coef 1.000000
	irrep = 0, ncomponent = 2
		0: atom 1, direction x, coef 0.707107
		1: atom 2, direction x, coef -0.707107
	irrep = 0, ncomponent = 2
		0: atom 1, direction z, coef 0.707107
		1: atom 2, direction z, coef 0.707107

  By Atomic Center:
  Number of atomic centers: 3
   Atomic Center 0:
	x component, size = 0
	y component, size = 0
	z component, size = 1
		0: salc 0, irrep 0, coef 1.000000
   Atomic Center 1:
	x component, size = 1
		0: salc 1, irrep 0, coef 0.707107
	y component, size = 0
	z component, size = 1
		0: salc 2, irrep 0, coef 0.707107
   Atomic Center 2:
	x component, size = 1
		0: salc 1, irrep 0, coef -0.707107
	y component, size = 0
	z component, size = 1
		0: salc 2, irrep 0, coef 0.707107

    Molecular point group: c2v
    Full point group: C2v

    Geometry (in Bohr), charge = 0, multiplicity = 1:

       Center              X                  Y                   Z       
    ------------   -----------------  -----------------  -----------------
         O            0.000000000000     0.000000000000    -0.128443286339
         H            1.415461559752     0.000000000000     1.019244081436
         H           -1.415461559752    -0.000000000000     1.019244081436

	Presorting MO-basis TPDM.
	Sorting File: MO TPDM (AA|AA) nbuckets = 1
	Starting first half-transformation.
	Sorting half-transformed TPDM.
	First half integral transformation complete.


  -Nuclear Repulsion Energy 1st Derivatives:
     Atom            X                  Y                   Z
    ------   -----------------  -----------------  -----------------
       1        0.000000000000     0.000000000000     3.034559410088
       2       -1.996065495508    -0.000000000000    -1.517279705044
       3        1.996065495508     0.000000000000    -1.517279705044


  -Core Hamiltonian Gradient:
     Atom            X                  Y                   Z
    ------   -----------------  -----------------  -----------------
       1        0.000000000000     0.000000000000    -7.777857856572
       2        4.887173659471     0.000000000000     3.888928928286
       3       -4.887173659471    -0.000000000000     3.888928928286


  -Lagrangian contribution to gradient:
     Atom            X                  Y                   Z
    ------   -----------------  -----------------  -----------------
       1        0.000000000000     0.000000000000     0.531097882009
       2       -0.295903516879    -0.000000000000    -0.265548941004
       3        0.295903516879     0.000000000000    -0.265548941004


  -Two-electron contribution to gradient:
     Atom            X                  Y                   Z
    ------   -----------------  -----------------  -----------------
       1        0.000000000000     0.000000000000     4.207755928704
       2       -2.598089708406    -0.000000000000    -2.103877964352
       3        2.598089708406     0.000000000000    -2.103877964352


  -Total gradient:
     Atom            X                  Y                   Z
    ------   -----------------  -----------------  -----------------
       1        0.000000000000     0.000000000000    -0.004444635771
       2       -0.002885061321    -0.000000000000     0.002222317886
       3        0.002885061321     0.000000000000     0.002222317886


  Based on options and gradient (rms=2.27E-03), recommend projecting translations and projecting rotations.
hessian() will perform frequency computation by finite difference of analytic gradients.

         ----------------------------------------------------------
                                   FINDIF
                     R. A. King and Jonathon Misiewicz
         ---------------------------------------------------------

  Using finite-differences of gradients to determine vibrational frequencies and 
  normal modes.  Resulting frequencies are only valid at stationary points.
    Generating geometries for use with 3-point formula.
    Displacement size will be 5.00e-03.
    Number of atoms is 3.
    Number of irreps is 4.
    Number of SALCs is 3.
    Translations projected? 1. Rotations projected? 1.
    Index of SALCs per irrep:
     1 :  0  1 
     2 : 
     3 :  2 
     4 : 
    Number of SALCs per irrep:
     Irrep 1: 2
     Irrep 2: 0
     Irrep 3: 1
     Irrep 4: 0
    Number of geometries (including reference) is 6.
    Number of displacements per irrep:
      Irrep 1: 4
      Irrep 2: 0
      Irrep 3: 1
      Irrep 4: 0

  //>>>>>>>>>>>>>>>>>>>>>>>>>>>>>>>>>>>//
  //    Loading displacement 1 of 6    //
  //<<<<<<<<<<<<<<<<<<<<<<<<<<<<<<<<<<<//
gradient() will perform analytic gradient computation.

*** tstart() called on atlantis
*** at Tue Apr 19 00:19:58 2022

   => Loading Basis Set <=

    Name: AUG-CC-PVDZ
    Role: ORBITAL
    Keyword: BASIS
    atoms 1   entry O          line   250 file /home/akrom/software/anaconda3/envs/ffpenv/share/psi4/basis/aug-cc-pvdz.gbs 
    atoms 2-3 entry H          line    36 file /home/akrom/software/anaconda3/envs/ffpenv/share/psi4/basis/aug-cc-pvdz.gbs 


         ---------------------------------------------------------
                                   SCF
               by Justin Turney, Rob Parrish, Andy Simmonett
                          and Daniel G. A. Smith
                              RHF Reference
                        1 Threads,    500 MiB Core
         ---------------------------------------------------------

  ==> Geometry <==

    Molecular point group: c2v
    Full point group: C2v

    Geometry (in Angstrom), charge = 0, multiplicity = 1:

       Center              X                  Y                   Z               Mass       
    ------------   -----------------  -----------------  -----------------  -----------------
         O            0.000000000000     0.000000000000    -0.067969259994    15.994914619570
         H            0.749030000000     0.000000000000     0.539360740006     1.007825032230
         H           -0.749030000000    -0.000000000000     0.539360740006     1.007825032230

  Running in c2v symmetry.

  Rotational constants: A =     25.53156  B =     14.90675  C =      9.41168 [cm^-1]
  Rotational constants: A = 765416.81232  B = 446893.08836  C = 282155.15104 [MHz]
  Nuclear repulsion =    9.133433460995141

  Charge       = 0
  Multiplicity = 1
  Electrons    = 10
  Nalpha       = 5
  Nbeta        = 5

  ==> Algorithm <==

  SCF Algorithm Type is PK.
  DIIS enabled.
  MOM disabled.
  Fractional occupation disabled.
  Guess Type is SAD.
  Energy threshold   = 1.00e-10
  Density threshold  = 1.00e-10
  Integral threshold = 0.00e+00

  ==> Primary Basis <==

  Basis Set: AUG-CC-PVDZ
    Blend: AUG-CC-PVDZ
    Number of shells: 19
    Number of basis function: 41
    Number of Cartesian functions: 43
    Spherical Harmonics?: true
    Max angular momentum: 2

  ==> Pre-Iterations <==

   -------------------------------------------------------
    Irrep   Nso     Nmo     Nalpha   Nbeta   Ndocc  Nsocc
   -------------------------------------------------------
     A1        18      18       0       0       0       0
     A2         4       4       0       0       0       0
     B1        12      12       0       0       0       0
     B2         7       7       0       0       0       0
   -------------------------------------------------------
    Total      41      41       5       5       5       0
   -------------------------------------------------------

  ==> Integral Setup <==

  Using in-core PK algorithm.
   Calculation information:
      Number of atoms:                   3
      Number of AO shells:              19
      Number of primitives:             39
      Number of atomic orbitals:        43
      Number of basis functions:        41

      Integral cutoff                 1.00e-12
      Number of threads:                 1

  Performing in-core PK
  Using 742182 doubles for integral storage.
  We computed 18145 shell quartets total.
  Whereas there are 18145 unique shell quartets.

  ==> DiskJK: Disk-Based J/K Matrices <==

    J tasked:                  Yes
    K tasked:                  Yes
    wK tasked:                  No
    Memory [MiB]:              375
    Schwarz Cutoff:          1E-12

    OpenMP threads:              1

  Minimum eigenvalue in the overlap matrix is 2.6286121429E-03.
  Using Symmetric Orthogonalization.

  SCF Guess: Superposition of Atomic Densities via on-the-fly atomic UHF.

  ==> Iterations <==

                        Total Energy        Delta E     RMS |[F,P]|

   @RHF iter SAD:   -75.46053502675170   -7.54605e+01   0.00000e+00 
   @RHF iter   1:   -75.95597378814529   -4.95439e-01   1.96190e-02 DIIS
   @RHF iter   2:   -76.00908568332429   -5.31119e-02   1.29129e-02 DIIS
   @RHF iter   3:   -76.04025313582187   -3.11675e-02   9.23521e-04 DIIS
   @RHF iter   4:   -76.04063395555541   -3.80820e-04   2.10270e-04 DIIS
   @RHF iter   5:   -76.04065627023513   -2.23147e-05   4.80040e-05 DIIS
   @RHF iter   6:   -76.04065806067263   -1.79044e-06   9.57574e-06 DIIS
   @RHF iter   7:   -76.04065813478641   -7.41138e-08   1.54238e-06 DIIS
   @RHF iter   8:   -76.04065813655571   -1.76929e-09   2.37110e-07 DIIS
   @RHF iter   9:   -76.04065813659271   -3.70051e-11   6.18660e-08 DIIS
   @RHF iter  10:   -76.04065813659530   -2.58638e-12   8.82979e-09 DIIS
   @RHF iter  11:   -76.04065813659520    9.94760e-14   1.28544e-09 DIIS
   @RHF iter  12:   -76.04065813659517    2.84217e-14   1.95549e-10 DIIS
   @RHF iter  13:   -76.04065813659524   -7.10543e-14   3.02062e-11 DIIS
  Energy and wave function converged.


  ==> Post-Iterations <==

    Orbital Energies [Eh]
    ---------------------

    Doubly Occupied:                                                      

       1A1   -20.579606     2A1    -1.354874     1B1    -0.710329  
       3A1    -0.589399     1B2    -0.509605  

    Virtual:                                                              

       4A1     0.035093     2B1     0.058122     5A1     0.173817  
       2B2     0.197322     6A1     0.222470     3B1     0.232461  
       4B1     0.287334     7A1     0.334511     1A2     0.386759  
       8A1     0.398096     3B2     0.428951     5B1     0.540722  
       9A1     0.646027     6B1     0.658430     7B1     0.802092  
      10A1     0.935656     4B2     1.104223    11A1     1.119205  
       2A2     1.148113    12A1     1.293368     8B1     1.460899  
       5B2     1.477866    13A1     1.584234     3A2     2.000987  
       9B1     2.005148     6B2     2.112431    14A1     2.334944  
      10B1     2.473456    15A1     2.617584    11B1     2.706065  
      16A1     2.986794     7B2     3.674390    17A1     3.691395  
       4A2     3.700441    18A1     4.004088    12B1     4.299409  

    Final Occupation by Irrep:
             A1    A2    B1    B2 
    DOCC [     3,    0,    1,    1 ]

  @RHF Final Energy:   -76.04065813659524

   => Energetics <=

    Nuclear Repulsion Energy =              9.1334334609951409
    One-Electron Energy =                -122.8605573898160941
    Two-Electron Energy =                  37.6864657922257251
    Total Energy =                        -76.0406581365952263

Computation Completed


Properties will be evaluated at   0.000000,   0.000000,   0.000000 [a0]

Properties computed using the SCF density matrix

  Nuclear Dipole Moment: [e a0]
     X:     0.0000      Y:     0.0000      Z:     1.0109

  Electronic Dipole Moment: [e a0]
     X:     0.0000      Y:     0.0000      Z:    -0.2060

  Dipole Moment: [e a0]
     X:     0.0000      Y:     0.0000      Z:     0.8050     Total:     0.8050

  Dipole Moment: [D]
     X:     0.0000      Y:     0.0000      Z:     2.0460     Total:     2.0460


*** tstop() called on atlantis at Tue Apr 19 00:19:58 2022
Module time:
	user time   =       0.28 seconds =       0.00 minutes
	system time =       0.01 seconds =       0.00 minutes
	total time  =          0 seconds =       0.00 minutes
Total time:
	user time   =       1.51 seconds =       0.03 minutes
	system time =       0.20 seconds =       0.00 minutes
	total time  =          1 seconds =       0.02 minutes
 MINTS: Wrapper to libmints.
   by Justin Turney

   Calculation information:
      Number of threads:                 1
      Number of atoms:                   3
      Number of AO shells:              19
      Number of SO shells:              14
      Number of primitives:             39
      Number of atomic orbitals:        43
      Number of basis functions:        41

      Number of irreps:                  4
      Integral cutoff                 0.00e+00
      Number of functions per irrep: [  18    4   12    7 ]

 OEINTS: Overlap, kinetic, potential, dipole, and quadrupole integrals
         stored in file 35.

      Computing two-electron integrals...done
      Computed 92303 non-zero two-electron integrals.
        Stored in file 33.


*** tstart() called on atlantis
*** at Tue Apr 19 00:19:58 2022


	Wfn Parameters:
	--------------------
	Wavefunction         = CCSD
	Number of irreps     = 4
	Number of MOs        = 41
	Number of active MOs = 41
	AO-Basis             = NONE
	Semicanonical        = false
	Reference            = RHF
	Print Level          = 1

	IRREP	# MOs	# FZDC	# DOCC	# SOCC	# VIRT	# FZVR
	-----	-----	------	------	------	------	------
	 A1	   18	    0	    3	    0	    15	    0
	 A2	   4	    0	    0	    0	    4	    0
	 B1	   12	    0	    1	    0	    11	    0
	 B2	   7	    0	    1	    0	    6	    0
	Transforming integrals...
	IWL integrals will be deleted.
	(OO|OO)...
	Presorting SO-basis two-electron integrals.
	Sorting File: SO Ints (nn|nn) nbuckets = 1
	Transforming the one-electron integrals and constructing Fock matrices
	Starting first half-transformation.
	Sorting half-transformed integrals.
	First half integral transformation complete.
	Starting second half-transformation.
	Two-electron integral transformation complete.
	(OO|OV)...
	Starting second half-transformation.
	Two-electron integral transformation complete.
	(OO|VV)...
	Starting second half-transformation.
	Two-electron integral transformation complete.
	(OV|OO)...
	Starting first half-transformation.
	Sorting half-transformed integrals.
	First half integral transformation complete.
	Starting second half-transformation.
	Two-electron integral transformation complete.
	(OV|OV)...
	Starting second half-transformation.
	Two-electron integral transformation complete.
	(OV|VV)...
	Starting second half-transformation.
	Two-electron integral transformation complete.
	(VV|OO)...
	Starting first half-transformation.
	Sorting half-transformed integrals.
	First half integral transformation complete.
	Starting second half-transformation.
	Two-electron integral transformation complete.
	(VV|OV)...
	Starting second half-transformation.
	Two-electron integral transformation complete.
	(VV|VV)...
	Starting second half-transformation.
	Two-electron integral transformation complete.
	Frozen core energy     =      0.00000000000000

	Size of irrep 0 of <ab|cd> integrals:      0.158 (MW) /      1.267 (MB)
	Size of irrep 1 of <ab|cd> integrals:      0.064 (MW) /      0.508 (MB)
	Size of irrep 2 of <ab|cd> integrals:      0.143 (MW) /      1.143 (MB)
	Size of irrep 3 of <ab|cd> integrals:      0.072 (MW) /      0.575 (MB)
	Total:                                     0.437 (MW) /      3.493 (MB)

	Size of irrep 0 of <ia|bc> integrals:      0.025 (MW) /      0.197 (MB)
	Size of irrep 1 of <ia|bc> integrals:      0.007 (MW) /      0.058 (MB)
	Size of irrep 2 of <ia|bc> integrals:      0.020 (MW) /      0.157 (MB)
	Size of irrep 3 of <ia|bc> integrals:      0.010 (MW) /      0.079 (MB)
	Total:                                     0.062 (MW) /      0.492 (MB)

	Size of irrep 0 of tijab amplitudes:       0.004 (MW) /      0.035 (MB)
	Size of irrep 1 of tijab amplitudes:       0.001 (MW) /      0.004 (MB)
	Size of irrep 2 of tijab amplitudes:       0.002 (MW) /      0.018 (MB)
	Size of irrep 3 of tijab amplitudes:       0.002 (MW) /      0.013 (MB)
	Total:                                     0.009 (MW) /      0.070 (MB)

	Nuclear Rep. energy          =      9.13343346099514
	SCF energy                   =    -76.04065813659524
	One-electron energy          =   -122.86055739065668
	Two-electron energy          =     37.68646579306634
	Reference energy             =    -76.04065813659521

*** tstop() called on atlantis at Tue Apr 19 00:19:58 2022
Module time:
	user time   =       0.04 seconds =       0.00 minutes
	system time =       0.00 seconds =       0.00 minutes
	total time  =          0 seconds =       0.00 minutes
Total time:
	user time   =       1.58 seconds =       0.03 minutes
	system time =       0.20 seconds =       0.00 minutes
	total time  =          1 seconds =       0.02 minutes
            **************************
            *                        *
            *        CCENERGY        *
            *                        *
            **************************

    Nuclear Rep. energy (wfn)     =    9.133433460995141
    SCF energy          (wfn)     =  -76.040658136595241
    Reference energy    (file100) =  -76.040658136595212

    Input parameters:
    -----------------
    Wave function   =     CCSD
    Reference wfn   =     RHF
    Brueckner       =     No
    Memory (Mbytes) =     524.3
    Maxiter         =     50
    R_Convergence   =     1.0e-07
    E_Convergence   =     1.0e-08
    Restart         =     Yes
    DIIS            =     Yes
    AO Basis        =     NONE
    ABCD            =     NEW
    Cache Level     =     2
    Cache Type      =     LOW
    Print Level     =     1
    Num. of threads =     1
    # Amps to Print =     10
    Print MP2 Amps? =     No
    Analyze T2 Amps =     No
    Print Pair Ener =     No
    Local CC        =     No
    SCS-MP2         =     False
    SCSN-MP2        =     False
    SCS-CCSD        =     False

MP2 correlation energy -0.2226247035322492
                Solving CC Amplitude Equations
                ------------------------------
  Iter             Energy              RMS        T1Diag      D1Diag    New D1Diag    D2Diag
  ----     ---------------------    ---------   ----------  ----------  ----------   --------
     0        -0.222624703532249    0.000e+00    0.000000    0.000000    0.000000    0.114958
     1        -0.224385773153005    3.859e-02    0.009168    0.021277    0.021277    0.119766
     2        -0.228773930847897    1.303e-02    0.009233    0.021711    0.021711    0.124467
     3        -0.230141231715511    5.510e-03    0.010796    0.025865    0.025865    0.126812
     4        -0.230066929380486    1.014e-03    0.010980    0.026493    0.026493    0.126968
     5        -0.230073374942440    3.372e-04    0.011042    0.026735    0.026735    0.126999
     6        -0.230078334482007    9.047e-05    0.011062    0.026817    0.026817    0.126996
     7        -0.230076558829742    2.778e-05    0.011064    0.026832    0.026832    0.126988
     8        -0.230076229593679    7.916e-06    0.011065    0.026837    0.026837    0.126987
     9        -0.230076322140301    2.666e-06    0.011066    0.026838    0.026838    0.126987
    10        -0.230076192299352    8.997e-07    0.011066    0.026838    0.026838    0.126987
    11        -0.230076200644299    2.949e-07    0.011066    0.026838    0.026838    0.126987
    12        -0.230076194501187    1.215e-07    0.011066    0.026838    0.026838    0.126987
    13        -0.230076196444951    3.353e-08    0.011066    0.026838    0.026838    0.126987

    Iterations converged.


    Largest TIA Amplitudes:
              4  30        -0.0216771076
              4  31        -0.0157535903
              2   1         0.0119601647
              2   4        -0.0116712098
              3  27         0.0076484180
              3  21        -0.0045112250
              1   2         0.0044465682
              2   0        -0.0043145112
              2  11        -0.0041593128
              1  11        -0.0035727570

    Largest TIjAb Amplitudes:
      4   4  33  33        -0.0348460858
      3   3  24  24        -0.0259557327
      2   2  24  24        -0.0209590137
      3   3  21  21        -0.0208562628
      2   2   9   9        -0.0201608640
      3   3  21  24        -0.0193794456
      3   3  24  21        -0.0193794456
      4   4  30  33        -0.0185744599
      4   4  33  30        -0.0185744599
      4   4  30  30        -0.0182620239

    SCF energy       (wfn)                    =  -76.040658136595241
    Reference energy (file100)                =  -76.040658136595212

    Opposite-spin MP2 correlation energy      =   -0.165752187475383
    Same-spin MP2 correlation energy          =   -0.056872516056866
    MP2 correlation energy                    =   -0.222624703532249
      * MP2 total energy                      =  -76.263282840127459

    Opposite-spin CCSD correlation energy     =   -0.179835448741102
    Same-spin CCSD correlation energy         =   -0.050240747703850
    CCSD correlation energy                   =   -0.230076196444951
      * CCSD total energy                     =  -76.270734333040167


			**************************
			*                        *
			*         CCHBAR         *
			*                        *
			**************************


			**************************
			*        CCLAMBDA        *
			**************************


	Nuclear Rep. energy (wfn)     =    9.133433460995141
	Reference           (wfn)     =                    0
	SCF energy          (wfn)     =  -76.040658136595241
	Reference energy    (CC_INFO) =  -76.040658136595212
	CCSD energy         (CC_INFO) =   -0.230076196444951
	Total CCSD energy   (CC_INFO) =  -76.270734333040167

	Input parameters:
	-----------------
	Maxiter           =     50
	Convergence       = 1.0e-07
	Restart           =     No
	Cache Level       =     2
	Model III         =     No
	DIIS              =     Yes
	AO Basis          =     No
	ABCD              =     NEW
	Local CC          =     No
	Parameters for left-handed eigenvectors:
	    Irr   Root  Ground-State?    EOM energy        R0
	  1   0     0        Yes       0.0000000000   1.0000000000
	Labels for eigenvector 1:
	LIA 0 -1, Lia 0 -1, LIJAB 0 -1, Lijab 0 -1, LIjAb 0 -1, 2LIjAb - LIjbA 0 -1
	Symmetry of left-hand state: A1
	Symmetry of left-hand eigenvector: A1

	          Solving Lambda Equations
	          ------------------------
	Iter     PseudoEnergy or Norm         RMS  
	----     ---------------------     --------
	   0        -0.230177167195171    3.050e-08
	   1        -0.226658723168959    1.687e-02
	   2        -0.225893879258893    3.114e-03
	   3        -0.225729366486154    1.832e-03
	   4        -0.225704064546840    4.207e-04
	   5        -0.225713104589055    1.163e-04
	   6        -0.225713837731709    3.564e-05
	   7        -0.225713171157744    9.586e-06
	   8        -0.225713195469135    3.021e-06
	   9        -0.225713224697038    1.076e-06
	  10        -0.225713227075019    3.437e-07
	  11        -0.225713229030159    1.034e-07
	  12        -0.225713227421924    3.050e-08

	Largest LIA Amplitudes:
	          4  30        -0.0137889302
	          4  31        -0.0099185208
	          3  27         0.0066587265
	          2   4        -0.0065057237
	          2   1         0.0063828270
	          2   9         0.0037987636
	          1  11        -0.0035355385
	          2  11        -0.0034076639
	          3  25         0.0025867666
	          1   4         0.0025235267

	Largest LIjAb Amplitudes:
	  4   4  33  33        -0.0345532281
	  3   3  24  24        -0.0253032021
	  2   2  24  24        -0.0203141589
	  3   3  21  21        -0.0202202358
	  2   2   9   9        -0.0198795547
	  3   3  21  24        -0.0189130713
	  3   3  24  21        -0.0189130713
	  4   4  30  33        -0.0182427207
	  4   4  33  30        -0.0182427207
	  4   4  30  30        -0.0173232023

	Iterations converged.

	Overlap <L|e^T> =        0.93465223516

			**************************
			*                        *
			*        CCDENSITY       *
			*                        *
			**************************


	Input parameters:
	-----------------
	Wave function    =   CCSD
	Reference wfn    =   RHF
	Dertype          = 1
	Tolerance        = 1.0e-14
	Cache Level      = 2
	AO Basis         = No
	OPDM Only        = No
	Relax OPDM       = Yes
	Compute Xi       = No
	Use Zeta         = No
	Xi connected     = Yes
	Compute NO       = No

	Nuclear Rep. energy (wfn)     =    9.133433460995141
	SCF energy          (wfn)     =  -76.040658136595241
	Reference energy    (file100) =  -76.040658136595212
	CCSD energy         (CC_INFO) =   -0.230076196444951
	Total CCSD energy   (CC_INFO) =  -76.270734333040167
	Number of States = 1

	Ground?  State     EOM Energy       R0
	  Yes     0 A1    0.0000000000   1.00000000

	Virial Theorem Data:
	--------------------
	Kinetic energy (ref)   =   75.903201367227183
	Kinetic energy (corr)  =    0.121602530086709
	Kinetic energy (total) =   76.024803897313888
	-V/T (ref)             =    2.001810948245819
	-V/T (corr)            =    2.892034617050276
	-V/T (total)           =    2.003234871030492
  Cartesian Displacement SALCs
  By SALC:
  Number of SALCs: 3, nirreps: A1
  Project out translations: False
  Project out rotations: False
	irrep = 0, ncomponent = 1
		0: atom 0, direction z, coef 1.000000
	irrep = 0, ncomponent = 2
		0: atom 1, direction x, coef 0.707107
		1: atom 2, direction x, coef -0.707107
	irrep = 0, ncomponent = 2
		0: atom 1, direction z, coef 0.707107
		1: atom 2, direction z, coef 0.707107

  By Atomic Center:
  Number of atomic centers: 3
   Atomic Center 0:
	x component, size = 0
	y component, size = 0
	z component, size = 1
		0: salc 0, irrep 0, coef 1.000000
   Atomic Center 1:
	x component, size = 1
		0: salc 1, irrep 0, coef 0.707107
	y component, size = 0
	z component, size = 1
		0: salc 2, irrep 0, coef 0.707107
   Atomic Center 2:
	x component, size = 1
		0: salc 1, irrep 0, coef -0.707107
	y component, size = 0
	z component, size = 1
		0: salc 2, irrep 0, coef 0.707107

    Molecular point group: c2v
    Full point group: C2v

    Geometry (in Bohr), charge = 0, multiplicity = 1:

       Center              X                  Y                   Z       
    ------------   -----------------  -----------------  -----------------
         O            0.000000000000     0.000000000000    -0.128443286339
         H            1.415461559752     0.000000000000     1.019244081436
         H           -1.415461559752    -0.000000000000     1.019244081436

	Presorting MO-basis TPDM.
	Sorting File: MO TPDM (AA|AA) nbuckets = 1
	Starting first half-transformation.
	Sorting half-transformed TPDM.
	First half integral transformation complete.


  -Nuclear Repulsion Energy 1st Derivatives:
     Atom            X                  Y                   Z
    ------   -----------------  -----------------  -----------------
       1        0.000000000000     0.000000000000     3.034559410088
       2       -1.996065495508    -0.000000000000    -1.517279705044
       3        1.996065495508     0.000000000000    -1.517279705044


  -Core Hamiltonian Gradient:
     Atom            X                  Y                   Z
    ------   -----------------  -----------------  -----------------
       1        0.000000000000    -0.000000000000    -7.777857857114
       2        4.887173663721     0.000000000000     3.888928928557
       3       -4.887173663721    -0.000000000000     3.888928928557


  -Lagrangian contribution to gradient:
     Atom            X                  Y                   Z
    ------   -----------------  -----------------  -----------------
       1        0.000000000000     0.000000000000     0.531097882773
       2       -0.295903517125    -0.000000000000    -0.265548941387
       3        0.295903517125     0.000000000000    -0.265548941387


  -Two-electron contribution to gradient:
     Atom            X                  Y                   Z
    ------   -----------------  -----------------  -----------------
       1        0.000000000000     0.000000000000     4.207755928155
       2       -2.598089712111    -0.000000000000    -2.103877964078
       3        2.598089712111     0.000000000000    -2.103877964078


  -Total gradient:
     Atom            X                  Y                   Z
    ------   -----------------  -----------------  -----------------
       1        0.000000000000    -0.000000000000    -0.004444636098
       2       -0.002885061022    -0.000000000000     0.002222318049
       3        0.002885061022     0.000000000000     0.002222318049


  //>>>>>>>>>>>>>>>>>>>>>>>>>>>>>>>>>>>//
  //    Loading displacement 2 of 6    //
  //<<<<<<<<<<<<<<<<<<<<<<<<<<<<<<<<<<<//
gradient() will perform analytic gradient computation.

*** tstart() called on atlantis
*** at Tue Apr 19 00:19:59 2022

   => Loading Basis Set <=

    Name: AUG-CC-PVDZ
    Role: ORBITAL
    Keyword: BASIS
    atoms 1   entry O          line   250 file /home/akrom/software/anaconda3/envs/ffpenv/share/psi4/basis/aug-cc-pvdz.gbs 
    atoms 2-3 entry H          line    36 file /home/akrom/software/anaconda3/envs/ffpenv/share/psi4/basis/aug-cc-pvdz.gbs 


         ---------------------------------------------------------
                                   SCF
               by Justin Turney, Rob Parrish, Andy Simmonett
                          and Daniel G. A. Smith
                              RHF Reference
                        1 Threads,    500 MiB Core
         ---------------------------------------------------------

  ==> Geometry <==

    Molecular point group: c2v
    Full point group: C2v

    Geometry (in Angstrom), charge = 0, multiplicity = 1:

       Center              X                  Y                   Z               Mass       
    ------------   -----------------  -----------------  -----------------  -----------------
         O            0.000000000000     0.000000000000    -0.068190581735    15.994914619570
         H            0.749030000000     0.000000000000     0.541117008324     1.007825032230
         H           -0.749030000000    -0.000000000000     0.541117008324     1.007825032230

  Running in c2v symmetry.

  Rotational constants: A =     25.36609  B =     14.90675  C =      9.38911 [cm^-1]
  Rotational constants: A = 760456.34809  B = 446893.08836  C = 281478.31580 [MHz]
  Nuclear repulsion =    9.122096529799810

  Charge       = 0
  Multiplicity = 1
  Electrons    = 10
  Nalpha       = 5
  Nbeta        = 5

  ==> Algorithm <==

  SCF Algorithm Type is PK.
  DIIS enabled.
  MOM disabled.
  Fractional occupation disabled.
  Guess Type is SAD.
  Energy threshold   = 1.00e-10
  Density threshold  = 1.00e-10
  Integral threshold = 0.00e+00

  ==> Primary Basis <==

  Basis Set: AUG-CC-PVDZ
    Blend: AUG-CC-PVDZ
    Number of shells: 19
    Number of basis function: 41
    Number of Cartesian functions: 43
    Spherical Harmonics?: true
    Max angular momentum: 2

  ==> Pre-Iterations <==

   -------------------------------------------------------
    Irrep   Nso     Nmo     Nalpha   Nbeta   Ndocc  Nsocc
   -------------------------------------------------------
     A1        18      18       0       0       0       0
     A2         4       4       0       0       0       0
     B1        12      12       0       0       0       0
     B2         7       7       0       0       0       0
   -------------------------------------------------------
    Total      41      41       5       5       5       0
   -------------------------------------------------------

  ==> Integral Setup <==

  Using in-core PK algorithm.
   Calculation information:
      Number of atoms:                   3
      Number of AO shells:              19
      Number of primitives:             39
      Number of atomic orbitals:        43
      Number of basis functions:        41

      Integral cutoff                 1.00e-12
      Number of threads:                 1

  Performing in-core PK
  Using 742182 doubles for integral storage.
  We computed 18145 shell quartets total.
  Whereas there are 18145 unique shell quartets.

  ==> DiskJK: Disk-Based J/K Matrices <==

    J tasked:                  Yes
    K tasked:                  Yes
    wK tasked:                  No
    Memory [MiB]:              375
    Schwarz Cutoff:          1E-12

    OpenMP threads:              1

  Minimum eigenvalue in the overlap matrix is 2.6344557696E-03.
  Using Symmetric Orthogonalization.

  SCF Guess: Superposition of Atomic Densities via on-the-fly atomic UHF.

  ==> Iterations <==

                        Total Energy        Delta E     RMS |[F,P]|

   @RHF iter SAD:   -75.45925748814412   -7.54593e+01   0.00000e+00 
   @RHF iter   1:   -75.95576298872584   -4.96506e-01   1.96163e-02 DIIS
   @RHF iter   2:   -76.00883812792826   -5.30751e-02   1.29328e-02 DIIS
   @RHF iter   3:   -76.04011774119614   -3.12796e-02   9.24529e-04 DIIS
   @RHF iter   4:   -76.04049995845835   -3.82217e-04   2.11196e-04 DIIS
   @RHF iter   5:   -76.04052252963689   -2.25712e-05   4.83048e-05 DIIS
   @RHF iter   6:   -76.04052434567744   -1.81604e-06   9.62633e-06 DIIS
   @RHF iter   7:   -76.04052442054318   -7.48657e-08   1.54518e-06 DIIS
   @RHF iter   8:   -76.04052442231608   -1.77290e-09   2.37712e-07 DIIS
   @RHF iter   9:   -76.04052442235319   -3.71045e-11   6.20903e-08 DIIS
   @RHF iter  10:   -76.04052442235580   -2.61480e-12   8.89331e-09 DIIS
   @RHF iter  11:   -76.04052442235580    0.00000e+00   1.29655e-09 DIIS
   @RHF iter  12:   -76.04052442235584   -4.26326e-14   1.96874e-10 DIIS
   @RHF iter  13:   -76.04052442235589   -4.26326e-14   3.02855e-11 DIIS
  Energy and wave function converged.


  ==> Post-Iterations <==

    Orbital Energies [Eh]
    ---------------------

    Doubly Occupied:                                                      

       1A1   -20.579897     2A1    -1.354368     1B1    -0.709300  
       3A1    -0.589517     1B2    -0.509558  

    Virtual:                                                              

       4A1     0.035055     2B1     0.058131     5A1     0.173822  
       2B2     0.197403     6A1     0.222400     3B1     0.232558  
       4B1     0.286872     7A1     0.334631     1A2     0.386773  
       8A1     0.397565     3B2     0.428497     5B1     0.540717  
       9A1     0.645643     6B1     0.658391     7B1     0.801081  
      10A1     0.935811     4B2     1.104524    11A1     1.119483  
       2A2     1.147984    12A1     1.292155     8B1     1.460232  
       5B2     1.477258    13A1     1.584027     3A2     1.999839  
       9B1     2.004669     6B2     2.112157    14A1     2.332171  
      10B1     2.471336    15A1     2.615139    11B1     2.705152  
      16A1     2.988065     7B2     3.674428    17A1     3.691237  
       4A2     3.700084    18A1     4.001712    12B1     4.296986  

    Final Occupation by Irrep:
             A1    A2    B1    B2 
    DOCC [     3,    0,    1,    1 ]

  @RHF Final Energy:   -76.04052442235589

   => Energetics <=

    Nuclear Repulsion Energy =              9.1220965297998102
    One-Electron Energy =                -122.8399623429014582
    Two-Electron Energy =                  37.6773413907457666
    Total Energy =                        -76.0405244223558867

Computation Completed


Properties will be evaluated at   0.000000,   0.000000,   0.000000 [a0]

Properties computed using the SCF density matrix

  Nuclear Dipole Moment: [e a0]
     X:     0.0000      Y:     0.0000      Z:     1.0142

  Electronic Dipole Moment: [e a0]
     X:     0.0000      Y:     0.0000      Z:    -0.2077

  Dipole Moment: [e a0]
     X:     0.0000      Y:     0.0000      Z:     0.8065     Total:     0.8065

  Dipole Moment: [D]
     X:     0.0000      Y:     0.0000      Z:     2.0500     Total:     2.0500


*** tstop() called on atlantis at Tue Apr 19 00:19:59 2022
Module time:
	user time   =       0.28 seconds =       0.00 minutes
	system time =       0.00 seconds =       0.00 minutes
	total time  =          0 seconds =       0.00 minutes
Total time:
	user time   =       2.09 seconds =       0.03 minutes
	system time =       0.36 seconds =       0.01 minutes
	total time  =          2 seconds =       0.03 minutes
 MINTS: Wrapper to libmints.
   by Justin Turney

   Calculation information:
      Number of threads:                 1
      Number of atoms:                   3
      Number of AO shells:              19
      Number of SO shells:              14
      Number of primitives:             39
      Number of atomic orbitals:        43
      Number of basis functions:        41

      Number of irreps:                  4
      Integral cutoff                 0.00e+00
      Number of functions per irrep: [  18    4   12    7 ]

 OEINTS: Overlap, kinetic, potential, dipole, and quadrupole integrals
         stored in file 35.

      Computing two-electron integrals...done
      Computed 92451 non-zero two-electron integrals.
        Stored in file 33.


*** tstart() called on atlantis
*** at Tue Apr 19 00:19:59 2022


	Wfn Parameters:
	--------------------
	Wavefunction         = CCSD
	Number of irreps     = 4
	Number of MOs        = 41
	Number of active MOs = 41
	AO-Basis             = NONE
	Semicanonical        = false
	Reference            = RHF
	Print Level          = 1

	IRREP	# MOs	# FZDC	# DOCC	# SOCC	# VIRT	# FZVR
	-----	-----	------	------	------	------	------
	 A1	   18	    0	    3	    0	    15	    0
	 A2	   4	    0	    0	    0	    4	    0
	 B1	   12	    0	    1	    0	    11	    0
	 B2	   7	    0	    1	    0	    6	    0
	Transforming integrals...
	IWL integrals will be deleted.
	(OO|OO)...
	Presorting SO-basis two-electron integrals.
	Sorting File: SO Ints (nn|nn) nbuckets = 1
	Transforming the one-electron integrals and constructing Fock matrices
	Starting first half-transformation.
	Sorting half-transformed integrals.
	First half integral transformation complete.
	Starting second half-transformation.
	Two-electron integral transformation complete.
	(OO|OV)...
	Starting second half-transformation.
	Two-electron integral transformation complete.
	(OO|VV)...
	Starting second half-transformation.
	Two-electron integral transformation complete.
	(OV|OO)...
	Starting first half-transformation.
	Sorting half-transformed integrals.
	First half integral transformation complete.
	Starting second half-transformation.
	Two-electron integral transformation complete.
	(OV|OV)...
	Starting second half-transformation.
	Two-electron integral transformation complete.
	(OV|VV)...
	Starting second half-transformation.
	Two-electron integral transformation complete.
	(VV|OO)...
	Starting first half-transformation.
	Sorting half-transformed integrals.
	First half integral transformation complete.
	Starting second half-transformation.
	Two-electron integral transformation complete.
	(VV|OV)...
	Starting second half-transformation.
	Two-electron integral transformation complete.
	(VV|VV)...
	Starting second half-transformation.
	Two-electron integral transformation complete.
	Frozen core energy     =      0.00000000000000

	Size of irrep 0 of <ab|cd> integrals:      0.158 (MW) /      1.267 (MB)
	Size of irrep 1 of <ab|cd> integrals:      0.064 (MW) /      0.508 (MB)
	Size of irrep 2 of <ab|cd> integrals:      0.143 (MW) /      1.143 (MB)
	Size of irrep 3 of <ab|cd> integrals:      0.072 (MW) /      0.575 (MB)
	Total:                                     0.437 (MW) /      3.493 (MB)

	Size of irrep 0 of <ia|bc> integrals:      0.025 (MW) /      0.197 (MB)
	Size of irrep 1 of <ia|bc> integrals:      0.007 (MW) /      0.058 (MB)
	Size of irrep 2 of <ia|bc> integrals:      0.020 (MW) /      0.157 (MB)
	Size of irrep 3 of <ia|bc> integrals:      0.010 (MW) /      0.079 (MB)
	Total:                                     0.062 (MW) /      0.492 (MB)

	Size of irrep 0 of tijab amplitudes:       0.004 (MW) /      0.035 (MB)
	Size of irrep 1 of tijab amplitudes:       0.001 (MW) /      0.004 (MB)
	Size of irrep 2 of tijab amplitudes:       0.002 (MW) /      0.018 (MB)
	Size of irrep 3 of tijab amplitudes:       0.002 (MW) /      0.013 (MB)
	Total:                                     0.009 (MW) /      0.070 (MB)

	Nuclear Rep. energy          =      9.12209652979981
	SCF energy                   =    -76.04052442235589
	One-electron energy          =   -122.83996234374949
	Two-electron energy          =     37.67734139159388
	Reference energy             =    -76.04052442235580

*** tstop() called on atlantis at Tue Apr 19 00:19:59 2022
Module time:
	user time   =       0.03 seconds =       0.00 minutes
	system time =       0.02 seconds =       0.00 minutes
	total time  =          0 seconds =       0.00 minutes
Total time:
	user time   =       2.14 seconds =       0.04 minutes
	system time =       0.38 seconds =       0.01 minutes
	total time  =          2 seconds =       0.03 minutes
            **************************
            *                        *
            *        CCENERGY        *
            *                        *
            **************************

    Nuclear Rep. energy (wfn)     =    9.122096529799810
    SCF energy          (wfn)     =  -76.040524422355887
    Reference energy    (file100) =  -76.040524422355801

    Input parameters:
    -----------------
    Wave function   =     CCSD
    Reference wfn   =     RHF
    Brueckner       =     No
    Memory (Mbytes) =     524.3
    Maxiter         =     50
    R_Convergence   =     1.0e-07
    E_Convergence   =     1.0e-08
    Restart         =     Yes
    DIIS            =     Yes
    AO Basis        =     NONE
    ABCD            =     NEW
    Cache Level     =     2
    Cache Type      =     LOW
    Print Level     =     1
    Num. of threads =     1
    # Amps to Print =     10
    Print MP2 Amps? =     No
    Analyze T2 Amps =     No
    Print Pair Ener =     No
    Local CC        =     No
    SCS-MP2         =     False
    SCSN-MP2        =     False
    SCS-CCSD        =     False

MP2 correlation energy -0.2227474865248857
                Solving CC Amplitude Equations
                ------------------------------
  Iter             Energy              RMS        T1Diag      D1Diag    New D1Diag    D2Diag
  ----     ---------------------    ---------   ----------  ----------  ----------   --------
[...]
Module time:
	user time   =       0.04 seconds =       0.00 minutes
	system time =       0.04 seconds =       0.00 minutes
	total time  =          0 seconds =       0.00 minutes
Total time:
	user time   =       4.49 seconds =       0.07 minutes
	system time =       1.00 seconds =       0.02 minutes
	total time  =          6 seconds =       0.10 minutes
            **************************
            *                        *
            *        CCENERGY        *
            *                        *
            **************************

    Nuclear Rep. energy (wfn)     =    9.133468287774228
    SCF energy          (wfn)     =  -76.040650810884927
    Reference energy    (file100) =  -76.040650810884983

    Input parameters:
    -----------------
    Wave function   =     CCSD
    Reference wfn   =     RHF
    Brueckner       =     No
    Memory (Mbytes) =     524.3
    Maxiter         =     50
    R_Convergence   =     1.0e-07
    E_Convergence   =     1.0e-08
    Restart         =     Yes
    DIIS            =     Yes
    AO Basis        =     NONE
    ABCD            =     NEW
    Cache Level     =     2
    Cache Type      =     LOW
    Print Level     =     1
    Num. of threads =     1
    # Amps to Print =     10
    Print MP2 Amps? =     No
    Analyze T2 Amps =     No
    Print Pair Ener =     No
    Local CC        =     No
    SCS-MP2         =     False
    SCSN-MP2        =     False
    SCS-CCSD        =     False

MP2 correlation energy -0.2226246502543110
                Solving CC Amplitude Equations
                ------------------------------
  Iter             Energy              RMS        T1Diag      D1Diag    New D1Diag    D2Diag
  ----     ---------------------    ---------   ----------  ----------  ----------   --------
     0        -0.222624650254311    0.000e+00    0.000000    0.000000    0.000000    0.114988
     1        -0.224385756409180    3.859e-02    0.009168    0.021277    0.021277    0.119784
     2        -0.228773945986777    1.303e-02    0.009233    0.021711    0.021711    0.124492
     3        -0.230141262221058    5.510e-03    0.010797    0.025865    0.025865    0.126839
     4        -0.230066957775897    1.014e-03    0.010980    0.026493    0.026493    0.126997
     5        -0.230073403482026    3.372e-04    0.011043    0.026735    0.026735    0.127028
     6        -0.230078363072005    9.047e-05    0.011062    0.026817    0.026817    0.127025
     7        -0.230076587438093    2.778e-05    0.011065    0.026832    0.026832    0.127018
     8        -0.230076258211264    7.917e-06    0.011065    0.026837    0.026837    0.127017
     9        -0.230076350773896    2.666e-06    0.011066    0.026838    0.026838    0.127017
    10        -0.230076220923724    8.999e-07    0.011066    0.026838    0.026838    0.127016
    11        -0.230076229272624    2.950e-07    0.011066    0.026838    0.026838    0.127016
    12        -0.230076223129729    1.215e-07    0.011066    0.026838    0.026838    0.127016
    13        -0.230076225073894    3.353e-08    0.011066    0.026838    0.026838    0.127016

    Iterations converged.


    Largest TIA Amplitudes:
              4  26        -0.0216771568
              4  28        -0.0157532318
              3   2         0.0119599526
              3   7        -0.0116709118
              2  19         0.0076460658
              2   5         0.0045106753
              1   3         0.0044462450
              3   0        -0.0043144786
              3  20        -0.0041548422
              1  20        -0.0035702047

    Largest TIjAb Amplitudes:
      4   4  31  31        -0.0348458215
      2   2  11  11        -0.0259527618
      3   3  11  11        -0.0209580890
      2   2   5   5        -0.0208529455
      3   3  16  16        -0.0201578874
      2   2   5  11         0.0193767836
      2   2  11   5         0.0193767836
      4   4  26  31        -0.0185743281
      4   4  31  26        -0.0185743281
      4   4  26  26        -0.0182619591

    SCF energy       (wfn)                    =  -76.040650810884927
    Reference energy (file100)                =  -76.040650810884983

    Opposite-spin MP2 correlation energy      =   -0.165752187774551
    Same-spin MP2 correlation energy          =   -0.056872462479760
    MP2 correlation energy                    =   -0.222624650254311
      * MP2 total energy                      =  -76.263275461139301

    Opposite-spin CCSD correlation energy     =   -0.179835526228148
    Same-spin CCSD correlation energy         =   -0.050240698845747
    CCSD correlation energy                   =   -0.230076225073894
      * CCSD total energy                     =  -76.270727035958885


			**************************
			*                        *
			*         CCHBAR         *
			*                        *
			**************************


			**************************
			*        CCLAMBDA        *
			**************************


	Nuclear Rep. energy (wfn)     =    9.133468287774228
	Reference           (wfn)     =                    0
	SCF energy          (wfn)     =  -76.040650810884927
	Reference energy    (CC_INFO) =  -76.040650810884983
	CCSD energy         (CC_INFO) =   -0.230076225073894
	Total CCSD energy   (CC_INFO) =  -76.270727035958885

	Input parameters:
	-----------------
	Maxiter           =     50
	Convergence       = 1.0e-07
	Restart           =     No
	Cache Level       =     2
	Model III         =     No
	DIIS              =     Yes
	AO Basis          =     No
	ABCD              =     NEW
	Local CC          =     No
	Parameters for left-handed eigenvectors:
	    Irr   Root  Ground-State?    EOM energy        R0
	  1   0     0        Yes       0.0000000000   1.0000000000
	Labels for eigenvector 1:
	LIA 0 -1, Lia 0 -1, LIJAB 0 -1, Lijab 0 -1, LIjAb 0 -1, 2LIjAb - LIjbA 0 -1
	Symmetry of left-hand state: Ap
	Symmetry of left-hand eigenvector: Ap

	          Solving Lambda Equations
	          ------------------------
	Iter     PseudoEnergy or Norm         RMS  
	----     ---------------------     --------
	   0        -0.230177195881599    3.076e-08
	   1        -0.226658713059168    1.687e-02
	   2        -0.225893864607609    3.114e-03
	   3        -0.225729349701217    1.832e-03
	   4        -0.225704046876052    4.207e-04
	   5        -0.225713086967829    1.163e-04
	   6        -0.225713820091272    3.564e-05
	   7        -0.225713153508958    9.586e-06
	   8        -0.225713177828193    3.021e-06
	   9        -0.225713207058574    1.077e-06
	  10        -0.225713209436683    3.437e-07
	  11        -0.225713211391722    1.034e-07
	  12        -0.225713209783323    3.050e-08

	Largest LIA Amplitudes:
	          4  26        -0.0137889465
	          4  28        -0.0099183001
	          2  19         0.0066567023
	          3   7        -0.0065055673
	          3   2         0.0063826482
	          3  16         0.0037988097
	          1  20        -0.0035330346
	          3  20        -0.0034039051
	          2  15         0.0025863543
	          1   7         0.0025234162

	Largest LIjAb Amplitudes:
	  4   4  31  31        -0.0345529673
	  2   2  11  11        -0.0253002947
	  3   3  11  11        -0.0203132452
	  2   2   5   5        -0.0202170065
	  3   3  16  16        -0.0198766045
	  2   2   5  11         0.0189104600
	  2   2  11   5         0.0189104600
	  4   4  26  31        -0.0182425930
	  4   4  31  26        -0.0182425930
	  4   4  26  26        -0.0173231405

	Iterations converged.

	Overlap <L|e^T> =        0.93465199766

			**************************
			*                        *
			*        CCDENSITY       *
			*                        *
			**************************


	Input parameters:
	-----------------
	Wave function    =   CCSD
	Reference wfn    =   RHF
	Dertype          = 1
	Tolerance        = 1.0e-14
	Cache Level      = 2
	AO Basis         = No
	OPDM Only        = No
	Relax OPDM       = Yes
	Compute Xi       = No
	Use Zeta         = No
	Xi connected     = Yes
	Compute NO       = No

	Nuclear Rep. energy (wfn)     =    9.133468287774228
	SCF energy          (wfn)     =  -76.040650810884927
	Reference energy    (file100) =  -76.040650810884983
	CCSD energy         (CC_INFO) =   -0.230076225073894
	Total CCSD energy   (CC_INFO) =  -76.270727035958885
	Number of States = 1

	Ground?  State     EOM Energy       R0
	  Yes     0 Ap    0.0000000000   1.00000000

	Virial Theorem Data:
	--------------------
	Kinetic energy (ref)   =   75.903228101792209
	Kinetic energy (corr)  =    0.121602453485060
	Kinetic energy (total) =   76.024830555277276
	-V/T (ref)             =    2.001810498875074
	-V/T (corr)            =    2.892036044339851
	-V/T (total)           =    2.003234423265210
  Cartesian Displacement SALCs
  By SALC:
  Number of SALCs: 6, nirreps: A'
  Project out translations: False
  Project out rotations: False
	irrep = 0, ncomponent = 1
		0: atom 0, direction x, coef 1.000000
	irrep = 0, ncomponent = 1
		0: atom 0, direction z, coef 1.000000
	irrep = 0, ncomponent = 1
		0: atom 1, direction x, coef 1.000000
	irrep = 0, ncomponent = 1
		0: atom 1, direction z, coef 1.000000
	irrep = 0, ncomponent = 1
		0: atom 2, direction x, coef 1.000000
	irrep = 0, ncomponent = 1
		0: atom 2, direction z, coef 1.000000

  By Atomic Center:
  Number of atomic centers: 3
   Atomic Center 0:
	x component, size = 1
		0: salc 0, irrep 0, coef 1.000000
	y component, size = 0
	z component, size = 1
		0: salc 1, irrep 0, coef 1.000000
   Atomic Center 1:
	x component, size = 1
		0: salc 2, irrep 0, coef 1.000000
	y component, size = 0
	z component, size = 1
		0: salc 3, irrep 0, coef 1.000000
   Atomic Center 2:
	x component, size = 1
		0: salc 4, irrep 0, coef 1.000000
	y component, size = 0
	z component, size = 1
		0: salc 5, irrep 0, coef 1.000000

    Molecular point group: cs
    Full point group: Cs

    Geometry (in Bohr), charge = 0, multiplicity = 1:

       Center              X                  Y                   Z       
    ------------   -----------------  -----------------  -----------------
         O           -0.000332326610     0.000000000000    -0.128443286339
         H            1.418098691984     0.000000000000     1.021382326257
         H           -1.412824427519     0.000000000000     1.017105836614

	Presorting MO-basis TPDM.
	Sorting File: MO TPDM (AA|AA) nbuckets = 1
	Starting first half-transformation.
	Sorting half-transformed TPDM.
	First half integral transformation complete.


  -Nuclear Repulsion Energy 1st Derivatives:
     Atom            X                  Y                   Z
    ------   -----------------  -----------------  -----------------
       1       -0.014657373499     0.000000000000     3.034598523291
       2       -1.988757858744     0.000000000000    -1.511189256655
       3        2.003415232243     0.000000000000    -1.523409266637


  -Core Hamiltonian Gradient:
     Atom            X                  Y                   Z
    ------   -----------------  -----------------  -----------------
       1        0.025534518714     0.000000000000    -7.777866758136
       2        4.874415906746     0.000000000000     3.878830593768
       3       -4.899950425460     0.000000000000     3.899036164369


  -Lagrangian contribution to gradient:
     Atom            X                  Y                   Z
    ------   -----------------  -----------------  -----------------
       1       -0.002038975860     0.000000000000     0.531095321664
       2       -0.294883431402     0.000000000000    -0.264822445260
       3        0.296922407262     0.000000000000    -0.266272876404


  -Two-electron contribution to gradient:
     Atom            X                  Y                   Z
    ------   -----------------  -----------------  -----------------
       1       -0.011949442055     0.000000000000     4.207745662672
       2       -2.592114189894     0.000000000000    -2.099352939930
       3        2.604063631949     0.000000000000    -2.108392722741


  -Total gradient:
     Atom            X                  Y                   Z
    ------   -----------------  -----------------  -----------------
       1       -0.003111272699     0.000000000000    -0.004427250510
       2       -0.001339573294     0.000000000000     0.003465951923
       3        0.004450845994     0.000000000000     0.000961298587


         ----------------------------------------------------------
                                   FINDIF
                     R. A. King and Jonathon Misiewicz
         ---------------------------------------------------------

  Computing second-derivative from gradients using projected, 
  symmetry-adapted, cartesian coordinates.

  6 gradients passed in, including the reference geometry.
  Generating complete list of displacements from unique ones.

    Operation 2 takes plus displacements of irrep B1 to minus ones.

-------------------------------------------------------------


  ==> Harmonic Vibrational Analysis <==

  non-mass-weighted Hessian:       Symmetric? True   Hermitian? True   Lin Dep Dim?  6 (0)
  projection of translations (True) and rotations (True) removed 6 degrees of freedom (6)
  total projector:                 Symmetric? True   Hermitian? True   Lin Dep Dim?  6 (6)
  mass-weighted Hessian:           Symmetric? True   Hermitian? True   Lin Dep Dim?  6 (0)
  pre-proj  low-frequency mode:    0.0000i [cm^-1]
  pre-proj  low-frequency mode:    0.0000i [cm^-1]
  pre-proj  low-frequency mode:    0.0000i [cm^-1]
  pre-proj  low-frequency mode:    0.0000  [cm^-1]
  pre-proj  low-frequency mode:    0.0000  [cm^-1]
  pre-proj  low-frequency mode:    0.0000  [cm^-1]
  pre-proj  all modes:['0.0001i' '0.0000i' '0.0000i' '0.0000' '0.0000' '0.0000' '1671.0370'
 '3829.9253' '3927.5957']
  projected mass-weighted Hessian: Symmetric? True   Hermitian? True   Lin Dep Dim?  6 (6)
  post-proj low-frequency mode:    0.0001i [cm^-1] (TR)
  post-proj low-frequency mode:    0.0000i [cm^-1] (TR)
  post-proj low-frequency mode:    0.0000i [cm^-1] (TR)
  post-proj low-frequency mode:    0.0000i [cm^-1] (TR)
  post-proj low-frequency mode:    0.0000  [cm^-1] (TR)
  post-proj low-frequency mode:    0.0000  [cm^-1] (TR)
  post-proj  all modes:['0.0001i' '0.0000i' '0.0000i' '0.0000i' '0.0000' '0.0000' '1671.0370'
 '3829.9253' '3927.5957']

  Vibration                       7                   8                   9           
  Freq [cm^-1]                1671.0370           3829.9253           3927.5957       
  Irrep                           A1                  A1                  B1          
  Reduced mass [u]              1.0810              1.0467              1.0793        
  Force const [mDyne/A]         1.7785              9.0460              9.8093        
  Turning point v=0 [a0]        0.2582              0.1733              0.1685        
  RMS dev v=0 [a0 u^1/2]        0.1898              0.1254              0.1238        
  Char temp [K]               2404.2502           5510.4099           5650.9357       
  ----------------------------------------------------------------------------------
      1   O               -0.00  0.00 -0.07    0.00 -0.00 -0.05   -0.07  0.00 -0.00   
      2   H               -0.44  0.00  0.55    0.58  0.00  0.40    0.55  0.00  0.44   
      3   H                0.44 -0.00  0.55   -0.58 -0.00  0.40    0.55 -0.00 -0.44   

  ==> Thermochemistry Components <==

  Entropy, S
    Electronic S            0.000 [cal/(mol K)]        0.000 [J/(mol K)]       0.00000000 [mEh/K] (multiplicity = 1)
    Translational S        34.608 [cal/(mol K)]      144.801 [J/(mol K)]       0.05515177 [mEh/K] (mol. weight = 18.0106 [u], P = 101325.00 [Pa])
    Rotational S           10.508 [cal/(mol K)]       43.968 [J/(mol K)]       0.01674635 [mEh/K] (symmetry no. = 2)
    Vibrational S           0.006 [cal/(mol K)]        0.024 [J/(mol K)]       0.00000904 [mEh/K]
  Total S                  45.122 [cal/(mol K)]      188.792 [J/(mol K)]       0.07190716 [mEh/K]
  Correction S              0.000 [cal/(mol K)]        0.000 [J/(mol K)]       0.00000000 [mEh/K]

  Constant volume heat capacity, Cv
    Electronic Cv           0.000 [cal/(mol K)]        0.000 [J/(mol K)]       0.00000000 [mEh/K]
    Translational Cv        2.981 [cal/(mol K)]       12.472 [J/(mol K)]       0.00475022 [mEh/K]
    Rotational Cv           2.981 [cal/(mol K)]       12.472 [J/(mol K)]       0.00475022 [mEh/K]
    Vibrational Cv          0.041 [cal/(mol K)]        0.170 [J/(mol K)]       0.00006486 [mEh/K]
  Total Cv                  6.002 [cal/(mol K)]       25.114 [J/(mol K)]       0.00956529 [mEh/K]
  Correction Cv             0.000 [cal/(mol K)]        0.000 [J/(mol K)]       0.00000000 [mEh/K]

  Constant pressure heat capacity, Cp
    Electronic Cp           0.000 [cal/(mol K)]        0.000 [J/(mol K)]       0.00000000 [mEh/K]
    Translational Cp        4.968 [cal/(mol K)]       20.786 [J/(mol K)]       0.00791703 [mEh/K]
    Rotational Cp           2.981 [cal/(mol K)]       12.472 [J/(mol K)]       0.00475022 [mEh/K]
    Vibrational Cp          0.041 [cal/(mol K)]        0.170 [J/(mol K)]       0.00006486 [mEh/K]
  Total Cp                  7.990 [cal/(mol K)]       33.428 [J/(mol K)]       0.01273210 [mEh/K]
  Correction Cp             0.000 [cal/(mol K)]        0.000 [J/(mol K)]       0.00000000 [mEh/K]

  ==> Thermochemistry Energy Analysis <==

  Raw electronic energy, E0
  Total E0, Electronic energy at well bottom at 0 [K]                  -76.27073433 [Eh]

  Zero-point energy, ZPE_vib = Sum_i nu_i / 2
    Electronic ZPE          0.000 [kcal/mol]        0.000 [kJ/mol]       0.00000000 [Eh]
    Translational ZPE       0.000 [kcal/mol]        0.000 [kJ/mol]       0.00000000 [Eh]
    Rotational ZPE          0.000 [kcal/mol]        0.000 [kJ/mol]       0.00000000 [Eh]
    Vibrational ZPE        13.479 [kcal/mol]       56.395 [kJ/mol]       0.02147984 [Eh]        4714.279 [cm^-1]
  Correction ZPE           13.479 [kcal/mol]       56.395 [kJ/mol]       0.02147984 [Eh]        4714.279 [cm^-1]
  Total ZPE, Electronic energy at 0 [K]                                -76.24925450 [Eh]

  Thermal Energy, E (includes ZPE)
    Electronic E            0.000 [kcal/mol]        0.000 [kJ/mol]       0.00000000 [Eh]
    Translational E         0.889 [kcal/mol]        3.718 [kJ/mol]       0.00141628 [Eh]
    Rotational E            0.889 [kcal/mol]        3.718 [kJ/mol]       0.00141628 [Eh]
    Vibrational E          13.480 [kcal/mol]       56.402 [kJ/mol]       0.02148223 [Eh]
  Correction E             15.258 [kcal/mol]       63.838 [kJ/mol]       0.02431479 [Eh]
  Total E, Electronic energy at  298.15 [K]                            -76.24641955 [Eh]

  Enthalpy, H_trans = E_trans + k_B * T
    Electronic H            0.000 [kcal/mol]        0.000 [kJ/mol]       0.00000000 [Eh]
    Translational H         1.481 [kcal/mol]        6.197 [kJ/mol]       0.00236046 [Eh]
    Rotational H            0.889 [kcal/mol]        3.718 [kJ/mol]       0.00141628 [Eh]
    Vibrational H          13.480 [kcal/mol]       56.402 [kJ/mol]       0.02148223 [Eh]
  Correction H             15.850 [kcal/mol]       66.317 [kJ/mol]       0.02525897 [Eh]
  Total H, Enthalpy at  298.15 [K]                                     -76.24547536 [Eh]

  Gibbs free energy, G = H - T * S
    Electronic G            0.000 [kcal/mol]        0.000 [kJ/mol]       0.00000000 [Eh]
    Translational G        -8.837 [kcal/mol]      -36.975 [kJ/mol]      -0.01408304 [Eh]
    Rotational G           -2.244 [kcal/mol]       -9.390 [kJ/mol]      -0.00357665 [Eh]
    Vibrational G          13.479 [kcal/mol]       56.395 [kJ/mol]       0.02147954 [Eh]
  Correction G              2.397 [kcal/mol]       10.029 [kJ/mol]       0.00381985 [Eh]
  Total G, Free enthalpy at  298.15 [K]                                -76.26691448 [Eh]

    Psi4 stopped on: Tuesday, 19 April 2022 12:20AM
    Psi4 wall time for execution: 0:00:06.91

*** Psi4 exiting successfully. Buy a developer a beer!
