
    -----------------------------------------------------------------------
          Psi4: An Open-Source Ab Initio Electronic Structure Package
                               Psi4 1.3.2 release

                         Git: Rev {HEAD} ecbda83 


    R. M. Parrish, L. A. Burns, D. G. A. Smith, A. C. Simmonett,
    A. E. DePrince III, E. G. Hohenstein, U. Bozkaya, A. Yu. Sokolov,
    R. Di Remigio, R. M. Richard, J. F. Gonthier, A. M. James,
    H. R. McAlexander, A. Kumar, M. Saitow, X. Wang, B. P. Pritchard,
    P. Verma, H. F. Schaefer III, K. Patkowski, R. A. King, E. F. Valeev,
    F. A. Evangelista, J. M. Turney, T. D. Crawford, and C. D. Sherrill,
    J. Chem. Theory Comput. 13(7) pp 3185--3197 (2017).
    (doi: 10.1021/acs.jctc.7b00174)


                         Additional Contributions by
    P. Kraus, H. Kruse, M. H. Lechner, M. C. Schieber, R. A. Shaw,
    A. Alenaizan, R. Galvelis, Z. L. Glick, S. Lehtola, and J. P. Misiewicz

    -----------------------------------------------------------------------


    Psi4 started on: Tuesday, 19 April 2022 12:13AM

    Process ID: 25255
    Host:       atlantis
    PSIDATADIR: /home/akrom/software/anaconda3/envs/ffpenv/share/psi4
    Memory:     500.0 MiB
    Threads:    1
    
  ==> Input File <==

--------------------------------------------------------------------------
set basis  6-31++G**
molecule {
0 1
   O        0.00000        0.00000       -0.06797
   H        0.74903        0.00000        0.53936
   H       -0.74903        0.00000        0.53936
}
energy('B3LYP')
frequencies('B3LYP')


--------------------------------------------------------------------------

*** tstart() called on atlantis
*** at Tue Apr 19 00:13:53 2022

   => Loading Basis Set <=

    Name: 6-31++G**
    Role: ORBITAL
    Keyword: BASIS
    atoms 1   entry O          line   153 file /home/akrom/software/anaconda3/envs/ffpenv/share/psi4/basis/6-31ppgss.gbs 
    atoms 2-3 entry H          line    46 file /home/akrom/software/anaconda3/envs/ffpenv/share/psi4/basis/6-31ppgss.gbs 


         ---------------------------------------------------------
                                   SCF
               by Justin Turney, Rob Parrish, Andy Simmonett
                          and Daniel G. A. Smith
                              RKS Reference
                        1 Threads,    500 MiB Core
         ---------------------------------------------------------

  ==> Geometry <==

    Molecular point group: c2v
    Full point group: C2v

    Geometry (in Angstrom), charge = 0, multiplicity = 1:

       Center              X                  Y                   Z               Mass       
    ------------   -----------------  -----------------  -----------------  -----------------
         O            0.000000000000     0.000000000000    -0.067969259994    15.994914619570
         H            0.749030000000     0.000000000000     0.539360740006     1.007825032230
         H           -0.749030000000    -0.000000000000     0.539360740006     1.007825032230

  Running in c2v symmetry.

  Rotational constants: A =     25.53156  B =     14.90675  C =      9.41168 [cm^-1]
  Rotational constants: A = 765416.81232  B = 446893.08836  C = 282155.15104 [MHz]
  Nuclear repulsion =    9.133433460995141

  Charge       = 0
  Multiplicity = 1
  Electrons    = 10
  Nalpha       = 5
  Nbeta        = 5

  ==> Algorithm <==

  SCF Algorithm Type is DF.
  DIIS enabled.
  MOM disabled.
  Fractional occupation disabled.
  Guess Type is SAD.
  Energy threshold   = 1.00e-06
  Density threshold  = 1.00e-06
  Integral threshold = 0.00e+00

  ==> Primary Basis <==

  Basis Set: 6-31++G**
    Blend: 6-31++G**
    Number of shells: 16
    Number of basis function: 31
    Number of Cartesian functions: 31
    Spherical Harmonics?: false
    Max angular momentum: 2

  ==> DFT Potential <==

   => Composite Functional: B3LYP <= 

    B3LYP Hyb-GGA Exchange-Correlation Functional

    P. J. Stephens, F. J. Devlin, C. F. Chabalowski, and M. J. Frisch, J. Phys. Chem. 98, 11623 (1994)

    Deriv               =              1
    GGA                 =           TRUE
    Meta                =          FALSE

    Exchange Hybrid     =           TRUE
    MP2 Hybrid          =          FALSE

   => Exchange Functionals <=

    0.0800   Slater exchange
    0.7200         Becke 88

   => Exact (HF) Exchange <=

    0.2000               HF 

   => Correlation Functionals <=

    0.1900   Vosko, Wilk & Nusair (VWN5_RPA)
    0.8100   Lee, Yang & Parr

   => Molecular Quadrature <=

    Radial Scheme          =       TREUTLER
    Pruning Scheme         =           FLAT
    Nuclear Scheme         =       TREUTLER

    BS radius alpha        =              1
    Pruning alpha          =              1
    Radial Points          =             75
    Spherical Points       =            302
    Total Points           =          67950
    Total Blocks           =            573
    Max Points             =            256
    Max Functions          =             31

   => Loading Basis Set <=

    Name: (6-31++G** AUX)
    Role: JKFIT
    Keyword: DF_BASIS_SCF
    atoms 1   entry O          line   270 file /home/akrom/software/anaconda3/envs/ffpenv/share/psi4/basis/aug-cc-pvdz-jkfit.gbs 
    atoms 2-3 entry H          line    70 file /home/akrom/software/anaconda3/envs/ffpenv/share/psi4/basis/aug-cc-pvdz-jkfit.gbs 

  ==> Pre-Iterations <==

   -------------------------------------------------------
    Irrep   Nso     Nmo     Nalpha   Nbeta   Ndocc  Nsocc
   -------------------------------------------------------
     A1        15      15       0       0       0       0
     A2         2       2       0       0       0       0
     B1         9       9       0       0       0       0
     B2         5       5       0       0       0       0
   -------------------------------------------------------
    Total      31      31       5       5       5       0
   -------------------------------------------------------

  ==> Integral Setup <==

  DFHelper Memory: AOs need 0.002 GiB; user supplied 0.308 GiB. Using in-core AOs.

  ==> MemDFJK: Density-Fitted J/K Matrices <==

    J tasked:                   Yes
    K tasked:                   Yes
    wK tasked:                   No
    OpenMP threads:               1
    Memory [MiB]:               315
    Algorithm:                 Core
    Schwarz Cutoff:           1E-12
    Mask sparsity (%):       0.0000
    Fitting Condition:        1E-10

   => Auxiliary Basis Set <=

  Basis Set: (6-31++G** AUX)
    Blend: AUG-CC-PVDZ-JKFIT
    Number of shells: 52
    Number of basis function: 171
    Number of Cartesian functions: 171
    Spherical Harmonics?: false
    Max angular momentum: 3

  Cached 100.0% of DFT collocation blocks in 0.058 [GiB].

  Minimum eigenvalue in the overlap matrix is 1.2582576837E-02.
  Using Symmetric Orthogonalization.

  SCF Guess: Superposition of Atomic Densities via on-the-fly atomic UHF.

  ==> Iterations <==

                           Total Energy        Delta E     RMS |[F,P]|

   @DF-RKS iter SAD:   -76.05027136346062   -7.60503e+01   0.00000e+00 
   @DF-RKS iter   1:   -76.24745701842427   -1.97186e-01   3.84799e-02 DIIS
   @DF-RKS iter   2:   -75.82280285036659    4.24654e-01   6.71103e-02 DIIS
   @DF-RKS iter   3:   -76.43308884605530   -6.10286e-01   2.03049e-03 DIIS
   @DF-RKS iter   4:   -76.43376719297042   -6.78347e-04   2.09213e-04 DIIS
   @DF-RKS iter   5:   -76.43377226583574   -5.07287e-06   3.25918e-05 DIIS
   @DF-RKS iter   6:   -76.43377239624057   -1.30405e-07   3.89044e-06 DIIS
   @DF-RKS iter   7:   -76.43377239819802   -1.95745e-09   1.06769e-07 DIIS
  Energy and wave function converged.


  ==> Post-Iterations <==

    Orbital Energies [Eh]
    ---------------------

    Doubly Occupied:                                                      

       1A1   -19.171023     2A1    -1.025596     1B1    -0.535745  
       3A1    -0.401504     1B2    -0.321923  

    Virtual:                                                              

       4A1    -0.024867     2B1     0.028207     5A1     0.144324  
       2B2     0.154928     6A1     0.169084     3B1     0.196067  
       4B1     0.224102     7A1     0.279754     5B1     0.899656  
       8A1     0.997022     3B2     1.112012     9A1     1.139028  
       6B1     1.164178    10A1     1.368444     1A2     1.511407  
      11A1     1.523337     4B2     1.618423    12A1     2.243092  
       7B1     2.262503     8B1     2.509303     2A2     2.611525  
       5B2     2.672261    13A1     3.012525    14A1     3.347491  
       9B1     3.573973    15A1     4.012125  

    Final Occupation by Irrep:
             A1    A2    B1    B2 
    DOCC [     3,    0,    1,    1 ]

  @DF-RKS Final Energy:   -76.43377239819802

   => Energetics <=

    Nuclear Repulsion Energy =              9.1334334609951409
    One-Electron Energy =                -122.8143966146314057
    Two-Electron Energy =                  44.7792417512573522
    DFT Exchange-Correlation Energy =      -7.5320509958190849
    Empirical Dispersion Energy =           0.0000000000000000
    VV10 Nonlocal Energy =                  0.0000000000000000
    Total Energy =                        -76.4337723981980020

Computation Completed


Properties will be evaluated at   0.000000,   0.000000,   0.000000 [a0]

Properties computed using the SCF density matrix

  Nuclear Dipole Moment: [e a0]
     X:     0.0000      Y:     0.0000      Z:     1.0109

  Electronic Dipole Moment: [e a0]
     X:     0.0000      Y:     0.0000      Z:    -0.1275

  Dipole Moment: [e a0]
     X:     0.0000      Y:     0.0000      Z:     0.8834     Total:     0.8834

  Dipole Moment: [D]
     X:     0.0000      Y:     0.0000      Z:     2.2454     Total:     2.2454


*** tstop() called on atlantis at Tue Apr 19 00:13:54 2022
Module time:
	user time   =       1.00 seconds =       0.02 minutes
	system time =       0.04 seconds =       0.00 minutes
	total time  =          1 seconds =       0.02 minutes
Total time:
	user time   =       1.00 seconds =       0.02 minutes
	system time =       0.04 seconds =       0.00 minutes
	total time  =          1 seconds =       0.02 minutes
gradient() will perform analytic gradient computation.

*** tstart() called on atlantis
*** at Tue Apr 19 00:13:54 2022

   => Loading Basis Set <=

    Name: 6-31++G**
    Role: ORBITAL
    Keyword: BASIS
    atoms 1   entry O          line   153 file /home/akrom/software/anaconda3/envs/ffpenv/share/psi4/basis/6-31ppgss.gbs 
    atoms 2-3 entry H          line    46 file /home/akrom/software/anaconda3/envs/ffpenv/share/psi4/basis/6-31ppgss.gbs 


         ---------------------------------------------------------
                                   SCF
               by Justin Turney, Rob Parrish, Andy Simmonett
                          and Daniel G. A. Smith
                              RKS Reference
                        1 Threads,    500 MiB Core
         ---------------------------------------------------------

  ==> Geometry <==

    Molecular point group: c2v
    Full point group: C2v

    Geometry (in Angstrom), charge = 0, multiplicity = 1:

       Center              X                  Y                   Z               Mass       
    ------------   -----------------  -----------------  -----------------  -----------------
         O            0.000000000000     0.000000000000    -0.067969259994    15.994914619570
         H            0.749030000000     0.000000000000     0.539360740006     1.007825032230
         H           -0.749030000000    -0.000000000000     0.539360740006     1.007825032230

  Running in c2v symmetry.

  Rotational constants: A =     25.53156  B =     14.90675  C =      9.41168 [cm^-1]
  Rotational constants: A = 765416.81232  B = 446893.08836  C = 282155.15104 [MHz]
  Nuclear repulsion =    9.133433460995141

  Charge       = 0
  Multiplicity = 1
  Electrons    = 10
  Nalpha       = 5
  Nbeta        = 5

  ==> Algorithm <==

  SCF Algorithm Type is DF.
  DIIS enabled.
  MOM disabled.
  Fractional occupation disabled.
  Guess Type is SAD.
  Energy threshold   = 1.00e-08
  Density threshold  = 1.00e-08
  Integral threshold = 0.00e+00

  ==> Primary Basis <==

  Basis Set: 6-31++G**
    Blend: 6-31++G**
    Number of shells: 16
    Number of basis function: 31
    Number of Cartesian functions: 31
    Spherical Harmonics?: false
    Max angular momentum: 2

  ==> DFT Potential <==

   => Composite Functional: B3LYP <= 

    B3LYP Hyb-GGA Exchange-Correlation Functional

    P. J. Stephens, F. J. Devlin, C. F. Chabalowski, and M. J. Frisch, J. Phys. Chem. 98, 11623 (1994)

    Deriv               =              1
    GGA                 =           TRUE
    Meta                =          FALSE

    Exchange Hybrid     =           TRUE
    MP2 Hybrid          =          FALSE

   => Exchange Functionals <=

    0.0800   Slater exchange
    0.7200         Becke 88

   => Exact (HF) Exchange <=

    0.2000               HF 

   => Correlation Functionals <=

    0.1900   Vosko, Wilk & Nusair (VWN5_RPA)
    0.8100   Lee, Yang & Parr

   => Molecular Quadrature <=

    Radial Scheme          =       TREUTLER
    Pruning Scheme         =           FLAT
    Nuclear Scheme         =       TREUTLER

    BS radius alpha        =              1
    Pruning alpha          =              1
    Radial Points          =             75
    Spherical Points       =            302
    Total Points           =          67950
    Total Blocks           =            573
    Max Points             =            256
    Max Functions          =             31

   => Loading Basis Set <=

    Name: (6-31++G** AUX)
    Role: JKFIT
    Keyword: DF_BASIS_SCF
    atoms 1   entry O          line   270 file /home/akrom/software/anaconda3/envs/ffpenv/share/psi4/basis/aug-cc-pvdz-jkfit.gbs 
    atoms 2-3 entry H          line    70 file /home/akrom/software/anaconda3/envs/ffpenv/share/psi4/basis/aug-cc-pvdz-jkfit.gbs 

  ==> Pre-Iterations <==

   -------------------------------------------------------
    Irrep   Nso     Nmo     Nalpha   Nbeta   Ndocc  Nsocc
   -------------------------------------------------------
     A1        15      15       0       0       0       0
     A2         2       2       0       0       0       0
     B1         9       9       0       0       0       0
     B2         5       5       0       0       0       0
   -------------------------------------------------------
    Total      31      31       5       5       5       0
   -------------------------------------------------------

  ==> Integral Setup <==

  DFHelper Memory: AOs need 0.002 GiB; user supplied 0.308 GiB. Using in-core AOs.

  ==> MemDFJK: Density-Fitted J/K Matrices <==

    J tasked:                   Yes
    K tasked:                   Yes
    wK tasked:                   No
    OpenMP threads:               1
    Memory [MiB]:               315
    Algorithm:                 Core
    Schwarz Cutoff:           1E-12
    Mask sparsity (%):       0.0000
    Fitting Condition:        1E-10

   => Auxiliary Basis Set <=

  Basis Set: (6-31++G** AUX)
    Blend: AUG-CC-PVDZ-JKFIT
    Number of shells: 52
    Number of basis function: 171
    Number of Cartesian functions: 171
    Spherical Harmonics?: false
    Max angular momentum: 3

  Cached 100.0% of DFT collocation blocks in 0.058 [GiB].

  Minimum eigenvalue in the overlap matrix is 1.2582576837E-02.
  Using Symmetric Orthogonalization.

  SCF Guess: Superposition of Atomic Densities via on-the-fly atomic UHF.

  ==> Iterations <==

                           Total Energy        Delta E     RMS |[F,P]|

   @DF-RKS iter SAD:   -76.05027136346062   -7.60503e+01   0.00000e+00 
   @DF-RKS iter   1:   -76.24745701842427   -1.97186e-01   3.84799e-02 DIIS
   @DF-RKS iter   2:   -75.82280285036659    4.24654e-01   6.71103e-02 DIIS
   @DF-RKS iter   3:   -76.43308884605530   -6.10286e-01   2.03049e-03 DIIS
   @DF-RKS iter   4:   -76.43376719297042   -6.78347e-04   2.09213e-04 DIIS
   @DF-RKS iter   5:   -76.43377226583574   -5.07287e-06   3.25918e-05 DIIS
   @DF-RKS iter   6:   -76.43377239624057   -1.30405e-07   3.89044e-06 DIIS
   @DF-RKS iter   7:   -76.43377239819802   -1.95745e-09   1.06769e-07 DIIS
   @DF-RKS iter   8:   -76.43377239819992   -1.90425e-12   1.67266e-08 DIIS
   @DF-RKS iter   9:   -76.43377239819998   -5.68434e-14   9.94068e-10 DIIS
  Energy and wave function converged.


  ==> Post-Iterations <==

    Orbital Energies [Eh]
    ---------------------

    Doubly Occupied:                                                      

       1A1   -19.171023     2A1    -1.025596     1B1    -0.535745  
       3A1    -0.401504     1B2    -0.321922  

    Virtual:                                                              

       4A1    -0.024867     2B1     0.028207     5A1     0.144324  
       2B2     0.154928     6A1     0.169085     3B1     0.196067  
       4B1     0.224102     7A1     0.279754     5B1     0.899656  
       8A1     0.997022     3B2     1.112012     9A1     1.139028  
       6B1     1.164178    10A1     1.368444     1A2     1.511407  
      11A1     1.523337     4B2     1.618423    12A1     2.243092  
       7B1     2.262503     8B1     2.509303     2A2     2.611525  
       5B2     2.672261    13A1     3.012525    14A1     3.347491  
       9B1     3.573973    15A1     4.012125  

    Final Occupation by Irrep:
             A1    A2    B1    B2 
    DOCC [     3,    0,    1,    1 ]

  @DF-RKS Final Energy:   -76.43377239819998

   => Energetics <=

    Nuclear Repulsion Energy =              9.1334334609951409
    One-Electron Energy =                -122.8144029948593072
    Two-Electron Energy =                  44.7792488316562114
    DFT Exchange-Correlation Energy =      -7.5320516959920099
    Empirical Dispersion Energy =           0.0000000000000000
    VV10 Nonlocal Energy =                  0.0000000000000000
    Total Energy =                        -76.4337723981999773

Computation Completed


Properties will be evaluated at   0.000000,   0.000000,   0.000000 [a0]

Properties computed using the SCF density matrix

  Nuclear Dipole Moment: [e a0]
     X:     0.0000      Y:     0.0000      Z:     1.0109

  Electronic Dipole Moment: [e a0]
     X:     0.0000      Y:     0.0000      Z:    -0.1275

  Dipole Moment: [e a0]
     X:     0.0000      Y:     0.0000      Z:     0.8834     Total:     0.8834

  Dipole Moment: [D]
     X:     0.0000      Y:     0.0000      Z:     2.2454     Total:     2.2454


*** tstop() called on atlantis at Tue Apr 19 00:13:55 2022
Module time:
	user time   =       1.18 seconds =       0.02 minutes
	system time =       0.01 seconds =       0.00 minutes
	total time  =          1 seconds =       0.02 minutes
Total time:
	user time   =       2.18 seconds =       0.04 minutes
	system time =       0.06 seconds =       0.00 minutes
	total time  =          2 seconds =       0.03 minutes

*** tstart() called on atlantis
*** at Tue Apr 19 00:13:55 2022


         ------------------------------------------------------------
                                   SCF GRAD                          
                          Rob Parrish, Justin Turney,                
                       Andy Simmonett, and Alex Sokolov              
         ------------------------------------------------------------

  ==> Geometry <==

    Molecular point group: c2v
    Full point group: C2v

    Geometry (in Angstrom), charge = 0, multiplicity = 1:

       Center              X                  Y                   Z               Mass       
    ------------   -----------------  -----------------  -----------------  -----------------
         O            0.000000000000     0.000000000000    -0.067969259994    15.994914619570
         H            0.749030000000     0.000000000000     0.539360740006     1.007825032230
         H           -0.749030000000    -0.000000000000     0.539360740006     1.007825032230

  Nuclear repulsion =    9.133433460995141

  ==> Basis Set <==

  Basis Set: 6-31++G**
    Blend: 6-31++G**
    Number of shells: 16
    Number of basis function: 31
    Number of Cartesian functions: 31
    Spherical Harmonics?: false
    Max angular momentum: 2

  ==> DFJKGrad: Density-Fitted SCF Gradients <==

    Gradient:                    1
    J tasked:                  Yes
    K tasked:                  Yes
    wK tasked:                  No
    OpenMP threads:              1
    Integrals threads:           1
    Memory [MiB]:              375
    Schwarz Cutoff:          0E+00
    Fitting Condition:       1E-10

   => Auxiliary Basis Set <=

  Basis Set: (6-31++G** AUX)
    Blend: AUG-CC-PVDZ-JKFIT
    Number of shells: 52
    Number of basis function: 171
    Number of Cartesian functions: 171
    Spherical Harmonics?: false
    Max angular momentum: 3

  ==> DFT Potential <==

   => Composite Functional: B3LYP <= 

    B3LYP Hyb-GGA Exchange-Correlation Functional

    P. J. Stephens, F. J. Devlin, C. F. Chabalowski, and M. J. Frisch, J. Phys. Chem. 98, 11623 (1994)

    Deriv               =              1
    GGA                 =           TRUE
    Meta                =          FALSE

    Exchange Hybrid     =           TRUE
    MP2 Hybrid          =          FALSE

   => Exchange Functionals <=

    0.0800   Slater exchange
    0.7200         Becke 88

   => Exact (HF) Exchange <=

    0.2000               HF 

   => Correlation Functionals <=

    0.1900   Vosko, Wilk & Nusair (VWN5_RPA)
    0.8100   Lee, Yang & Parr

   => Molecular Quadrature <=

    Radial Scheme          =       TREUTLER
    Pruning Scheme         =           FLAT
    Nuclear Scheme         =       TREUTLER

    BS radius alpha        =              1
    Pruning alpha          =              1
    Radial Points          =             75
    Spherical Points       =            302
    Total Points           =          67950
    Total Blocks           =            573
    Max Points             =            256
    Max Functions          =             31


  -Total Gradient:
     Atom            X                  Y                   Z
    ------   -----------------  -----------------  -----------------
       1        0.000000000000     0.000000000000    -0.005285242463
       2       -0.006001909425    -0.000000000000     0.002634443780
       3        0.006001909425     0.000000000000     0.002634443780


*** tstop() called on atlantis at Tue Apr 19 00:13:55 2022
Module time:
	user time   =       0.23 seconds =       0.00 minutes
	system time =       0.00 seconds =       0.00 minutes
	total time  =          0 seconds =       0.00 minutes
Total time:
	user time   =       2.41 seconds =       0.04 minutes
	system time =       0.06 seconds =       0.00 minutes
	total time  =          2 seconds =       0.03 minutes

  Based on options and gradient (rms=3.56E-03), recommend projecting translations and projecting rotations.
hessian() will perform frequency computation by finite difference of analytic gradients.

         ----------------------------------------------------------
                                   FINDIF
                     R. A. King and Jonathon Misiewicz
         ---------------------------------------------------------

  Using finite-differences of gradients to determine vibrational frequencies and 
  normal modes.  Resulting frequencies are only valid at stationary points.
    Generating geometries for use with 3-point formula.
    Displacement size will be 5.00e-03.
    Number of atoms is 3.
    Number of irreps is 4.
    Number of SALCs is 3.
    Translations projected? 1. Rotations projected? 1.
    Index of SALCs per irrep:
     1 :  0  1 
     2 : 
     3 :  2 
     4 : 
    Number of SALCs per irrep:
     Irrep 1: 2
     Irrep 2: 0
     Irrep 3: 1
     Irrep 4: 0
    Number of geometries (including reference) is 6.
    Number of displacements per irrep:
      Irrep 1: 4
      Irrep 2: 0
      Irrep 3: 1
      Irrep 4: 0

  //>>>>>>>>>>>>>>>>>>>>>>>>>>>>>>>>>>>//
  //    Loading displacement 1 of 6    //
  //<<<<<<<<<<<<<<<<<<<<<<<<<<<<<<<<<<<//
gradient() will perform analytic gradient computation.

*** tstart() called on atlantis
*** at Tue Apr 19 00:13:56 2022

   => Loading Basis Set <=

    Name: 6-31++G**
    Role: ORBITAL
    Keyword: BASIS
    atoms 1   entry O          line   153 file /home/akrom/software/anaconda3/envs/ffpenv/share/psi4/basis/6-31ppgss.gbs 
    atoms 2-3 entry H          line    46 file /home/akrom/software/anaconda3/envs/ffpenv/share/psi4/basis/6-31ppgss.gbs 


         ---------------------------------------------------------
                                   SCF
               by Justin Turney, Rob Parrish, Andy Simmonett
                          and Daniel G. A. Smith
                              RKS Reference
                        1 Threads,    500 MiB Core
         ---------------------------------------------------------

  ==> Geometry <==

    Molecular point group: c2v
    Full point group: C2v

    Geometry (in Angstrom), charge = 0, multiplicity = 1:

       Center              X                  Y                   Z               Mass       
    ------------   -----------------  -----------------  -----------------  -----------------
         O            0.000000000000     0.000000000000    -0.067969259994    15.994914619570
         H            0.749030000000     0.000000000000     0.539360740006     1.007825032230
         H           -0.749030000000    -0.000000000000     0.539360740006     1.007825032230

  Running in c2v symmetry.

  Rotational constants: A =     25.53156  B =     14.90675  C =      9.41168 [cm^-1]
  Rotational constants: A = 765416.81232  B = 446893.08836  C = 282155.15104 [MHz]
  Nuclear repulsion =    9.133433460995141

  Charge       = 0
  Multiplicity = 1
  Electrons    = 10
  Nalpha       = 5
  Nbeta        = 5

  ==> Algorithm <==

  SCF Algorithm Type is DF.
  DIIS enabled.
  MOM disabled.
  Fractional occupation disabled.
  Guess Type is SAD.
  Energy threshold   = 1.00e-08
  Density threshold  = 1.00e-08
  Integral threshold = 0.00e+00

  ==> Primary Basis <==

  Basis Set: 6-31++G**
    Blend: 6-31++G**
    Number of shells: 16
    Number of basis function: 31
    Number of Cartesian functions: 31
    Spherical Harmonics?: false
    Max angular momentum: 2

  ==> DFT Potential <==

   => Composite Functional: B3LYP <= 

    B3LYP Hyb-GGA Exchange-Correlation Functional

    P. J. Stephens, F. J. Devlin, C. F. Chabalowski, and M. J. Frisch, J. Phys. Chem. 98, 11623 (1994)

    Deriv               =              1
    GGA                 =           TRUE
    Meta                =          FALSE

    Exchange Hybrid     =           TRUE
    MP2 Hybrid          =          FALSE

   => Exchange Functionals <=

    0.0800   Slater exchange
    0.7200         Becke 88

   => Exact (HF) Exchange <=

    0.2000               HF 

   => Correlation Functionals <=

    0.1900   Vosko, Wilk & Nusair (VWN5_RPA)
    0.8100   Lee, Yang & Parr

   => Molecular Quadrature <=

    Radial Scheme          =       TREUTLER
    Pruning Scheme         =           FLAT
    Nuclear Scheme         =       TREUTLER

    BS radius alpha        =              1
    Pruning alpha          =              1
    Radial Points          =             75
    Spherical Points       =            302
    Total Points           =          67950
    Total Blocks           =            573
    Max Points             =            256
    Max Functions          =             31

   => Loading Basis Set <=

    Name: (6-31++G** AUX)
    Role: JKFIT
    Keyword: DF_BASIS_SCF
    atoms 1   entry O          line   270 file /home/akrom/software/anaconda3/envs/ffpenv/share/psi4/basis/aug-cc-pvdz-jkfit.gbs 
    atoms 2-3 entry H          line    70 file /home/akrom/software/anaconda3/envs/ffpenv/share/psi4/basis/aug-cc-pvdz-jkfit.gbs 

  ==> Pre-Iterations <==

   -------------------------------------------------------
    Irrep   Nso     Nmo     Nalpha   Nbeta   Ndocc  Nsocc
   -------------------------------------------------------
     A1        15      15       0       0       0       0
     A2         2       2       0       0       0       0
     B1         9       9       0       0       0       0
     B2         5       5       0       0       0       0
   -------------------------------------------------------
    Total      31      31       5       5       5       0
   -------------------------------------------------------

  ==> Integral Setup <==

  DFHelper Memory: AOs need 0.002 GiB; user supplied 0.308 GiB. Using in-core AOs.

  ==> MemDFJK: Density-Fitted J/K Matrices <==

    J tasked:                   Yes
    K tasked:                   Yes
    wK tasked:                   No
    OpenMP threads:               1
    Memory [MiB]:               315
    Algorithm:                 Core
    Schwarz Cutoff:           1E-12
    Mask sparsity (%):       0.0000
    Fitting Condition:        1E-10

   => Auxiliary Basis Set <=

  Basis Set: (6-31++G** AUX)
    Blend: AUG-CC-PVDZ-JKFIT
    Number of shells: 52
    Number of basis function: 171
    Number of Cartesian functions: 171
    Spherical Harmonics?: false
    Max angular momentum: 3

  Cached 100.0% of DFT collocation blocks in 0.058 [GiB].

  Minimum eigenvalue in the overlap matrix is 1.2582576837E-02.
  Using Symmetric Orthogonalization.

  SCF Guess: Superposition of Atomic Densities via on-the-fly atomic UHF.

  ==> Iterations <==

                           Total Energy        Delta E     RMS |[F,P]|

   @DF-RKS iter SAD:   -76.05027136346061   -7.60503e+01   0.00000e+00 
   @DF-RKS iter   1:   -76.24745701842424   -1.97186e-01   3.84799e-02 DIIS
   @DF-RKS iter   2:   -75.82280285036659    4.24654e-01   6.71103e-02 DIIS
   @DF-RKS iter   3:   -76.43308884605526   -6.10286e-01   2.03049e-03 DIIS
   @DF-RKS iter   4:   -76.43376719297042   -6.78347e-04   2.09213e-04 DIIS
   @DF-RKS iter   5:   -76.43377226583571   -5.07287e-06   3.25918e-05 DIIS
   @DF-RKS iter   6:   -76.43377239624056   -1.30405e-07   3.89044e-06 DIIS
   @DF-RKS iter   7:   -76.43377239819802   -1.95746e-09   1.06769e-07 DIIS
   @DF-RKS iter   8:   -76.43377239819991   -1.89004e-12   1.67266e-08 DIIS
   @DF-RKS iter   9:   -76.43377239819998   -7.10543e-14   9.94067e-10 DIIS
  Energy and wave function converged.


  ==> Post-Iterations <==

    Orbital Energies [Eh]
    ---------------------

    Doubly Occupied:                                                      

       1A1   -19.171023     2A1    -1.025596     1B1    -0.535745  
       3A1    -0.401504     1B2    -0.321922  

    Virtual:                                                              

       4A1    -0.024867     2B1     0.028207     5A1     0.144324  
       2B2     0.154928     6A1     0.169085     3B1     0.196067  
       4B1     0.224102     7A1     0.279754     5B1     0.899656  
       8A1     0.997022     3B2     1.112012     9A1     1.139028  
       6B1     1.164178    10A1     1.368444     1A2     1.511407  
      11A1     1.523337     4B2     1.618423    12A1     2.243092  
       7B1     2.262503     8B1     2.509303     2A2     2.611525  
       5B2     2.672261    13A1     3.012525    14A1     3.347491  
       9B1     3.573973    15A1     4.012125  

    Final Occupation by Irrep:
             A1    A2    B1    B2 
    DOCC [     3,    0,    1,    1 ]

  @DF-RKS Final Energy:   -76.43377239819998

   => Energetics <=

    Nuclear Repulsion Energy =              9.1334334609951409
    One-Electron Energy =                -122.8144029948592220
    Two-Electron Energy =                  44.7792488316561119
    DFT Exchange-Correlation Energy =      -7.5320516959920045
    Empirical Dispersion Energy =           0.0000000000000000
    VV10 Nonlocal Energy =                  0.0000000000000000
    Total Energy =                        -76.4337723981999773

Computation Completed


Properties will be evaluated at   0.000000,   0.000000,   0.000000 [a0]

Properties computed using the SCF density matrix

  Nuclear Dipole Moment: [e a0]
     X:     0.0000      Y:     0.0000      Z:     1.0109

  Electronic Dipole Moment: [e a0]
     X:     0.0000      Y:     0.0000      Z:    -0.1275

  Dipole Moment: [e a0]
     X:     0.0000      Y:     0.0000      Z:     0.8834     Total:     0.8834

  Dipole Moment: [D]
     X:     0.0000      Y:     0.0000      Z:     2.2454     Total:     2.2454


*** tstop() called on atlantis at Tue Apr 19 00:13:57 2022
Module time:
	user time   =       1.16 seconds =       0.02 minutes
	system time =       0.02 seconds =       0.00 minutes
	total time  =          1 seconds =       0.02 minutes
Total time:
	user time   =       3.85 seconds =       0.06 minutes
	system time =       0.08 seconds =       0.00 minutes
	total time  =          4 seconds =       0.07 minutes

*** tstart() called on atlantis
*** at Tue Apr 19 00:13:57 2022


         ------------------------------------------------------------
                                   SCF GRAD                          
                          Rob Parrish, Justin Turney,                
                       Andy Simmonett, and Alex Sokolov              
         ------------------------------------------------------------

  ==> Geometry <==

    Molecular point group: c2v
    Full point group: C2v

    Geometry (in Angstrom), charge = 0, multiplicity = 1:

       Center              X                  Y                   Z               Mass       
    ------------   -----------------  -----------------  -----------------  -----------------
         O            0.000000000000     0.000000000000    -0.067969259994    15.994914619570
         H            0.749030000000     0.000000000000     0.539360740006     1.007825032230
         H           -0.749030000000    -0.000000000000     0.539360740006     1.007825032230

  Nuclear repulsion =    9.133433460995141

  ==> Basis Set <==

  Basis Set: 6-31++G**
    Blend: 6-31++G**
    Number of shells: 16
    Number of basis function: 31
    Number of Cartesian functions: 31
    Spherical Harmonics?: false
    Max angular momentum: 2

  ==> DFJKGrad: Density-Fitted SCF Gradients <==

    Gradient:                    1
    J tasked:                  Yes
    K tasked:                  Yes
    wK tasked:                  No
    OpenMP threads:              1
    Integrals threads:           1
    Memory [MiB]:              375
    Schwarz Cutoff:          0E+00
    Fitting Condition:       1E-10

   => Auxiliary Basis Set <=

  Basis Set: (6-31++G** AUX)
    Blend: AUG-CC-PVDZ-JKFIT
    Number of shells: 52
    Number of basis function: 171
    Number of Cartesian functions: 171
    Spherical Harmonics?: false
    Max angular momentum: 3

  ==> DFT Potential <==

   => Composite Functional: B3LYP <= 

    B3LYP Hyb-GGA Exchange-Correlation Functional

    P. J. Stephens, F. J. Devlin, C. F. Chabalowski, and M. J. Frisch, J. Phys. Chem. 98, 11623 (1994)

    Deriv               =              1
    GGA                 =           TRUE
    Meta                =          FALSE

    Exchange Hybrid     =           TRUE
    MP2 Hybrid          =          FALSE

   => Exchange Functionals <=

    0.0800   Slater exchange
    0.7200         Becke 88

   => Exact (HF) Exchange <=

    0.2000               HF 

   => Correlation Functionals <=

    0.1900   Vosko, Wilk & Nusair (VWN5_RPA)
    0.8100   Lee, Yang & Parr

   => Molecular Quadrature <=

    Radial Scheme          =       TREUTLER
    Pruning Scheme         =           FLAT
    Nuclear Scheme         =       TREUTLER

    BS radius alpha        =              1
    Pruning alpha          =              1
    Radial Points          =             75
    Spherical Points       =            302
    Total Points           =          67950
    Total Blocks           =            573
    Max Points             =            256
    Max Functions          =             31


  -Total Gradient:
     Atom            X                  Y                   Z
    ------   -----------------  -----------------  -----------------
       1        0.000000000000     0.000000000000    -0.005285243336
       2       -0.006001908783    -0.000000000000     0.002634444216
       3        0.006001908783     0.000000000000     0.002634444216


*** tstop() called on atlantis at Tue Apr 19 00:13:57 2022
Module time:
	user time   =       0.23 seconds =       0.00 minutes
	system time =       0.01 seconds =       0.00 minutes
	total time  =          0 seconds =       0.00 minutes
Total time:
	user time   =       4.08 seconds =       0.07 minutes
	system time =       0.09 seconds =       0.00 minutes
	total time  =          4 seconds =       0.07 minutes

  //>>>>>>>>>>>>>>>>>>>>>>>>>>>>>>>>>>>//
  //    Loading displacement 2 of 6    //
  //<<<<<<<<<<<<<<<<<<<<<<<<<<<<<<<<<<<//
gradient() will perform analytic gradient computation.

*** tstart() called on atlantis
*** at Tue Apr 19 00:13:57 2022

   => Loading Basis Set <=

    Name: 6-31++G**
    Role: ORBITAL
    Keyword: BASIS
    atoms 1   entry O          line   153 file /home/akrom/software/anaconda3/envs/ffpenv/share/psi4/basis/6-31ppgss.gbs 
    atoms 2-3 entry H          line    46 file /home/akrom/software/anaconda3/envs/ffpenv/share/psi4/basis/6-31ppgss.gbs 


         ---------------------------------------------------------
                                   SCF
               by Justin Turney, Rob Parrish, Andy Simmonett
                          and Daniel G. A. Smith
                              RKS Reference
                        1 Threads,    500 MiB Core
         ---------------------------------------------------------

  ==> Geometry <==

    Molecular point group: c2v
    Full point group: C2v

    Geometry (in Angstrom), charge = 0, multiplicity = 1:

       Center              X                  Y                   Z               Mass       
    ------------   -----------------  -----------------  -----------------  -----------------
         O            0.000000000000     0.000000000000    -0.068190581735    15.994914619570
         H            0.749030000000     0.000000000000     0.541117008324     1.007825032230
         H           -0.749030000000    -0.000000000000     0.541117008324     1.007825032230

  Running in c2v symmetry.

  Rotational constants: A =     25.36609  B =     14.90675  C =      9.38911 [cm^-1]
  Rotational constants: A = 760456.34809  B = 446893.08836  C = 281478.31580 [MHz]
  Nuclear repulsion =    9.122096529799810

  Charge       = 0
  Multiplicity = 1
  Electrons    = 10
  Nalpha       = 5
  Nbeta        = 5

  ==> Algorithm <==

  SCF Algorithm Type is DF.
  DIIS enabled.
  MOM disabled.
  Fractional occupation disabled.
  Guess Type is SAD.
  Energy threshold   = 1.00e-08
  Density threshold  = 1.00e-08
  Integral threshold = 0.00e+00

  ==> Primary Basis <==

  Basis Set: 6-31++G**
    Blend: 6-31++G**
    Number of shells: 16
    Number of basis function: 31
    Number of Cartesian functions: 31
    Spherical Harmonics?: false
    Max angular momentum: 2

  ==> DFT Potential <==

   => Composite Functional: B3LYP <= 

    B3LYP Hyb-GGA Exchange-Correlation Functional

    P. J. Stephens, F. J. Devlin, C. F. Chabalowski, and M. J. Frisch, J. Phys. Chem. 98, 11623 (1994)

    Deriv               =              1
    GGA                 =           TRUE
    Meta                =          FALSE

    Exchange Hybrid     =           TRUE
    MP2 Hybrid          =          FALSE

   => Exchange Functionals <=

    0.0800   Slater exchange
    0.7200         Becke 88

   => Exact (HF) Exchange <=

    0.2000               HF 

   => Correlation Functionals <=

    0.1900   Vosko, Wilk & Nusair (VWN5_RPA)
    0.8100   Lee, Yang & Parr

   => Molecular Quadrature <=

    Radial Scheme          =       TREUTLER
    Pruning Scheme         =           FLAT
    Nuclear Scheme         =       TREUTLER

    BS radius alpha        =              1
    Pruning alpha          =              1
    Radial Points          =             75
    Spherical Points       =            302
    Total Points           =          67950
    Total Blocks           =            572
    Max Points             =            256
    Max Functions          =             31

   => Loading Basis Set <=

    Name: (6-31++G** AUX)
    Role: JKFIT
    Keyword: DF_BASIS_SCF
    atoms 1   entry O          line   270 file /home/akrom/software/anaconda3/envs/ffpenv/share/psi4/basis/aug-cc-pvdz-jkfit.gbs 
    atoms 2-3 entry H          line    70 file /home/akrom/software/anaconda3/envs/ffpenv/share/psi4/basis/aug-cc-pvdz-jkfit.gbs 

  ==> Pre-Iterations <==

   -------------------------------------------------------
    Irrep   Nso     Nmo     Nalpha   Nbeta   Ndocc  Nsocc
   -------------------------------------------------------
     A1        15      15       0       0       0       0
     A2         2       2       0       0       0       0
     B1         9       9       0       0       0       0
     B2         5       5       0       0       0       0
   -------------------------------------------------------
    Total      31      31       5       5       5       0
   -------------------------------------------------------

  ==> Integral Setup <==

  DFHelper Memory: AOs need 0.002 GiB; user supplied 0.308 GiB. Using in-core AOs.

  ==> MemDFJK: Density-Fitted J/K Matrices <==

    J tasked:                   Yes
    K tasked:                   Yes
    wK tasked:                   No
    OpenMP threads:               1
    Memory [MiB]:               315
    Algorithm:                 Core
    Schwarz Cutoff:           1E-12
    Mask sparsity (%):       0.0000
    Fitting Condition:        1E-10

   => Auxiliary Basis Set <=

  Basis Set: (6-31++G** AUX)
    Blend: AUG-CC-PVDZ-JKFIT
    Number of shells: 52
    Number of basis function: 171
    Number of Cartesian functions: 171
    Spherical Harmonics?: false
    Max angular momentum: 3

  Cached 100.0% of DFT collocation blocks in 0.058 [GiB].

  Minimum eigenvalue in the overlap matrix is 1.2579410592E-02.
  Using Symmetric Orthogonalization.

  SCF Guess: Superposition of Atomic Densities via on-the-fly atomic UHF.

  ==> Iterations <==

                           Total Energy        Delta E     RMS |[F,P]|

   @DF-RKS iter SAD:   -76.04964545378320   -7.60496e+01   0.00000e+00 
   @DF-RKS iter   1:   -76.24755506355731   -1.97910e-01   3.84552e-02 DIIS
   @DF-RKS iter   2:   -75.82163900846504    4.25916e-01   6.71510e-02 DIIS
   @DF-RKS iter   3:   -76.43306599093010   -6.11427e-01   2.02942e-03 DIIS
   @DF-RKS iter   4:   -76.43374419255956   -6.78202e-04   2.09756e-04 DIIS
   @DF-RKS iter   5:   -76.43374929540570   -5.10285e-06   3.26735e-05 DIIS
   @DF-RKS iter   6:   -76.43374942658302   -1.31177e-07   3.90275e-06 DIIS
   @DF-RKS iter   7:   -76.43374942855490   -1.97188e-09   1.08691e-07 DIIS
   @DF-RKS iter   8:   -76.43374942855698   -2.07478e-12   1.69369e-08 DIIS
   @DF-RKS iter   9:   -76.43374942855705   -7.10543e-14   1.07143e-09 DIIS
  Energy and wave function converged.


  ==> Post-Iterations <==

    Orbital Energies [Eh]
    ---------------------

    Doubly Occupied:                                                      

       1A1   -19.171274     2A1    -1.025186     1B1    -0.534941  
       3A1    -0.401750     1B2    -0.321862  

    Virtual:                                                              

       4A1    -0.025012     2B1     0.028141     5A1     0.144258  
       2B2     0.154928     6A1     0.168884     3B1     0.195334  
       4B1     0.224119     7A1     0.279787     5B1     0.898539  
       8A1     0.996181     3B2     1.111970     9A1     1.139521  
       6B1     1.164499    10A1     1.368804     1A2     1.511729  
      11A1     1.522300     4B2     1.617821    12A1     2.241475  
       7B1     2.261778     8B1     2.506852     2A2     2.609115  
       5B2     2.671868    13A1     3.009216    14A1     3.345189  
       9B1     3.573200    15A1     4.011147  

    Final Occupation by Irrep:
             A1    A2    B1    B2 
    DOCC [     3,    0,    1,    1 ]

  @DF-RKS Final Energy:   -76.43374942855705

   => Energetics <=

    Nuclear Repulsion Energy =              9.1220965297998102
    One-Electron Energy =                -122.7938789826213934
    Two-Electron Energy =                  44.7691557802691804
    DFT Exchange-Correlation Energy =      -7.5311227560046428
    Empirical Dispersion Energy =           0.0000000000000000
    VV10 Nonlocal Energy =                  0.0000000000000000
    Total Energy =                        -76.4337494285570500

Computation Completed


Properties will be evaluated at   0.000000,   0.000000,   0.000000 [a0]

Properties computed using the SCF density matrix

  Nuclear Dipole Moment: [e a0]
     X:     0.0000      Y:     0.0000      Z:     1.0142

  Electronic Dipole Moment: [e a0]
     X:     0.0000      Y:     0.0000      Z:    -0.1295

  Dipole Moment: [e a0]
     X:     0.0000      Y:     0.0000      Z:     0.8847     Total:     0.8847

  Dipole Moment: [D]
     X:     0.0000      Y:     0.0000      Z:     2.2487     Total:     2.2487


*** tstop() called on atlantis at Tue Apr 19 00:13:58 2022
Module time:
	user time   =       1.18 seconds =       0.02 minutes
	system time =       0.00 seconds =       0.00 minutes
	total time  =          1 seconds =       0.02 minutes
Total time:
	user time   =       5.26 seconds =       0.09 minutes
	system time =       0.09 seconds =       0.00 minutes
	total time  =          5 seconds =       0.08 minutes

*** tstart() called on atlantis
*** at Tue Apr 19 00:13:58 2022


         ------------------------------------------------------------
                                   SCF GRAD                          
                          Rob Parrish, Justin Turney,                
                       Andy Simmonett, and Alex Sokolov              
         ------------------------------------------------------------

  ==> Geometry <==

    Molecular point group: c2v
    Full point group: C2v

    Geometry (in Angstrom), charge = 0, multiplicity = 1:

       Center              X                  Y                   Z               Mass       
    ------------   -----------------  -----------------  -----------------  -----------------
         O            0.000000000000     0.000000000000    -0.068190581735    15.994914619570
         H            0.749030000000     0.000000000000     0.541117008324     1.007825032230
         H           -0.749030000000    -0.000000000000     0.541117008324     1.007825032230

  Nuclear repulsion =    9.122096529799810

  ==> Basis Set <==

  Basis Set: 6-31++G**
    Blend: 6-31++G**
    Number of shells: 16
    Number of basis function: 31
    Number of Cartesian functions: 31
    Spherical Harmonics?: false
    Max angular momentum: 2

  ==> DFJKGrad: Density-Fitted SCF Gradients <==

    Gradient:                    1
    J tasked:                  Yes
    K tasked:                  Yes
    wK tasked:                  No
    OpenMP threads:              1
    Integrals threads:           1
    Memory [MiB]:              375
    Schwarz Cutoff:          0E+00
    Fitting Condition:       1E-10

   => Auxiliary Basis Set <=

  Basis Set: (6-31++G** AUX)
    Blend: AUG-CC-PVDZ-JKFIT
    Number of shells: 52
    Number of basis function: 171
    Number of Cartesian functions: 171
    Spherical Harmonics?: false
    Max angular momentum: 3

  ==> DFT Potential <==

   => Composite Functional: B3LYP <= 

    B3LYP Hyb-GGA Exchange-Correlation Functional

    P. J. Stephens, F. J. Devlin, C. F. Chabalowski, and M. J. Frisch, J. Phys. Chem. 98, 11623 (1994)

    Deriv               =              1
    GGA                 =           TRUE
    Meta                =          FALSE

    Exchange Hybrid     =           TRUE
    MP2 Hybrid          =          FALSE

   => Exchange Functionals <=

    0.0800   Slater exchange
    0.7200         Becke 88

   => Exact (HF) Exchange <=

    0.2000               HF 

   => Correlation Functionals <=

    0.1900   Vosko, Wilk & Nusair (VWN5_RPA)
    0.8100   Lee, Yang & Parr

   => Molecular Quadrature <=

    Radial Scheme          =       TREUTLER
    Pruning Scheme         =           FLAT
    Nuclear Scheme         =       TREUTLER

    BS radius alpha        =              1
    Pruning alpha          =              1
    Radial Points          =             75
    Spherical Points       =            302
    Total Points           =          67950
    Total Blocks           =            572
    Max Points             =            256
    Max Functions          =             31


  -Total Gradient:
     Atom            X                  Y                   Z
    ------   -----------------  -----------------  -----------------
       1        0.000000000000    -0.000000000000    -0.007031085054
       2       -0.005232187464    -0.000000000000     0.003507647963
       3        0.005232187464     0.000000000000     0.003507647963


*** tstop() called on atlantis at Tue Apr 19 00:13:58 2022
Module time:
	user time   =       0.22 seconds =       0.00 minutes
	system time =       0.00 seconds =       0.00 minutes
	total time  =          0 seconds =       0.00 minutes
Total time:
	user time   =       5.48 seconds =       0.09 minutes
	system time =       0.09 seconds =       0.00 minutes
	total time  =          5 seconds =       0.08 minutes

  //>>>>>>>>>>>>>>>>>>>>>>>>>>>>>>>>>>>//
  //    Loading displacement 3 of 6    //
  //<<<<<<<<<<<<<<<<<<<<<<<<<<<<<<<<<<<//
gradient() will perform analytic gradient computation.

*** tstart() called on atlantis
*** at Tue Apr 19 00:13:58 2022

   => Loading Basis Set <=

    Name: 6-31++G**
    Role: ORBITAL
    Keyword: BASIS
    atoms 1   entry O          line   153 file /home/akrom/software/anaconda3/envs/ffpenv/share/psi4/basis/6-31ppgss.gbs 
    atoms 2-3 entry H          line    46 file /home/akrom/software/anaconda3/envs/ffpenv/share/psi4/basis/6-31ppgss.gbs 


         ---------------------------------------------------------
                                   SCF
               by Justin Turney, Rob Parrish, Andy Simmonett
                          and Daniel G. A. Smith
                              RKS Reference
                        1 Threads,    500 MiB Core
         ---------------------------------------------------------

  ==> Geometry <==

    Molecular point group: c2v
    Full point group: C2v

    Geometry (in Angstrom), charge = 0, multiplicity = 1:

       Center              X                  Y                   Z               Mass       
    ------------   -----------------  -----------------  -----------------  -----------------
         O            0.000000000000     0.000000000000    -0.067747938253    15.994914619570
         H            0.749030000000     0.000000000000     0.537604471688     1.007825032230
         H           -0.749030000000    -0.000000000000     0.537604471688     1.007825032230

  Running in c2v symmetry.

  Rotational constants: A =     25.69864  B =     14.90675  C =      9.43429 [cm^-1]
  Rotational constants: A = 770425.97106  B = 446893.08836  C = 282833.03288 [MHz]
  Nuclear repulsion =    9.144777407102437

  Charge       = 0
  Multiplicity = 1
  Electrons    = 10
  Nalpha       = 5
  Nbeta        = 5

  ==> Algorithm <==

  SCF Algorithm Type is DF.
  DIIS enabled.
  MOM disabled.
  Fractional occupation disabled.
  Guess Type is SAD.
  Energy threshold   = 1.00e-08
  Density threshold  = 1.00e-08
  Integral threshold = 0.00e+00

  ==> Primary Basis <==

  Basis Set: 6-31++G**
    Blend: 6-31++G**
    Number of shells: 16
    Number of basis function: 31
    Number of Cartesian functions: 31
    Spherical Harmonics?: false
    Max angular momentum: 2

  ==> DFT Potential <==

   => Composite Functional: B3LYP <= 

    B3LYP Hyb-GGA Exchange-Correlation Functional

    P. J. Stephens, F. J. Devlin, C. F. Chabalowski, and M. J. Frisch, J. Phys. Chem. 98, 11623 (1994)

    Deriv               =              1
    GGA                 =           TRUE
    Meta                =          FALSE

    Exchange Hybrid     =           TRUE
    MP2 Hybrid          =          FALSE

   => Exchange Functionals <=

    0.0800   Slater exchange
    0.7200         Becke 88

   => Exact (HF) Exchange <=

    0.2000               HF 

   => Correlation Functionals <=

    0.1900   Vosko, Wilk & Nusair (VWN5_RPA)
    0.8100   Lee, Yang & Parr

   => Molecular Quadrature <=

    Radial Scheme          =       TREUTLER
    Pruning Scheme         =           FLAT
    Nuclear Scheme         =       TREUTLER

    BS radius alpha        =              1
    Pruning alpha          =              1
    Radial Points          =             75
    Spherical Points       =            302
    Total Points           =          67950
    Total Blocks           =            574
    Max Points             =            256
    Max Functions          =             31

   => Loading Basis Set <=

    Name: (6-31++G** AUX)
    Role: JKFIT
    Keyword: DF_BASIS_SCF
    atoms 1   entry O          line   270 file /home/akrom/software/anaconda3/envs/ffpenv/share/psi4/basis/aug-cc-pvdz-jkfit.gbs 
    atoms 2-3 entry H          line    70 file /home/akrom/software/anaconda3/envs/ffpenv/share/psi4/basis/aug-cc-pvdz-jkfit.gbs 

  ==> Pre-Iterations <==

   -------------------------------------------------------
    Irrep   Nso     Nmo     Nalpha   Nbeta   Ndocc  Nsocc
   -------------------------------------------------------
     A1        15      15       0       0       0       0
     A2         2       2       0       0       0       0
     B1         9       9       0       0       0       0
     B2         5       5       0       0       0       0
   -------------------------------------------------------
    Total      31      31       5       5       5       0
   -------------------------------------------------------

  ==> Integral Setup <==

  DFHelper Memory: AOs need 0.002 GiB; user supplied 0.308 GiB. Using in-core AOs.

  ==> MemDFJK: Density-Fitted J/K Matrices <==

    J tasked:                   Yes
    K tasked:                   Yes
    wK tasked:                   No
    OpenMP threads:               1
    Memory [MiB]:               315
    Algorithm:                 Core
    Schwarz Cutoff:           1E-12
    Mask sparsity (%):       0.0000
    Fitting Condition:        1E-10

   => Auxiliary Basis Set <=

  Basis Set: (6-31++G** AUX)
    Blend: AUG-CC-PVDZ-JKFIT
    Number of shells: 52
    Number of basis function: 171
    Number of Cartesian functions: 171
    Spherical Harmonics?: false
    Max angular momentum: 3

  Cached 100.0% of DFT collocation blocks in 0.058 [GiB].

  Minimum eigenvalue in the overlap matrix is 1.2585860887E-02.
  Using Symmetric Orthogonalization.

  SCF Guess: Superposition of Atomic Densities via on-the-fly atomic UHF.

  ==> Iterations <==

                           Total Energy        Delta E     RMS |[F,P]|

   @DF-RKS iter SAD:   -76.05089221951189   -7.60509e+01   0.00000e+00 
   @DF-RKS iter   1:   -76.24735037335805   -1.96458e-01   3.85048e-02 DIIS
   @DF-RKS iter   2:   -75.82394345509942    4.23407e-01   6.70702e-02 DIIS
   @DF-RKS iter   3:   -76.43310512659460   -6.09162e-01   2.03160e-03 DIIS
   @DF-RKS iter   4:   -76.43378365391055   -6.78527e-04   2.08676e-04 DIIS
   @DF-RKS iter   5:   -76.43378869723364   -5.04332e-06   3.25083e-05 DIIS
   @DF-RKS iter   6:   -76.43378882685444   -1.29621e-07   3.87833e-06 DIIS
   @DF-RKS iter   7:   -76.43378882879767   -1.94323e-09   1.04926e-07 DIIS
   @DF-RKS iter   8:   -76.43378882879959   -1.91847e-12   1.65182e-08 DIIS
   @DF-RKS iter   9:   -76.43378882879958    1.42109e-14   9.15566e-10 DIIS
  Energy and wave function converged.


  ==> Post-Iterations <==

    Orbital Energies [Eh]
    ---------------------

    Doubly Occupied:                                                      

       1A1   -19.170772     2A1    -1.026006     1B1    -0.536551  
       3A1    -0.401258     1B2    -0.321983  

    Virtual:                                                              

       4A1    -0.024723     2B1     0.028273     5A1     0.144388  
       2B2     0.154928     6A1     0.169285     3B1     0.196799  
       4B1     0.224086     7A1     0.279718     5B1     0.900781  
       8A1     0.997858     3B2     1.112053     9A1     1.138533  
       6B1     1.163857    10A1     1.368084     1A2     1.511088  
      11A1     1.524382     4B2     1.619029    12A1     2.244704  
       7B1     2.263197     8B1     2.511782     2A2     2.613942  
       5B2     2.672640    13A1     3.015818    14A1     3.349815  
       9B1     3.574746    15A1     4.013118  

    Final Occupation by Irrep:
             A1    A2    B1    B2 
    DOCC [     3,    0,    1,    1 ]

  @DF-RKS Final Energy:   -76.43378882879958

   => Energetics <=

    Nuclear Repulsion Energy =              9.1447774071024366
    One-Electron Energy =                -122.8349260185498366
    Two-Electron Energy =                  44.7893405816605394
    DFT Exchange-Correlation Energy =      -7.5329807990127016
    Empirical Dispersion Energy =           0.0000000000000000
    VV10 Nonlocal Energy =                  0.0000000000000000
    Total Energy =                        -76.4337888287995639

Computation Completed


Properties will be evaluated at   0.000000,   0.000000,   0.000000 [a0]

Properties computed using the SCF density matrix

  Nuclear Dipole Moment: [e a0]
     X:     0.0000      Y:     0.0000      Z:     1.0077

  Electronic Dipole Moment: [e a0]
     X:     0.0000      Y:     0.0000      Z:    -0.1256

  Dipole Moment: [e a0]
     X:     0.0000      Y:     0.0000      Z:     0.8821     Total:     0.8821

  Dipole Moment: [D]
     X:     0.0000      Y:     0.0000      Z:     2.2420     Total:     2.2420


*** tstop() called on atlantis at Tue Apr 19 00:14:00 2022
Module time:
	user time   =       1.16 seconds =       0.02 minutes
	system time =       0.01 seconds =       0.00 minutes
	total time  =          2 seconds =       0.03 minutes
Total time:
	user time   =       6.65 seconds =       0.11 minutes
	system time =       0.10 seconds =       0.00 minutes
	total time  =          7 seconds =       0.12 minutes

*** tstart() called on atlantis
*** at Tue Apr 19 00:14:00 2022


         ------------------------------------------------------------
                                   SCF GRAD                          
                          Rob Parrish, Justin Turney,                
                       Andy Simmonett, and Alex Sokolov              
         ------------------------------------------------------------

  ==> Geometry <==

    Molecular point group: c2v
    Full point group: C2v

    Geometry (in Angstrom), charge = 0, multiplicity = 1:

       Center              X                  Y                   Z               Mass       
    ------------   -----------------  -----------------  -----------------  -----------------
         O            0.000000000000     0.000000000000    -0.067747938253    15.994914619570
         H            0.749030000000     0.000000000000     0.537604471688     1.007825032230
         H           -0.749030000000    -0.000000000000     0.537604471688     1.007825032230

  Nuclear repulsion =    9.144777407102437

  ==> Basis Set <==

  Basis Set: 6-31++G**
    Blend: 6-31++G**
    Number of shells: 16
    Number of basis function: 31
    Number of Cartesian functions: 31
    Spherical Harmonics?: false
    Max angular momentum: 2

  ==> DFJKGrad: Density-Fitted SCF Gradients <==

    Gradient:                    1
    J tasked:                  Yes
    K tasked:                  Yes
    wK tasked:                  No
    OpenMP threads:              1
    Integrals threads:           1
    Memory [MiB]:              375
    Schwarz Cutoff:          0E+00
    Fitting Condition:       1E-10

   => Auxiliary Basis Set <=

  Basis Set: (6-31++G** AUX)
    Blend: AUG-CC-PVDZ-JKFIT
    Number of shells: 52
    Number of basis function: 171
    Number of Cartesian functions: 171
    Spherical Harmonics?: false
    Max angular momentum: 3

  ==> DFT Potential <==

   => Composite Functional: B3LYP <= 

    B3LYP Hyb-GGA Exchange-Correlation Functional

    P. J. Stephens, F. J. Devlin, C. F. Chabalowski, and M. J. Frisch, J. Phys. Chem. 98, 11623 (1994)

    Deriv               =              1
    GGA                 =           TRUE
    Meta                =          FALSE

    Exchange Hybrid     =           TRUE
    MP2 Hybrid          =          FALSE

   => Exchange Functionals <=

    0.0800   Slater exchange
    0.7200         Becke 88

   => Exact (HF) Exchange <=

    0.2000               HF 

   => Correlation Functionals <=

    0.1900   Vosko, Wilk & Nusair (VWN5_RPA)
    0.8100   Lee, Yang & Parr

   => Molecular Quadrature <=

    Radial Scheme          =       TREUTLER
    Pruning Scheme         =           FLAT
    Nuclear Scheme         =       TREUTLER

    BS radius alpha        =              1
    Pruning alpha          =              1
    Radial Points          =             75
    Spherical Points       =            302
    Total Points           =          67950
    Total Blocks           =            574
    Max Points             =            256
    Max Functions          =             31


  -Total Gradient:
     Atom            X                  Y                   Z
    ------   -----------------  -----------------  -----------------
       1        0.000000000000    -0.000000000000    -0.003532823312
       2       -0.006780074798    -0.000000000000     0.001757959789
       3        0.006780074798     0.000000000000     0.001757959789


*** tstop() called on atlantis at Tue Apr 19 00:14:00 2022
Module time:
	user time   =       0.23 seconds =       0.00 minutes
	system time =       0.00 seconds =       0.00 minutes
	total time  =          0 seconds =       0.00 minutes
Total time:
	user time   =       6.88 seconds =       0.11 minutes
	system time =       0.10 seconds =       0.00 minutes
	total time  =          7 seconds =       0.12 minutes

  //>>>>>>>>>>>>>>>>>>>>>>>>>>>>>>>>>>>//
  //    Loading displacement 4 of 6    //
  //<<<<<<<<<<<<<<<<<<<<<<<<<<<<<<<<<<<//
gradient() will perform analytic gradient computation.

*** tstart() called on atlantis
*** at Tue Apr 19 00:14:00 2022

   => Loading Basis Set <=

    Name: 6-31++G**
    Role: ORBITAL
    Keyword: BASIS
    atoms 1   entry O          line   153 file /home/akrom/software/anaconda3/envs/ffpenv/share/psi4/basis/6-31ppgss.gbs 
    atoms 2-3 entry H          line    46 file /home/akrom/software/anaconda3/envs/ffpenv/share/psi4/basis/6-31ppgss.gbs 


         ---------------------------------------------------------
                                   SCF
               by Justin Turney, Rob Parrish, Andy Simmonett
                          and Daniel G. A. Smith
                              RKS Reference
                        1 Threads,    500 MiB Core
         ---------------------------------------------------------

  ==> Geometry <==

    Molecular point group: c2v
    Full point group: C2v

    Geometry (in Angstrom), charge = 0, multiplicity = 1:

       Center              X                  Y                   Z               Mass       
    ------------   -----------------  -----------------  -----------------  -----------------
         O            0.000000000000     0.000000000000    -0.067969259994    15.994914619570
         H            0.747166353368     0.000000000000     0.539360740006     1.007825032230
         H           -0.747166353368    -0.000000000000     0.539360740006     1.007825032230

  Running in c2v symmetry.

  Rotational constants: A =     25.53156  B =     14.98121  C =      9.44131 [cm^-1]
  Rotational constants: A = 765416.81232  B = 449125.22710  C = 283043.31057 [MHz]
  Nuclear repulsion =    9.147508349681694

  Charge       = 0
  Multiplicity = 1
  Electrons    = 10
  Nalpha       = 5
  Nbeta        = 5

  ==> Algorithm <==

  SCF Algorithm Type is DF.
  DIIS enabled.
  MOM disabled.
  Fractional occupation disabled.
  Guess Type is SAD.
  Energy threshold   = 1.00e-08
  Density threshold  = 1.00e-08
  Integral threshold = 0.00e+00

  ==> Primary Basis <==

  Basis Set: 6-31++G**
    Blend: 6-31++G**
    Number of shells: 16
    Number of basis function: 31
    Number of Cartesian functions: 31
    Spherical Harmonics?: false
    Max angular momentum: 2

  ==> DFT Potential <==

   => Composite Functional: B3LYP <= 

    B3LYP Hyb-GGA Exchange-Correlation Functional

    P. J. Stephens, F. J. Devlin, C. F. Chabalowski, and M. J. Frisch, J. Phys. Chem. 98, 11623 (1994)

    Deriv               =              1
    GGA                 =           TRUE
    Meta                =          FALSE

    Exchange Hybrid     =           TRUE
    MP2 Hybrid          =          FALSE

   => Exchange Functionals <=

    0.0800   Slater exchange
    0.7200         Becke 88

   => Exact (HF) Exchange <=

    0.2000               HF 

   => Correlation Functionals <=

    0.1900   Vosko, Wilk & Nusair (VWN5_RPA)
    0.8100   Lee, Yang & Parr

   => Molecular Quadrature <=

    Radial Scheme          =       TREUTLER
    Pruning Scheme         =           FLAT
    Nuclear Scheme         =       TREUTLER

    BS radius alpha        =              1
    Pruning alpha          =              1
    Radial Points          =             75
    Spherical Points       =            302
    Total Points           =          67950
    Total Blocks           =            572
    Max Points             =            256
    Max Functions          =             31

   => Loading Basis Set <=

    Name: (6-31++G** AUX)
    Role: JKFIT
    Keyword: DF_BASIS_SCF
    atoms 1   entry O          line   270 file /home/akrom/software/anaconda3/envs/ffpenv/share/psi4/basis/aug-cc-pvdz-jkfit.gbs 
    atoms 2-3 entry H          line    70 file /home/akrom/software/anaconda3/envs/ffpenv/share/psi4/basis/aug-cc-pvdz-jkfit.gbs 

  ==> Pre-Iterations <==

   -------------------------------------------------------
    Irrep   Nso     Nmo     Nalpha   Nbeta   Ndocc  Nsocc
   -------------------------------------------------------
     A1        15      15       0       0       0       0
     A2         2       2       0       0       0       0
     B1         9       9       0       0       0       0
     B2         5       5       0       0       0       0
   -------------------------------------------------------
    Total      31      31       5       5       5       0
   -------------------------------------------------------

  ==> Integral Setup <==

  DFHelper Memory: AOs need 0.002 GiB; user supplied 0.308 GiB. Using in-core AOs.

  ==> MemDFJK: Density-Fitted J/K Matrices <==

    J tasked:                   Yes
    K tasked:                   Yes
    wK tasked:                   No
    OpenMP threads:               1
    Memory [MiB]:               315
    Algorithm:                 Core
    Schwarz Cutoff:           1E-12
    Mask sparsity (%):       0.0000
    Fitting Condition:        1E-10

   => Auxiliary Basis Set <=

  Basis Set: (6-31++G** AUX)
    Blend: AUG-CC-PVDZ-JKFIT
    Number of shells: 52
    Number of basis function: 171
    Number of Cartesian functions: 171
    Spherical Harmonics?: false
    Max angular momentum: 3

  Cached 100.0% of DFT collocation blocks in 0.058 [GiB].

  Minimum eigenvalue in the overlap matrix is 1.2564868594E-02.
  Using Symmetric Orthogonalization.

  SCF Guess: Superposition of Atomic Densities via on-the-fly atomic UHF.

  ==> Iterations <==

                           Total Energy        Delta E     RMS |[F,P]|

   @DF-RKS iter SAD:   -76.05116403523689   -7.60512e+01   0.00000e+00 
   @DF-RKS iter   1:   -76.24732802870386   -1.96164e-01   3.85013e-02 DIIS
   @DF-RKS iter   2:   -75.82438804114686    4.22940e-01   6.70468e-02 DIIS
   @DF-RKS iter   3:   -76.43304323442180   -6.08655e-01   2.02896e-03 DIIS
   @DF-RKS iter   4:   -76.43371997712875   -6.76743e-04   2.08444e-04 DIIS
   @DF-RKS iter   5:   -76.43372501013481   -5.03301e-06   3.22687e-05 DIIS
   @DF-RKS iter   6:   -76.43372513785887   -1.27724e-07   3.86905e-06 DIIS
   @DF-RKS iter   7:   -76.43372513979351   -1.93464e-09   1.05472e-07 DIIS
   @DF-RKS iter   8:   -76.43372513979557   -2.06057e-12   1.65752e-08 DIIS
   @DF-RKS iter   9:   -76.43372513979558   -1.42109e-14   9.52603e-10 DIIS
  Energy and wave function converged.


  ==> Post-Iterations <==

    Orbital Energies [Eh]
    ---------------------

    Doubly Occupied:                                                      

       1A1   -19.170857     2A1    -1.026345     1B1    -0.536024  
       3A1    -0.401880     1B2    -0.322062  

    Virtual:                                                              

       4A1    -0.024755     2B1     0.028317     5A1     0.144318  
       2B2     0.154921     6A1     0.169380     3B1     0.196582  
       4B1     0.224111     7A1     0.280388     5B1     0.900151  
       8A1     0.998425     3B2     1.112007     9A1     1.139413  
       6B1     1.163682    10A1     1.368281     1A2     1.511844  
      11A1     1.522338     4B2     1.618004    12A1     2.245046  
       7B1     2.264571     8B1     2.513101     2A2     2.612357  
       5B2     2.674948    13A1     3.014649    14A1     3.350284  
       9B1     3.576225    15A1     4.012758  

    Final Occupation by Irrep:
             A1    A2    B1    B2 
    DOCC [     3,    0,    1,    1 ]

  @DF-RKS Final Energy:   -76.43372513979558

   => Energetics <=

    Nuclear Repulsion Energy =              9.1475083496816936
    One-Electron Energy =                -122.8389344512158345
    Two-Electron Energy =                  44.7908736062612576
    DFT Exchange-Correlation Energy =      -7.5331726445226961
    Empirical Dispersion Energy =           0.0000000000000000
    VV10 Nonlocal Energy =                  0.0000000000000000
    Total Energy =                        -76.4337251397955839

Computation Completed


Properties will be evaluated at   0.000000,   0.000000,   0.000000 [a0]

Properties computed using the SCF density matrix

  Nuclear Dipole Moment: [e a0]
     X:     0.0000      Y:     0.0000      Z:     1.0109

  Electronic Dipole Moment: [e a0]
     X:     0.0000      Y:     0.0000      Z:    -0.1270

  Dipole Moment: [e a0]
     X:     0.0000      Y:     0.0000      Z:     0.8839     Total:     0.8839

  Dipole Moment: [D]
     X:     0.0000      Y:     0.0000      Z:     2.2467     Total:     2.2467


*** tstop() called on atlantis at Tue Apr 19 00:14:01 2022
Module time:
	user time   =       1.16 seconds =       0.02 minutes
	system time =       0.03 seconds =       0.00 minutes
	total time  =          1 seconds =       0.02 minutes
Total time:
	user time   =       8.04 seconds =       0.13 minutes
	system time =       0.13 seconds =       0.00 minutes
	total time  =          8 seconds =       0.13 minutes

*** tstart() called on atlantis
*** at Tue Apr 19 00:14:01 2022


         ------------------------------------------------------------
                                   SCF GRAD                          
                          Rob Parrish, Justin Turney,                
                       Andy Simmonett, and Alex Sokolov              
         ------------------------------------------------------------

  ==> Geometry <==

    Molecular point group: c2v
    Full point group: C2v

    Geometry (in Angstrom), charge = 0, multiplicity = 1:

       Center              X                  Y                   Z               Mass       
    ------------   -----------------  -----------------  -----------------  -----------------
         O            0.000000000000     0.000000000000    -0.067969259994    15.994914619570
         H            0.747166353368     0.000000000000     0.539360740006     1.007825032230
         H           -0.747166353368    -0.000000000000     0.539360740006     1.007825032230

  Nuclear repulsion =    9.147508349681694

  ==> Basis Set <==

  Basis Set: 6-31++G**
    Blend: 6-31++G**
    Number of shells: 16
    Number of basis function: 31
    Number of Cartesian functions: 31
    Spherical Harmonics?: false
    Max angular momentum: 2

  ==> DFJKGrad: Density-Fitted SCF Gradients <==

    Gradient:                    1
    J tasked:                  Yes
    K tasked:                  Yes
    wK tasked:                  No
    OpenMP threads:              1
    Integrals threads:           1
    Memory [MiB]:              375
    Schwarz Cutoff:          0E+00
    Fitting Condition:       1E-10

   => Auxiliary Basis Set <=

  Basis Set: (6-31++G** AUX)
    Blend: AUG-CC-PVDZ-JKFIT
    Number of shells: 52
    Number of basis function: 171
    Number of Cartesian functions: 171
    Spherical Harmonics?: false
    Max angular momentum: 3

  ==> DFT Potential <==

   => Composite Functional: B3LYP <= 

    B3LYP Hyb-GGA Exchange-Correlation Functional

    P. J. Stephens, F. J. Devlin, C. F. Chabalowski, and M. J. Frisch, J. Phys. Chem. 98, 11623 (1994)

    Deriv               =              1
    GGA                 =           TRUE
    Meta                =          FALSE

    Exchange Hybrid     =           TRUE
    MP2 Hybrid          =          FALSE

   => Exchange Functionals <=

    0.0800   Slater exchange
    0.7200         Becke 88

   => Exact (HF) Exchange <=

    0.2000               HF 

   => Correlation Functionals <=

    0.1900   Vosko, Wilk & Nusair (VWN5_RPA)
    0.8100   Lee, Yang & Parr

   => Molecular Quadrature <=

    Radial Scheme          =       TREUTLER
    Pruning Scheme         =           FLAT
    Nuclear Scheme         =       TREUTLER

    BS radius alpha        =              1
    Pruning alpha          =              1
    Radial Points          =             75
    Spherical Points       =            302
    Total Points           =          67950
    Total Blocks           =            572
    Max Points             =            256
    Max Functions          =             31


  -Total Gradient:
     Atom            X                  Y                   Z
    ------   -----------------  -----------------  -----------------
       1        0.000000000000     0.000000000000    -0.003815732462
       2       -0.007415548240    -0.000000000000     0.001899916386
       3        0.007415548240     0.000000000000     0.001899916386


*** tstop() called on atlantis at Tue Apr 19 00:14:01 2022
Module time:
	user time   =       0.22 seconds =       0.00 minutes
	system time =       0.00 seconds =       0.00 minutes
	total time  =          0 seconds =       0.00 minutes
Total time:
	user time   =       8.26 seconds =       0.14 minutes
	system time =       0.13 seconds =       0.00 minutes
	total time  =          8 seconds =       0.13 minutes

  //>>>>>>>>>>>>>>>>>>>>>>>>>>>>>>>>>>>//
  //    Loading displacement 5 of 6    //
  //<<<<<<<<<<<<<<<<<<<<<<<<<<<<<<<<<<<//
gradient() will perform analytic gradient computation.

*** tstart() called on atlantis
*** at Tue Apr 19 00:14:01 2022

   => Loading Basis Set <=

    Name: 6-31++G**
    Role: ORBITAL
    Keyword: BASIS
    atoms 1   entry O          line   153 file /home/akrom/software/anaconda3/envs/ffpenv/share/psi4/basis/6-31ppgss.gbs 
    atoms 2-3 entry H          line    46 file /home/akrom/software/anaconda3/envs/ffpenv/share/psi4/basis/6-31ppgss.gbs 


         ---------------------------------------------------------
                                   SCF
               by Justin Turney, Rob Parrish, Andy Simmonett
                          and Daniel G. A. Smith
                              RKS Reference
                        1 Threads,    500 MiB Core
         ---------------------------------------------------------

  ==> Geometry <==

    Molecular point group: c2v
    Full point group: C2v

    Geometry (in Angstrom), charge = 0, multiplicity = 1:

       Center              X                  Y                   Z               Mass       
    ------------   -----------------  -----------------  -----------------  -----------------
         O            0.000000000000     0.000000000000    -0.067969259994    15.994914619570
         H            0.750893646632     0.000000000000     0.539360740006     1.007825032230
         H           -0.750893646632    -0.000000000000     0.539360740006     1.007825032230

  Running in c2v symmetry.

  Rotational constants: A =     25.53156  B =     14.83285  C =      9.38217 [cm^-1]
  Rotational constants: A = 765416.81232  B = 444677.54885  C = 281270.35616 [MHz]
  Nuclear repulsion =    9.119389510013045

  Charge       = 0
  Multiplicity = 1
  Electrons    = 10
  Nalpha       = 5
  Nbeta        = 5

  ==> Algorithm <==

  SCF Algorithm Type is DF.
  DIIS enabled.
  MOM disabled.
  Fractional occupation disabled.
  Guess Type is SAD.
  Energy threshold   = 1.00e-08
  Density threshold  = 1.00e-08
  Integral threshold = 0.00e+00

  ==> Primary Basis <==

  Basis Set: 6-31++G**
    Blend: 6-31++G**
    Number of shells: 16
    Number of basis function: 31
    Number of Cartesian functions: 31
    Spherical Harmonics?: false
    Max angular momentum: 2

  ==> DFT Potential <==

   => Composite Functional: B3LYP <= 

    B3LYP Hyb-GGA Exchange-Correlation Functional

    P. J. Stephens, F. J. Devlin, C. F. Chabalowski, and M. J. Frisch, J. Phys. Chem. 98, 11623 (1994)

    Deriv               =              1
    GGA                 =           TRUE
    Meta                =          FALSE

    Exchange Hybrid     =           TRUE
    MP2 Hybrid          =          FALSE

   => Exchange Functionals <=

    0.0800   Slater exchange
    0.7200         Becke 88

   => Exact (HF) Exchange <=

    0.2000               HF 

   => Correlation Functionals <=

    0.1900   Vosko, Wilk & Nusair (VWN5_RPA)
    0.8100   Lee, Yang & Parr

   => Molecular Quadrature <=

    Radial Scheme          =       TREUTLER
    Pruning Scheme         =           FLAT
    Nuclear Scheme         =       TREUTLER

    BS radius alpha        =              1
    Pruning alpha          =              1
    Radial Points          =             75
    Spherical Points       =            302
    Total Points           =          67950
    Total Blocks           =            576
    Max Points             =            255
    Max Functions          =             31

   => Loading Basis Set <=

    Name: (6-31++G** AUX)
    Role: JKFIT
    Keyword: DF_BASIS_SCF
    atoms 1   entry O          line   270 file /home/akrom/software/anaconda3/envs/ffpenv/share/psi4/basis/aug-cc-pvdz-jkfit.gbs 
    atoms 2-3 entry H          line    70 file /home/akrom/software/anaconda3/envs/ffpenv/share/psi4/basis/aug-cc-pvdz-jkfit.gbs 

  ==> Pre-Iterations <==

   -------------------------------------------------------
    Irrep   Nso     Nmo     Nalpha   Nbeta   Ndocc  Nsocc
   -------------------------------------------------------
     A1        15      15       0       0       0       0
     A2         2       2       0       0       0       0
     B1         9       9       0       0       0       0
     B2         5       5       0       0       0       0
   -------------------------------------------------------
    Total      31      31       5       5       5       0
   -------------------------------------------------------

  ==> Integral Setup <==

  DFHelper Memory: AOs need 0.002 GiB; user supplied 0.308 GiB. Using in-core AOs.

  ==> MemDFJK: Density-Fitted J/K Matrices <==

    J tasked:                   Yes
    K tasked:                   Yes
    wK tasked:                   No
    OpenMP threads:               1
    Memory [MiB]:               315
[...]
    Role: ORBITAL
    Keyword: BASIS
    atoms 1   entry O          line   153 file /home/akrom/software/anaconda3/envs/ffpenv/share/psi4/basis/6-31ppgss.gbs 
    atoms 2-3 entry H          line    46 file /home/akrom/software/anaconda3/envs/ffpenv/share/psi4/basis/6-31ppgss.gbs 


         ---------------------------------------------------------
                                   SCF
               by Justin Turney, Rob Parrish, Andy Simmonett
                          and Daniel G. A. Smith
                              RKS Reference
                        1 Threads,    500 MiB Core
         ---------------------------------------------------------

  ==> Geometry <==

    Molecular point group: cs
    Full point group: Cs

    Geometry (in Angstrom), charge = 0, multiplicity = 1:

       Center              X                  Y                   Z               Mass       
    ------------   -----------------  -----------------  -----------------  -----------------
         O           -0.000175859669     0.000000000000    -0.067969259994    15.994914619570
         H            0.750425510279     0.000000000000     0.540492250436     1.007825032230
         H           -0.747634489721     0.000000000000     0.538229229576     1.007825032230

  Running in cs symmetry.

  Rotational constants: A =     25.53242  B =     14.90636  C =      9.41165 [cm^-1]
  Rotational constants: A = 765442.57583  B = 446881.53998  C = 282154.04824 [MHz]
  Nuclear repulsion =    9.133468287774228

  Charge       = 0
  Multiplicity = 1
  Electrons    = 10
  Nalpha       = 5
  Nbeta        = 5

  ==> Algorithm <==

  SCF Algorithm Type is DF.
  DIIS enabled.
  MOM disabled.
  Fractional occupation disabled.
  Guess Type is SAD.
  Energy threshold   = 1.00e-08
  Density threshold  = 1.00e-08
  Integral threshold = 0.00e+00

  ==> Primary Basis <==

  Basis Set: 6-31++G**
    Blend: 6-31++G**
    Number of shells: 16
    Number of basis function: 31
    Number of Cartesian functions: 31
    Spherical Harmonics?: false
    Max angular momentum: 2

  ==> DFT Potential <==

   => Composite Functional: B3LYP <= 

    B3LYP Hyb-GGA Exchange-Correlation Functional

    P. J. Stephens, F. J. Devlin, C. F. Chabalowski, and M. J. Frisch, J. Phys. Chem. 98, 11623 (1994)

    Deriv               =              1
    GGA                 =           TRUE
    Meta                =          FALSE

    Exchange Hybrid     =           TRUE
    MP2 Hybrid          =          FALSE

   => Exchange Functionals <=

    0.0800   Slater exchange
    0.7200         Becke 88

   => Exact (HF) Exchange <=

    0.2000               HF 

   => Correlation Functionals <=

    0.1900   Vosko, Wilk & Nusair (VWN5_RPA)
    0.8100   Lee, Yang & Parr

   => Molecular Quadrature <=

    Radial Scheme          =       TREUTLER
    Pruning Scheme         =           FLAT
    Nuclear Scheme         =       TREUTLER

    BS radius alpha        =              1
    Pruning alpha          =              1
    Radial Points          =             75
    Spherical Points       =            302
    Total Points           =          67950
    Total Blocks           =            574
    Max Points             =            255
    Max Functions          =             31

   => Loading Basis Set <=

    Name: (6-31++G** AUX)
    Role: JKFIT
    Keyword: DF_BASIS_SCF
    atoms 1   entry O          line   270 file /home/akrom/software/anaconda3/envs/ffpenv/share/psi4/basis/aug-cc-pvdz-jkfit.gbs 
    atoms 2-3 entry H          line    70 file /home/akrom/software/anaconda3/envs/ffpenv/share/psi4/basis/aug-cc-pvdz-jkfit.gbs 

  ==> Pre-Iterations <==

   -------------------------------------------------------
    Irrep   Nso     Nmo     Nalpha   Nbeta   Ndocc  Nsocc
   -------------------------------------------------------
     A'        24      24       0       0       0       0
     A"         7       7       0       0       0       0
   -------------------------------------------------------
    Total      31      31       5       5       5       0
   -------------------------------------------------------

  ==> Integral Setup <==

  DFHelper Memory: AOs need 0.002 GiB; user supplied 0.308 GiB. Using in-core AOs.

  ==> MemDFJK: Density-Fitted J/K Matrices <==

    J tasked:                   Yes
    K tasked:                   Yes
    wK tasked:                   No
    OpenMP threads:               1
    Memory [MiB]:               315
    Algorithm:                 Core
    Schwarz Cutoff:           1E-12
    Mask sparsity (%):       0.0000
    Fitting Condition:        1E-10

   => Auxiliary Basis Set <=

  Basis Set: (6-31++G** AUX)
    Blend: AUG-CC-PVDZ-JKFIT
    Number of shells: 52
    Number of basis function: 171
    Number of Cartesian functions: 171
    Spherical Harmonics?: false
    Max angular momentum: 3

  Cached 100.0% of DFT collocation blocks in 0.058 [GiB].

  Minimum eigenvalue in the overlap matrix is 1.2582517724E-02.
  Using Symmetric Orthogonalization.

  SCF Guess: Superposition of Atomic Densities via on-the-fly atomic UHF.

  ==> Iterations <==

                           Total Energy        Delta E     RMS |[F,P]|

   @DF-RKS iter SAD:   -76.05026668221196   -7.60503e+01   0.00000e+00 
   @DF-RKS iter   1:   -76.24744526429846   -1.97179e-01   2.81722e-02 DIIS
   @DF-RKS iter   2:   -75.82277478297522    4.24670e-01   4.91335e-02 DIIS
   @DF-RKS iter   3:   -76.43308150429918   -6.10307e-01   1.48660e-03 DIIS
   @DF-RKS iter   4:   -76.43375989497588   -6.78391e-04   1.53179e-04 DIIS
   @DF-RKS iter   5:   -76.43376496860647   -5.07363e-06   2.38598e-05 DIIS
   @DF-RKS iter   6:   -76.43376509899508   -1.30389e-07   2.84837e-06 DIIS
   @DF-RKS iter   7:   -76.43376510095258   -1.95750e-09   7.82786e-08 DIIS
   @DF-RKS iter   8:   -76.43376510095472   -2.13163e-12   1.22549e-08 DIIS
   @DF-RKS iter   9:   -76.43376510095462    9.94760e-14   8.39773e-10 DIIS
  Energy and wave function converged.


  ==> Post-Iterations <==

    Orbital Energies [Eh]
    ---------------------

    Doubly Occupied:                                                      

       1Ap   -19.171022     2Ap    -1.025599     3Ap    -0.535745  
       4Ap    -0.401504     1App   -0.321923  

    Virtual:                                                              

       5Ap    -0.024868     6Ap     0.028207     7Ap     0.144321  
       2App    0.154928     8Ap     0.169073     9Ap     0.196077  
      10Ap     0.224102    11Ap     0.279760    12Ap     0.899638  
      13Ap     0.997050     3App    1.112011    14Ap     1.139013  
      15Ap     1.164194    16Ap     1.368446     4App    1.511410  
      17Ap     1.523338     5App    1.618426    18Ap     2.243044  
      19Ap     2.262500    20Ap     2.509343     6App    2.611431  
       7App    2.672358    21Ap     3.012532    22Ap     3.347475  
      23Ap     3.574031    24Ap     4.012134  

    Final Occupation by Irrep:
             Ap   App 
    DOCC [     4,    1 ]

  @DF-RKS Final Energy:   -76.43376510095462

   => Energetics <=

    Nuclear Repulsion Energy =              9.1334682877742281
    One-Electron Energy =                -122.8144510785275259
    Two-Electron Energy =                  44.7792722890674710
    DFT Exchange-Correlation Energy =      -7.5320545992687959
    Empirical Dispersion Energy =           0.0000000000000000
    VV10 Nonlocal Energy =                  0.0000000000000000
    Total Energy =                        -76.4337651009546022

Computation Completed


Properties will be evaluated at   0.000000,   0.000000,   0.000000 [a0]

Properties computed using the SCF density matrix

  Nuclear Dipole Moment: [e a0]
     X:     0.0026      Y:     0.0000      Z:     1.0109

  Electronic Dipole Moment: [e a0]
     X:    -0.0016      Y:     0.0000      Z:    -0.1275

  Dipole Moment: [e a0]
     X:     0.0010      Y:     0.0000      Z:     0.8834     Total:     0.8834

  Dipole Moment: [D]
     X:     0.0026      Y:     0.0000      Z:     2.2454     Total:     2.2454


*** tstop() called on atlantis at Tue Apr 19 00:14:04 2022
Module time:
	user time   =       1.16 seconds =       0.02 minutes
	system time =       0.02 seconds =       0.00 minutes
	total time  =          1 seconds =       0.02 minutes
Total time:
	user time   =      10.85 seconds =       0.18 minutes
	system time =       0.15 seconds =       0.00 minutes
	total time  =         11 seconds =       0.18 minutes

*** tstart() called on atlantis
*** at Tue Apr 19 00:14:04 2022


         ------------------------------------------------------------
                                   SCF GRAD                          
                          Rob Parrish, Justin Turney,                
                       Andy Simmonett, and Alex Sokolov              
         ------------------------------------------------------------

  ==> Geometry <==

    Molecular point group: cs
    Full point group: Cs

    Geometry (in Angstrom), charge = 0, multiplicity = 1:

       Center              X                  Y                   Z               Mass       
    ------------   -----------------  -----------------  -----------------  -----------------
         O           -0.000175859669     0.000000000000    -0.067969259994    15.994914619570
         H            0.750425510279     0.000000000000     0.540492250436     1.007825032230
         H           -0.747634489721     0.000000000000     0.538229229576     1.007825032230

  Nuclear repulsion =    9.133468287774228

  ==> Basis Set <==

  Basis Set: 6-31++G**
    Blend: 6-31++G**
    Number of shells: 16
    Number of basis function: 31
    Number of Cartesian functions: 31
    Spherical Harmonics?: false
    Max angular momentum: 2

  ==> DFJKGrad: Density-Fitted SCF Gradients <==

    Gradient:                    1
    J tasked:                  Yes
    K tasked:                  Yes
    wK tasked:                  No
    OpenMP threads:              1
    Integrals threads:           1
    Memory [MiB]:              375
    Schwarz Cutoff:          0E+00
    Fitting Condition:       1E-10

   => Auxiliary Basis Set <=

  Basis Set: (6-31++G** AUX)
    Blend: AUG-CC-PVDZ-JKFIT
    Number of shells: 52
    Number of basis function: 171
    Number of Cartesian functions: 171
    Spherical Harmonics?: false
    Max angular momentum: 3

  ==> DFT Potential <==

   => Composite Functional: B3LYP <= 

    B3LYP Hyb-GGA Exchange-Correlation Functional

    P. J. Stephens, F. J. Devlin, C. F. Chabalowski, and M. J. Frisch, J. Phys. Chem. 98, 11623 (1994)

    Deriv               =              1
    GGA                 =           TRUE
    Meta                =          FALSE

    Exchange Hybrid     =           TRUE
    MP2 Hybrid          =          FALSE

   => Exchange Functionals <=

    0.0800   Slater exchange
    0.7200         Becke 88

   => Exact (HF) Exchange <=

    0.2000               HF 

   => Correlation Functionals <=

    0.1900   Vosko, Wilk & Nusair (VWN5_RPA)
    0.8100   Lee, Yang & Parr

   => Molecular Quadrature <=

    Radial Scheme          =       TREUTLER
    Pruning Scheme         =           FLAT
    Nuclear Scheme         =       TREUTLER

    BS radius alpha        =              1
    Pruning alpha          =              1
    Radial Points          =             75
    Spherical Points       =            302
    Total Points           =          67950
    Total Blocks           =            574
    Max Points             =            255
    Max Functions          =             31


  -Total Gradient:
     Atom            X                  Y                   Z
    ------   -----------------  -----------------  -----------------
       1       -0.003118598540     0.000000000000    -0.005267793996
       2       -0.004453784039     0.000000000000     0.003874588742
       3        0.007570107318     0.000000000000     0.001376946343


*** tstop() called on atlantis at Tue Apr 19 00:14:04 2022
Module time:
	user time   =       0.22 seconds =       0.00 minutes
	system time =       0.00 seconds =       0.00 minutes
	total time  =          0 seconds =       0.00 minutes
Total time:
	user time   =      11.07 seconds =       0.18 minutes
	system time =       0.15 seconds =       0.00 minutes
	total time  =         11 seconds =       0.18 minutes

         ----------------------------------------------------------
                                   FINDIF
                     R. A. King and Jonathon Misiewicz
         ---------------------------------------------------------

  Computing second-derivative from gradients using projected, 
  symmetry-adapted, cartesian coordinates.

  6 gradients passed in, including the reference geometry.
  Generating complete list of displacements from unique ones.

    Operation 2 takes plus displacements of irrep B1 to minus ones.

-------------------------------------------------------------


  ==> Harmonic Vibrational Analysis <==

  non-mass-weighted Hessian:       Symmetric? True   Hermitian? True   Lin Dep Dim?  6 (0)
  projection of translations (True) and rotations (True) removed 6 degrees of freedom (6)
  total projector:                 Symmetric? True   Hermitian? True   Lin Dep Dim?  6 (6)
  mass-weighted Hessian:           Symmetric? True   Hermitian? True   Lin Dep Dim?  6 (0)
  pre-proj  low-frequency mode:    0.0000i [cm^-1]
  pre-proj  low-frequency mode:    0.0000i [cm^-1]
  pre-proj  low-frequency mode:    0.0000i [cm^-1]
  pre-proj  low-frequency mode:    0.0000  [cm^-1]
  pre-proj  low-frequency mode:    0.0000  [cm^-1]
  pre-proj  low-frequency mode:    0.0000  [cm^-1]
  pre-proj  all modes:['0.0000i' '0.0000i' '0.0000i' '0.0000' '0.0000' '0.0000' '1632.2171'
 '3837.7952' '3927.6983']
  projected mass-weighted Hessian: Symmetric? True   Hermitian? True   Lin Dep Dim?  6 (6)
  post-proj low-frequency mode:    0.0001i [cm^-1] (TR)
  post-proj low-frequency mode:    0.0000i [cm^-1] (TR)
  post-proj low-frequency mode:    0.0000i [cm^-1] (TR)
  post-proj low-frequency mode:    0.0000  [cm^-1] (TR)
  post-proj low-frequency mode:    0.0000  [cm^-1] (TR)
  post-proj low-frequency mode:    0.0000  [cm^-1] (TR)
  post-proj  all modes:['0.0001i' '0.0000i' '0.0000i' '0.0000' '0.0000' '0.0000' '1632.2171'
 '3837.7952' '3927.6983']

  Vibration                       7                   8                   9           
  Freq [cm^-1]                1632.2171           3837.7952           3927.6983       
  Irrep                           A1                  A1                  B1          
  Reduced mass [u]              1.0813              1.0465              1.0793        
  Force const [mDyne/A]         1.6973              9.0810              9.8098        
  Turning point v=0 [a0]        0.2612              0.1731              0.1685        
  RMS dev v=0 [a0 u^1/2]        0.1920              0.1252              0.1238        
  Char temp [K]               2348.3970           5521.7328           5651.0834       
  ----------------------------------------------------------------------------------
      1   O               -0.00 -0.00 -0.07   -0.00 -0.00 -0.05   -0.07 -0.00 -0.00   
      2   H               -0.43  0.00  0.56    0.58  0.00  0.40    0.55  0.00  0.44   
      3   H                0.43 -0.00  0.56   -0.58 -0.00  0.40    0.55 -0.00 -0.44   

  ==> Thermochemistry Components <==

  Entropy, S
    Electronic S            0.000 [cal/(mol K)]        0.000 [J/(mol K)]       0.00000000 [mEh/K] (multiplicity = 1)
    Translational S        34.608 [cal/(mol K)]      144.801 [J/(mol K)]       0.05515177 [mEh/K] (mol. weight = 18.0106 [u], P = 101325.00 [Pa])
    Rotational S           10.508 [cal/(mol K)]       43.968 [J/(mol K)]       0.01674635 [mEh/K] (symmetry no. = 2)
    Vibrational S           0.007 [cal/(mol K)]        0.028 [J/(mol K)]       0.00001067 [mEh/K]
  Total S                  45.123 [cal/(mol K)]      188.797 [J/(mol K)]       0.07190880 [mEh/K]
  Correction S              0.000 [cal/(mol K)]        0.000 [J/(mol K)]       0.00000000 [mEh/K]

  Constant volume heat capacity, Cv
    Electronic Cv           0.000 [cal/(mol K)]        0.000 [J/(mol K)]       0.00000000 [mEh/K]
    Translational Cv        2.981 [cal/(mol K)]       12.472 [J/(mol K)]       0.00475022 [mEh/K]
    Rotational Cv           2.981 [cal/(mol K)]       12.472 [J/(mol K)]       0.00475022 [mEh/K]
    Vibrational Cv          0.047 [cal/(mol K)]        0.196 [J/(mol K)]       0.00007464 [mEh/K]
  Total Cv                  6.008 [cal/(mol K)]       25.139 [J/(mol K)]       0.00957507 [mEh/K]
  Correction Cv             0.000 [cal/(mol K)]        0.000 [J/(mol K)]       0.00000000 [mEh/K]

  Constant pressure heat capacity, Cp
    Electronic Cp           0.000 [cal/(mol K)]        0.000 [J/(mol K)]       0.00000000 [mEh/K]
    Translational Cp        4.968 [cal/(mol K)]       20.786 [J/(mol K)]       0.00791703 [mEh/K]
    Rotational Cp           2.981 [cal/(mol K)]       12.472 [J/(mol K)]       0.00475022 [mEh/K]
    Vibrational Cp          0.047 [cal/(mol K)]        0.196 [J/(mol K)]       0.00007464 [mEh/K]
  Total Cp                  7.996 [cal/(mol K)]       33.454 [J/(mol K)]       0.01274188 [mEh/K]
  Correction Cp             0.000 [cal/(mol K)]        0.000 [J/(mol K)]       0.00000000 [mEh/K]

  ==> Thermochemistry Energy Analysis <==

  Raw electronic energy, E0
  Total E0, Electronic energy at well bottom at 0 [K]                  -76.43377240 [Eh]

  Zero-point energy, ZPE_vib = Sum_i nu_i / 2
    Electronic ZPE          0.000 [kcal/mol]        0.000 [kJ/mol]       0.00000000 [Eh]
    Translational ZPE       0.000 [kcal/mol]        0.000 [kJ/mol]       0.00000000 [Eh]
    Rotational ZPE          0.000 [kcal/mol]        0.000 [kJ/mol]       0.00000000 [Eh]
    Vibrational ZPE        13.435 [kcal/mol]       56.211 [kJ/mol]       0.02140956 [Eh]        4698.855 [cm^-1]
  Correction ZPE           13.435 [kcal/mol]       56.211 [kJ/mol]       0.02140956 [Eh]        4698.855 [cm^-1]
  Total ZPE, Electronic energy at 0 [K]                                -76.41236284 [Eh]

  Thermal Energy, E (includes ZPE)
    Electronic E            0.000 [kcal/mol]        0.000 [kJ/mol]       0.00000000 [Eh]
    Translational E         0.889 [kcal/mol]        3.718 [kJ/mol]       0.00141628 [Eh]
    Rotational E            0.889 [kcal/mol]        3.718 [kJ/mol]       0.00141628 [Eh]
    Vibrational E          13.436 [kcal/mol]       56.218 [kJ/mol]       0.02141238 [Eh]
  Correction E             15.214 [kcal/mol]       63.655 [kJ/mol]       0.02424494 [Eh]
  Total E, Electronic energy at  298.15 [K]                            -76.40952746 [Eh]

  Enthalpy, H_trans = E_trans + k_B * T
    Electronic H            0.000 [kcal/mol]        0.000 [kJ/mol]       0.00000000 [Eh]
    Translational H         1.481 [kcal/mol]        6.197 [kJ/mol]       0.00236046 [Eh]
    Rotational H            0.889 [kcal/mol]        3.718 [kJ/mol]       0.00141628 [Eh]
    Vibrational H          13.436 [kcal/mol]       56.218 [kJ/mol]       0.02141238 [Eh]
  Correction H             15.806 [kcal/mol]       66.134 [kJ/mol]       0.02518912 [Eh]
  Total H, Enthalpy at  298.15 [K]                                     -76.40858328 [Eh]

  Gibbs free energy, G = H - T * S
    Electronic G            0.000 [kcal/mol]        0.000 [kJ/mol]       0.00000000 [Eh]
    Translational G        -8.837 [kcal/mol]      -36.975 [kJ/mol]      -0.01408304 [Eh]
    Rotational G           -2.244 [kcal/mol]       -9.390 [kJ/mol]      -0.00357665 [Eh]
    Vibrational G          13.434 [kcal/mol]       56.210 [kJ/mol]       0.02140920 [Eh]
  Correction G              2.353 [kcal/mol]        9.844 [kJ/mol]       0.00374951 [Eh]
  Total G, Free enthalpy at  298.15 [K]                                -76.43002288 [Eh]

    Psi4 stopped on: Tuesday, 19 April 2022 12:14AM
    Psi4 wall time for execution: 0:00:11.32

*** Psi4 exiting successfully. Buy a developer a beer!
