
    -----------------------------------------------------------------------
          Psi4: An Open-Source Ab Initio Electronic Structure Package
                               Psi4 1.3.2 release

                         Git: Rev {HEAD} ecbda83 


    R. M. Parrish, L. A. Burns, D. G. A. Smith, A. C. Simmonett,
    A. E. DePrince III, E. G. Hohenstein, U. Bozkaya, A. Yu. Sokolov,
    R. Di Remigio, R. M. Richard, J. F. Gonthier, A. M. James,
    H. R. McAlexander, A. Kumar, M. Saitow, X. Wang, B. P. Pritchard,
    P. Verma, H. F. Schaefer III, K. Patkowski, R. A. King, E. F. Valeev,
    F. A. Evangelista, J. M. Turney, T. D. Crawford, and C. D. Sherrill,
    J. Chem. Theory Comput. 13(7) pp 3185--3197 (2017).
    (doi: 10.1021/acs.jctc.7b00174)


                         Additional Contributions by
    P. Kraus, H. Kruse, M. H. Lechner, M. C. Schieber, R. A. Shaw,
    A. Alenaizan, R. Galvelis, Z. L. Glick, S. Lehtola, and J. P. Misiewicz

    -----------------------------------------------------------------------


    Psi4 started on: Tuesday, 19 April 2022 12:10AM

    Process ID: 25154
    Host:       atlantis
    PSIDATADIR: /home/akrom/software/anaconda3/envs/ffpenv/share/psi4
    Memory:     500.0 MiB
    Threads:    1
    
  ==> Input File <==

--------------------------------------------------------------------------
set basis  cc-pVTZ
molecule {
0 1
   O        0.00000        0.00000       -0.06797
   H        0.74903        0.00000        0.53936
   H       -0.74903        0.00000        0.53936
}
energy('scf')
frequencies('scf')


--------------------------------------------------------------------------

*** tstart() called on atlantis
*** at Tue Apr 19 00:10:17 2022

   => Loading Basis Set <=

    Name: CC-PVTZ
    Role: ORBITAL
    Keyword: BASIS
    atoms 1   entry O          line   262 file /home/akrom/software/anaconda3/envs/ffpenv/share/psi4/basis/cc-pvtz.gbs 
    atoms 2-3 entry H          line    23 file /home/akrom/software/anaconda3/envs/ffpenv/share/psi4/basis/cc-pvtz.gbs 


         ---------------------------------------------------------
                                   SCF
               by Justin Turney, Rob Parrish, Andy Simmonett
                          and Daniel G. A. Smith
                              RHF Reference
                        1 Threads,    500 MiB Core
         ---------------------------------------------------------

  ==> Geometry <==

    Molecular point group: c2v
    Full point group: C2v

    Geometry (in Angstrom), charge = 0, multiplicity = 1:

       Center              X                  Y                   Z               Mass       
    ------------   -----------------  -----------------  -----------------  -----------------
         O            0.000000000000     0.000000000000    -0.067969259994    15.994914619570
         H            0.749030000000     0.000000000000     0.539360740006     1.007825032230
         H           -0.749030000000    -0.000000000000     0.539360740006     1.007825032230

  Running in c2v symmetry.

  Rotational constants: A =     25.53156  B =     14.90675  C =      9.41168 [cm^-1]
  Rotational constants: A = 765416.81232  B = 446893.08836  C = 282155.15104 [MHz]
  Nuclear repulsion =    9.133433460995141

  Charge       = 0
  Multiplicity = 1
  Electrons    = 10
  Nalpha       = 5
  Nbeta        = 5

  ==> Algorithm <==

  SCF Algorithm Type is DF.
  DIIS enabled.
  MOM disabled.
  Fractional occupation disabled.
  Guess Type is SAD.
  Energy threshold   = 1.00e-06
  Density threshold  = 1.00e-06
  Integral threshold = 0.00e+00

  ==> Primary Basis <==

  Basis Set: CC-PVTZ
    Blend: CC-PVTZ
    Number of shells: 22
    Number of basis function: 58
    Number of Cartesian functions: 65
    Spherical Harmonics?: true
    Max angular momentum: 3

   => Loading Basis Set <=

    Name: (CC-PVTZ AUX)
    Role: JKFIT
    Keyword: DF_BASIS_SCF
    atoms 1   entry O          line   229 file /home/akrom/software/anaconda3/envs/ffpenv/share/psi4/basis/cc-pvtz-jkfit.gbs 
    atoms 2-3 entry H          line    51 file /home/akrom/software/anaconda3/envs/ffpenv/share/psi4/basis/cc-pvtz-jkfit.gbs 

  ==> Pre-Iterations <==

   -------------------------------------------------------
    Irrep   Nso     Nmo     Nalpha   Nbeta   Ndocc  Nsocc
   -------------------------------------------------------
     A1        23      23       0       0       0       0
     A2         7       7       0       0       0       0
     B1        17      17       0       0       0       0
     B2        11      11       0       0       0       0
   -------------------------------------------------------
    Total      58      58       5       5       5       0
   -------------------------------------------------------

  ==> Integral Setup <==

  DFHelper Memory: AOs need 0.004 GiB; user supplied 0.366 GiB. Using in-core AOs.

  ==> MemDFJK: Density-Fitted J/K Matrices <==

    J tasked:                   Yes
    K tasked:                   Yes
    wK tasked:                   No
    OpenMP threads:               1
    Memory [MiB]:               375
    Algorithm:                 Core
    Schwarz Cutoff:           1E-12
    Mask sparsity (%):       0.0000
    Fitting Condition:        1E-10

   => Auxiliary Basis Set <=

  Basis Set: (CC-PVTZ AUX)
    Blend: CC-PVTZ-JKFIT
    Number of shells: 45
    Number of basis function: 139
    Number of Cartesian functions: 166
    Spherical Harmonics?: true
    Max angular momentum: 4

  Minimum eigenvalue in the overlap matrix is 2.5816020467E-03.
  Using Symmetric Orthogonalization.

  SCF Guess: Superposition of Atomic Densities via on-the-fly atomic UHF.

  ==> Iterations <==

                           Total Energy        Delta E     RMS |[F,P]|

   @DF-RHF iter SAD:   -75.49573126190651   -7.54957e+01   0.00000e+00 
   @DF-RHF iter   1:   -75.97728778094850   -4.81557e-01   1.43580e-02 DIIS
   @DF-RHF iter   2:   -76.02989435423397   -5.26066e-02   9.35622e-03 DIIS
   @DF-RHF iter   3:   -76.05589698782175   -2.60026e-02   6.99479e-04 DIIS
   @DF-RHF iter   4:   -76.05629252532847   -3.95538e-04   1.73117e-04 DIIS
   @DF-RHF iter   5:   -76.05631833641574   -2.58111e-05   3.59710e-05 DIIS
   @DF-RHF iter   6:   -76.05631995851510   -1.62210e-06   6.86445e-06 DIIS
   @DF-RHF iter   7:   -76.05632001785744   -5.93423e-08   1.05091e-06 DIIS
   @DF-RHF iter   8:   -76.05632001896416   -1.10671e-09   1.54282e-07 DIIS
  Energy and wave function converged.


  ==> Post-Iterations <==

    Orbital Energies [Eh]
    ---------------------

    Doubly Occupied:                                                      

       1A1   -20.557266     2A1    -1.344000     1B1    -0.700973  
       3A1    -0.581520     1B2    -0.504767  

    Virtual:                                                              

       4A1     0.141109     2B1     0.203952     3B1     0.537088  
       5A1     0.607295     6A1     0.668064     2B2     0.786957  
       7A1     0.787321     4B1     0.806887     1A2     0.865310  
       3B2     0.943855     8A1     1.140233     5B1     1.200603  
       6B1     1.514683     9A1     1.561133     4B2     2.046031  
       2A2     2.058009     7B1     2.061446    10A1     2.172855  
      11A1     2.233489    12A1     2.576440     8B1     2.965381  
       5B2     3.332064    13A1     3.475136     3A2     3.599538  
       9B1     3.662276     6B2     3.791589    10B1     3.873164  
      14A1     3.890734     4A2     3.965725     7B2     4.012955  
      11B1     4.066155    15A1     4.187486     5A2     4.292222  
      16A1     4.350013    12B1     4.605983     8B2     4.676915  
      13B1     4.857798    17A1     5.149701    18A1     5.248695  
      14B1     5.518321     9B2     6.052758    19A1     6.579535  
      10B2     6.895236     6A2     6.932763    15B1     6.988800  
      20A1     7.011915    11B2     7.015655    21A1     7.198601  
       7A2     7.233239    22A1     7.442922    16B1     7.791878  
      17B1     8.281856    23A1    12.749462  

    Final Occupation by Irrep:
             A1    A2    B1    B2 
    DOCC [     3,    0,    1,    1 ]

  @DF-RHF Final Energy:   -76.05632001896416

   => Energetics <=

    Nuclear Repulsion Energy =              9.1334334609951409
    One-Electron Energy =                -123.0024609983316566
    Two-Electron Energy =                  37.8127075183723491
    Total Energy =                        -76.0563200189641719

Computation Completed


Properties will be evaluated at   0.000000,   0.000000,   0.000000 [a0]

Properties computed using the SCF density matrix

  Nuclear Dipole Moment: [e a0]
     X:     0.0000      Y:     0.0000      Z:     1.0109

  Electronic Dipole Moment: [e a0]
     X:     0.0000      Y:     0.0000      Z:    -0.1959

  Dipole Moment: [e a0]
     X:     0.0000      Y:     0.0000      Z:     0.8150     Total:     0.8150

  Dipole Moment: [D]
     X:     0.0000      Y:     0.0000      Z:     2.0716     Total:     2.0716


*** tstop() called on atlantis at Tue Apr 19 00:10:17 2022
Module time:
	user time   =       0.34 seconds =       0.01 minutes
	system time =       0.00 seconds =       0.00 minutes
	total time  =          0 seconds =       0.00 minutes
Total time:
	user time   =       0.34 seconds =       0.01 minutes
	system time =       0.00 seconds =       0.00 minutes
	total time  =          0 seconds =       0.00 minutes
gradient() will perform analytic gradient computation.

*** tstart() called on atlantis
*** at Tue Apr 19 00:10:17 2022

   => Loading Basis Set <=

    Name: CC-PVTZ
    Role: ORBITAL
    Keyword: BASIS
    atoms 1   entry O          line   262 file /home/akrom/software/anaconda3/envs/ffpenv/share/psi4/basis/cc-pvtz.gbs 
    atoms 2-3 entry H          line    23 file /home/akrom/software/anaconda3/envs/ffpenv/share/psi4/basis/cc-pvtz.gbs 


         ---------------------------------------------------------
                                   SCF
               by Justin Turney, Rob Parrish, Andy Simmonett
                          and Daniel G. A. Smith
                              RHF Reference
                        1 Threads,    500 MiB Core
         ---------------------------------------------------------

  ==> Geometry <==

    Molecular point group: c2v
    Full point group: C2v

    Geometry (in Angstrom), charge = 0, multiplicity = 1:

       Center              X                  Y                   Z               Mass       
    ------------   -----------------  -----------------  -----------------  -----------------
         O            0.000000000000     0.000000000000    -0.067969259994    15.994914619570
         H            0.749030000000     0.000000000000     0.539360740006     1.007825032230
         H           -0.749030000000    -0.000000000000     0.539360740006     1.007825032230

  Running in c2v symmetry.

  Rotational constants: A =     25.53156  B =     14.90675  C =      9.41168 [cm^-1]
  Rotational constants: A = 765416.81232  B = 446893.08836  C = 282155.15104 [MHz]
  Nuclear repulsion =    9.133433460995141

  Charge       = 0
  Multiplicity = 1
  Electrons    = 10
  Nalpha       = 5
  Nbeta        = 5

  ==> Algorithm <==

  SCF Algorithm Type is DF.
  DIIS enabled.
  MOM disabled.
  Fractional occupation disabled.
  Guess Type is SAD.
  Energy threshold   = 1.00e-08
  Density threshold  = 1.00e-08
  Integral threshold = 0.00e+00

  ==> Primary Basis <==

  Basis Set: CC-PVTZ
    Blend: CC-PVTZ
    Number of shells: 22
    Number of basis function: 58
    Number of Cartesian functions: 65
    Spherical Harmonics?: true
    Max angular momentum: 3

   => Loading Basis Set <=

    Name: (CC-PVTZ AUX)
    Role: JKFIT
    Keyword: DF_BASIS_SCF
    atoms 1   entry O          line   229 file /home/akrom/software/anaconda3/envs/ffpenv/share/psi4/basis/cc-pvtz-jkfit.gbs 
    atoms 2-3 entry H          line    51 file /home/akrom/software/anaconda3/envs/ffpenv/share/psi4/basis/cc-pvtz-jkfit.gbs 

  ==> Pre-Iterations <==

   -------------------------------------------------------
    Irrep   Nso     Nmo     Nalpha   Nbeta   Ndocc  Nsocc
   -------------------------------------------------------
     A1        23      23       0       0       0       0
     A2         7       7       0       0       0       0
     B1        17      17       0       0       0       0
     B2        11      11       0       0       0       0
   -------------------------------------------------------
    Total      58      58       5       5       5       0
   -------------------------------------------------------

  ==> Integral Setup <==

  DFHelper Memory: AOs need 0.004 GiB; user supplied 0.366 GiB. Using in-core AOs.

  ==> MemDFJK: Density-Fitted J/K Matrices <==

    J tasked:                   Yes
    K tasked:                   Yes
    wK tasked:                   No
    OpenMP threads:               1
    Memory [MiB]:               375
    Algorithm:                 Core
    Schwarz Cutoff:           1E-12
    Mask sparsity (%):       0.0000
    Fitting Condition:        1E-10

   => Auxiliary Basis Set <=

  Basis Set: (CC-PVTZ AUX)
    Blend: CC-PVTZ-JKFIT
    Number of shells: 45
    Number of basis function: 139
    Number of Cartesian functions: 166
    Spherical Harmonics?: true
    Max angular momentum: 4

  Minimum eigenvalue in the overlap matrix is 2.5816020467E-03.
  Using Symmetric Orthogonalization.

  SCF Guess: Superposition of Atomic Densities via on-the-fly atomic UHF.

  ==> Iterations <==

                           Total Energy        Delta E     RMS |[F,P]|

   @DF-RHF iter SAD:   -75.49573126190651   -7.54957e+01   0.00000e+00 
   @DF-RHF iter   1:   -75.97728778094850   -4.81557e-01   1.43580e-02 DIIS
   @DF-RHF iter   2:   -76.02989435423397   -5.26066e-02   9.35622e-03 DIIS
   @DF-RHF iter   3:   -76.05589698782175   -2.60026e-02   6.99479e-04 DIIS
   @DF-RHF iter   4:   -76.05629252532847   -3.95538e-04   1.73117e-04 DIIS
   @DF-RHF iter   5:   -76.05631833641574   -2.58111e-05   3.59710e-05 DIIS
   @DF-RHF iter   6:   -76.05631995851510   -1.62210e-06   6.86445e-06 DIIS
   @DF-RHF iter   7:   -76.05632001785744   -5.93423e-08   1.05091e-06 DIIS
   @DF-RHF iter   8:   -76.05632001896416   -1.10671e-09   1.54282e-07 DIIS
   @DF-RHF iter   9:   -76.05632001898830   -2.41442e-11   4.27366e-08 DIIS
   @DF-RHF iter  10:   -76.05632001899046   -2.16005e-12   6.02381e-09 DIIS
  Energy and wave function converged.


  ==> Post-Iterations <==

    Orbital Energies [Eh]
    ---------------------

    Doubly Occupied:                                                      

       1A1   -20.557266     2A1    -1.344000     1B1    -0.700973  
       3A1    -0.581520     1B2    -0.504767  

    Virtual:                                                              

       4A1     0.141109     2B1     0.203952     3B1     0.537088  
       5A1     0.607295     6A1     0.668064     2B2     0.786957  
       7A1     0.787321     4B1     0.806886     1A2     0.865310  
       3B2     0.943855     8A1     1.140233     5B1     1.200603  
       6B1     1.514682     9A1     1.561133     4B2     2.046031  
       2A2     2.058009     7B1     2.061446    10A1     2.172855  
      11A1     2.233489    12A1     2.576440     8B1     2.965381  
       5B2     3.332064    13A1     3.475136     3A2     3.599538  
       9B1     3.662276     6B2     3.791589    10B1     3.873164  
      14A1     3.890734     4A2     3.965725     7B2     4.012955  
      11B1     4.066154    15A1     4.187486     5A2     4.292221  
      16A1     4.350013    12B1     4.605983     8B2     4.676915  
      13B1     4.857797    17A1     5.149700    18A1     5.248695  
      14B1     5.518320     9B2     6.052757    19A1     6.579535  
      10B2     6.895235     6A2     6.932763    15B1     6.988800  
      20A1     7.011914    11B2     7.015655    21A1     7.198601  
       7A2     7.233239    22A1     7.442922    16B1     7.791878  
      17B1     8.281856    23A1    12.749461  

    Final Occupation by Irrep:
             A1    A2    B1    B2 
    DOCC [     3,    0,    1,    1 ]

  @DF-RHF Final Energy:   -76.05632001899046

   => Energetics <=

    Nuclear Repulsion Energy =              9.1334334609951409
    One-Electron Energy =                -123.0024546195025152
    Two-Electron Energy =                  37.8127011395169248
    Total Energy =                        -76.0563200189904478

Computation Completed


Properties will be evaluated at   0.000000,   0.000000,   0.000000 [a0]

Properties computed using the SCF density matrix

  Nuclear Dipole Moment: [e a0]
     X:     0.0000      Y:     0.0000      Z:     1.0109

  Electronic Dipole Moment: [e a0]
     X:     0.0000      Y:     0.0000      Z:    -0.1959

  Dipole Moment: [e a0]
     X:     0.0000      Y:     0.0000      Z:     0.8150     Total:     0.8150

  Dipole Moment: [D]
     X:     0.0000      Y:     0.0000      Z:     2.0716     Total:     2.0716


*** tstop() called on atlantis at Tue Apr 19 00:10:18 2022
Module time:
	user time   =       0.32 seconds =       0.01 minutes
	system time =       0.01 seconds =       0.00 minutes
	total time  =          1 seconds =       0.02 minutes
Total time:
	user time   =       0.66 seconds =       0.01 minutes
	system time =       0.01 seconds =       0.00 minutes
	total time  =          1 seconds =       0.02 minutes

*** tstart() called on atlantis
*** at Tue Apr 19 00:10:18 2022


         ------------------------------------------------------------
                                   SCF GRAD                          
                          Rob Parrish, Justin Turney,                
                       Andy Simmonett, and Alex Sokolov              
         ------------------------------------------------------------

  ==> Geometry <==

    Molecular point group: c2v
    Full point group: C2v

    Geometry (in Angstrom), charge = 0, multiplicity = 1:

       Center              X                  Y                   Z               Mass       
    ------------   -----------------  -----------------  -----------------  -----------------
         O            0.000000000000     0.000000000000    -0.067969259994    15.994914619570
         H            0.749030000000     0.000000000000     0.539360740006     1.007825032230
         H           -0.749030000000    -0.000000000000     0.539360740006     1.007825032230

  Nuclear repulsion =    9.133433460995141

  ==> Basis Set <==

  Basis Set: CC-PVTZ
    Blend: CC-PVTZ
    Number of shells: 22
    Number of basis function: 58
    Number of Cartesian functions: 65
    Spherical Harmonics?: true
    Max angular momentum: 3

  ==> DFJKGrad: Density-Fitted SCF Gradients <==

    Gradient:                    1
    J tasked:                  Yes
    K tasked:                  Yes
    wK tasked:                  No
    OpenMP threads:              1
    Integrals threads:           1
    Memory [MiB]:              375
    Schwarz Cutoff:          0E+00
    Fitting Condition:       1E-10

   => Auxiliary Basis Set <=

  Basis Set: (CC-PVTZ AUX)
    Blend: CC-PVTZ-JKFIT
    Number of shells: 45
    Number of basis function: 139
    Number of Cartesian functions: 166
    Spherical Harmonics?: true
    Max angular momentum: 4


  -Total Gradient:
     Atom            X                  Y                   Z
    ------   -----------------  -----------------  -----------------
       1        0.000000000000    -0.000000000000    -0.038332188300
       2        0.014948302167     0.000000000000     0.019166094150
       3       -0.014948302167    -0.000000000000     0.019166094150


*** tstop() called on atlantis at Tue Apr 19 00:10:18 2022
Module time:
	user time   =       0.14 seconds =       0.00 minutes
	system time =       0.01 seconds =       0.00 minutes
	total time  =          0 seconds =       0.00 minutes
Total time:
	user time   =       0.81 seconds =       0.01 minutes
	system time =       0.02 seconds =       0.00 minutes
	total time  =          1 seconds =       0.02 minutes

  Based on options and gradient (rms=1.72E-02), recommend projecting translations and not projecting rotations.
hessian() will perform analytic frequency computation.

*** tstart() called on atlantis
*** at Tue Apr 19 00:10:18 2022

   => Loading Basis Set <=

    Name: CC-PVTZ
    Role: ORBITAL
    Keyword: BASIS
    atoms 1   entry O          line   262 file /home/akrom/software/anaconda3/envs/ffpenv/share/psi4/basis/cc-pvtz.gbs 
    atoms 2-3 entry H          line    23 file /home/akrom/software/anaconda3/envs/ffpenv/share/psi4/basis/cc-pvtz.gbs 


         ---------------------------------------------------------
                                   SCF
               by Justin Turney, Rob Parrish, Andy Simmonett
                          and Daniel G. A. Smith
                              RHF Reference
                        1 Threads,    500 MiB Core
         ---------------------------------------------------------

  ==> Geometry <==

    Molecular point group: c2v
    Full point group: C2v

    Geometry (in Angstrom), charge = 0, multiplicity = 1:

       Center              X                  Y                   Z               Mass       
    ------------   -----------------  -----------------  -----------------  -----------------
         O            0.000000000000     0.000000000000    -0.067969259994    15.994914619570
         H            0.749030000000     0.000000000000     0.539360740006     1.007825032230
         H           -0.749030000000    -0.000000000000     0.539360740006     1.007825032230

  Running in c2v symmetry.

  Rotational constants: A =     25.53156  B =     14.90675  C =      9.41168 [cm^-1]
  Rotational constants: A = 765416.81232  B = 446893.08836  C = 282155.15104 [MHz]
  Nuclear repulsion =    9.133433460995141

  Charge       = 0
  Multiplicity = 1
  Electrons    = 10
  Nalpha       = 5
  Nbeta        = 5

  ==> Algorithm <==

  SCF Algorithm Type is DF.
  DIIS enabled.
  MOM disabled.
  Fractional occupation disabled.
  Guess Type is SAD.
  Energy threshold   = 1.00e-08
  Density threshold  = 1.00e-08
  Integral threshold = 0.00e+00

  ==> Primary Basis <==

  Basis Set: CC-PVTZ
    Blend: CC-PVTZ
    Number of shells: 22
    Number of basis function: 58
    Number of Cartesian functions: 65
    Spherical Harmonics?: true
    Max angular momentum: 3

   => Loading Basis Set <=

    Name: (CC-PVTZ AUX)
    Role: JKFIT
    Keyword: DF_BASIS_SCF
    atoms 1   entry O          line   229 file /home/akrom/software/anaconda3/envs/ffpenv/share/psi4/basis/cc-pvtz-jkfit.gbs 
    atoms 2-3 entry H          line    51 file /home/akrom/software/anaconda3/envs/ffpenv/share/psi4/basis/cc-pvtz-jkfit.gbs 

  ==> Pre-Iterations <==

   -------------------------------------------------------
    Irrep   Nso     Nmo     Nalpha   Nbeta   Ndocc  Nsocc
   -------------------------------------------------------
     A1        23      23       0       0       0       0
     A2         7       7       0       0       0       0
     B1        17      17       0       0       0       0
     B2        11      11       0       0       0       0
   -------------------------------------------------------
    Total      58      58       5       5       5       0
   -------------------------------------------------------

  ==> Integral Setup <==

  DFHelper Memory: AOs need 0.004 GiB; user supplied 0.366 GiB. Using in-core AOs.

  ==> MemDFJK: Density-Fitted J/K Matrices <==

    J tasked:                   Yes
    K tasked:                   Yes
    wK tasked:                   No
    OpenMP threads:               1
    Memory [MiB]:               375
    Algorithm:                 Core
    Schwarz Cutoff:           1E-12
    Mask sparsity (%):       0.0000
    Fitting Condition:        1E-10

   => Auxiliary Basis Set <=

  Basis Set: (CC-PVTZ AUX)
    Blend: CC-PVTZ-JKFIT
    Number of shells: 45
    Number of basis function: 139
    Number of Cartesian functions: 166
    Spherical Harmonics?: true
    Max angular momentum: 4

  Minimum eigenvalue in the overlap matrix is 2.5816020467E-03.
  Using Symmetric Orthogonalization.

  SCF Guess: Superposition of Atomic Densities via on-the-fly atomic UHF.

  ==> Iterations <==

                           Total Energy        Delta E     RMS |[F,P]|

   @DF-RHF iter SAD:   -75.49573126190651   -7.54957e+01   0.00000e+00 
   @DF-RHF iter   1:   -75.97728778094850   -4.81557e-01   1.43580e-02 DIIS
   @DF-RHF iter   2:   -76.02989435423397   -5.26066e-02   9.35622e-03 DIIS
   @DF-RHF iter   3:   -76.05589698782175   -2.60026e-02   6.99479e-04 DIIS
   @DF-RHF iter   4:   -76.05629252532847   -3.95538e-04   1.73117e-04 DIIS
   @DF-RHF iter   5:   -76.05631833641574   -2.58111e-05   3.59710e-05 DIIS
   @DF-RHF iter   6:   -76.05631995851510   -1.62210e-06   6.86445e-06 DIIS
   @DF-RHF iter   7:   -76.05632001785744   -5.93423e-08   1.05091e-06 DIIS
   @DF-RHF iter   8:   -76.05632001896416   -1.10671e-09   1.54282e-07 DIIS
   @DF-RHF iter   9:   -76.05632001898830   -2.41442e-11   4.27366e-08 DIIS
   @DF-RHF iter  10:   -76.05632001899046   -2.16005e-12   6.02381e-09 DIIS
  Energy and wave function converged.


  ==> Post-Iterations <==

    Orbital Energies [Eh]
    ---------------------

    Doubly Occupied:                                                      

       1A1   -20.557266     2A1    -1.344000     1B1    -0.700973  
       3A1    -0.581520     1B2    -0.504767  

    Virtual:                                                              

       4A1     0.141109     2B1     0.203952     3B1     0.537088  
       5A1     0.607295     6A1     0.668064     2B2     0.786957  
       7A1     0.787321     4B1     0.806886     1A2     0.865310  
       3B2     0.943855     8A1     1.140233     5B1     1.200603  
       6B1     1.514682     9A1     1.561133     4B2     2.046031  
       2A2     2.058009     7B1     2.061446    10A1     2.172855  
      11A1     2.233489    12A1     2.576440     8B1     2.965381  
       5B2     3.332064    13A1     3.475136     3A2     3.599538  
       9B1     3.662276     6B2     3.791589    10B1     3.873164  
      14A1     3.890734     4A2     3.965725     7B2     4.012955  
      11B1     4.066154    15A1     4.187486     5A2     4.292221  
      16A1     4.350013    12B1     4.605983     8B2     4.676915  
      13B1     4.857797    17A1     5.149700    18A1     5.248695  
      14B1     5.518320     9B2     6.052757    19A1     6.579535  
      10B2     6.895235     6A2     6.932763    15B1     6.988800  
      20A1     7.011914    11B2     7.015655    21A1     7.198601  
       7A2     7.233239    22A1     7.442922    16B1     7.791878  
      17B1     8.281856    23A1    12.749461  

    Final Occupation by Irrep:
             A1    A2    B1    B2 
    DOCC [     3,    0,    1,    1 ]

  @DF-RHF Final Energy:   -76.05632001899046

   => Energetics <=

    Nuclear Repulsion Energy =              9.1334334609951409
    One-Electron Energy =                -123.0024546195025152
    Two-Electron Energy =                  37.8127011395169248
    Total Energy =                        -76.0563200189904478

Computation Completed


Properties will be evaluated at   0.000000,   0.000000,   0.000000 [a0]

Properties computed using the SCF density matrix

  Nuclear Dipole Moment: [e a0]
     X:     0.0000      Y:     0.0000      Z:     1.0109

  Electronic Dipole Moment: [e a0]
     X:     0.0000      Y:     0.0000      Z:    -0.1959

  Dipole Moment: [e a0]
     X:     0.0000      Y:     0.0000      Z:     0.8150     Total:     0.8150

  Dipole Moment: [D]
     X:     0.0000      Y:     0.0000      Z:     2.0716     Total:     2.0716


*** tstop() called on atlantis at Tue Apr 19 00:10:18 2022
Module time:
	user time   =       0.32 seconds =       0.01 minutes
	system time =       0.00 seconds =       0.00 minutes
	total time  =          0 seconds =       0.00 minutes
Total time:
	user time   =       1.13 seconds =       0.02 minutes
	system time =       0.02 seconds =       0.00 minutes
	total time  =          1 seconds =       0.02 minutes

*** tstart() called on atlantis
*** at Tue Apr 19 00:10:18 2022


         ------------------------------------------------------------
                                   SCF HESS                          
                          Rob Parrish, Justin Turney,                
                       Andy Simmonett, and Alex Sokolov              
         ------------------------------------------------------------

  ==> Geometry <==

    Molecular point group: c2v
    Full point group: C2v

    Geometry (in Angstrom), charge = 0, multiplicity = 1:

       Center              X                  Y                   Z               Mass       
    ------------   -----------------  -----------------  -----------------  -----------------
         O            0.000000000000     0.000000000000    -0.067969259994    15.994914619570
         H            0.749030000000     0.000000000000     0.539360740006     1.007825032230
         H           -0.749030000000    -0.000000000000     0.539360740006     1.007825032230

  Nuclear repulsion =    9.133433460995141

  ==> Basis Set <==

  Basis Set: CC-PVTZ
    Blend: CC-PVTZ
    Number of shells: 22
    Number of basis function: 58
    Number of Cartesian functions: 65
    Spherical Harmonics?: true
    Max angular momentum: 3

  ==> DFJKGrad: Density-Fitted SCF Gradients <==

    Gradient:                    2
    J tasked:                  Yes
    K tasked:                  Yes
    wK tasked:                  No
    OpenMP threads:              1
    Integrals threads:           1
    Memory [MiB]:              375
    Schwarz Cutoff:          0E+00
    Fitting Condition:       1E-10

   => Auxiliary Basis Set <=

  Basis Set: (CC-PVTZ AUX)
    Blend: CC-PVTZ-JKFIT
    Number of shells: 45
    Number of basis function: 139
    Number of Cartesian functions: 166
    Spherical Harmonics?: true
    Max angular momentum: 4

  DFHelper Memory: AOs need 0.004 GiB; user supplied 0.439 GiB. Using in-core AOs.

  ==> MemDFJK: Density-Fitted J/K Matrices <==

    J tasked:                   Yes
    K tasked:                   Yes
    wK tasked:                   No
    OpenMP threads:               1
    Memory [MiB]:               450
    Algorithm:                 Core
    Schwarz Cutoff:           1E-12
    Mask sparsity (%):       0.0000
    Fitting Condition:        1E-10

   => Auxiliary Basis Set <=

  Basis Set: (CC-PVTZ AUX)
    Blend: CC-PVTZ-JKFIT
    Number of shells: 45
    Number of basis function: 139
    Number of Cartesian functions: 166
    Spherical Harmonics?: true
    Max angular momentum: 4


         ------------------------------------------------------------
                                     CPHF                           
                                  Rob Parrish                       
         ------------------------------------------------------------

  ==> Geometry <==

    Molecular point group: c2v
    Full point group: C2v

    Geometry (in Angstrom), charge = 0, multiplicity = 1:

       Center              X                  Y                   Z               Mass       
    ------------   -----------------  -----------------  -----------------  -----------------
         O            0.000000000000     0.000000000000    -0.067969259994    15.994914619570
         H            0.749030000000     0.000000000000     0.539360740006     1.007825032230
         H           -0.749030000000    -0.000000000000     0.539360740006     1.007825032230

  Nuclear repulsion =    9.133433460995141
  Reference energy  =  -76.056320018990462

  ==> Basis Set <==

  Basis Set: CC-PVTZ
    Blend: CC-PVTZ
    Number of shells: 22
    Number of basis function: 58
    Number of Cartesian functions: 65
    Spherical Harmonics?: true
    Max angular momentum: 3

  ==> CGRSolver (by Rob Parrish) <==

   Number of roots    =         9
   Preconditioning    =    JACOBI
   Convergence cutoff =     1E-06
   Maximum iterations =       100

  ==> CPHFRHamiltonian (by Rob Parrish) <== 

  ==> MemDFJK: Density-Fitted J/K Matrices <==

    J tasked:                   Yes
    K tasked:                   Yes
    wK tasked:                   No
    OpenMP threads:               1
    Memory [MiB]:               450
    Algorithm:                 Core
    Schwarz Cutoff:           1E-12
    Mask sparsity (%):       0.0000
    Fitting Condition:        1E-10

   => Auxiliary Basis Set <=

  Basis Set: (CC-PVTZ AUX)
    Blend: CC-PVTZ-JKFIT
    Number of shells: 45
    Number of basis function: 139
    Number of Cartesian functions: 166
    Spherical Harmonics?: true
    Max angular momentum: 4

  ==> CPHF Iterations <==

  => Iterations <=

             Iter  Converged  Remaining    Residual
  CGR           1          0          9   1.089E-01
  CGR           2          0          9   2.378E-02
  CGR           3          0          9   6.247E-03
  CGR           4          0          9   1.087E-03
  CGR           5          0          9   1.600E-04
  CGR           6          0          9   3.329E-05
  CGR           7          2          7   6.884E-06
  CGR           8          7          2   1.247E-06
  CGR           9          9          0   1.864E-07

    CGRSolver converged.


*** tstop() called on atlantis at Tue Apr 19 00:10:54 2022
Module time:
	user time   =      35.45 seconds =       0.59 minutes
	system time =       0.15 seconds =       0.00 minutes
	total time  =         36 seconds =       0.60 minutes
Total time:
	user time   =      36.58 seconds =       0.61 minutes
	system time =       0.17 seconds =       0.00 minutes
	total time  =         37 seconds =       0.62 minutes


  ==> Harmonic Vibrational Analysis <==

  non-mass-weighted Hessian:       Symmetric? True   Hermitian? True   Lin Dep Dim?  0 (0)
  projection of translations (True) and rotations (False) removed 3 degrees of freedom (6)
  total projector:                 Symmetric? True   Hermitian? True   Lin Dep Dim?  3 (3)
  mass-weighted Hessian:           Symmetric? True   Hermitian? True   Lin Dep Dim?  0 (0)
  pre-proj  low-frequency mode:    0.0000i [cm^-1]
  pre-proj  low-frequency mode:    0.0000i [cm^-1]
  pre-proj  low-frequency mode:    0.0000i [cm^-1]
  pre-proj  low-frequency mode:  526.2094  [cm^-1]
  pre-proj  low-frequency mode:  596.5186  [cm^-1]
  pre-proj  low-frequency mode:  702.1653  [cm^-1]
  pre-proj  all modes:['0.0082i' '0.0071i' '0.0058i' '526.2094' '596.5186' '702.1653'
 '1841.6269' '3822.4523' '3885.8330']
  projected mass-weighted Hessian: Symmetric? True   Hermitian? True   Lin Dep Dim?  3 (3)
  post-proj low-frequency mode:    0.0000i [cm^-1] (TR)
  post-proj low-frequency mode:    0.0000  [cm^-1] (TR)
  post-proj low-frequency mode:    0.0001  [cm^-1] (TR)
  post-proj low-frequency mode:  526.2094  [cm^-1] (V)
  post-proj low-frequency mode:  596.5186  [cm^-1] (V)
  post-proj low-frequency mode:  702.1653  [cm^-1] (V)
  post-proj  all modes:['0.0000i' '0.0000' '0.0001' '526.2094' '596.5186' '702.1653' '1841.6269'
 '3822.4523' '3885.8330']

  Note that "Vibration"s include 3 un-projected rotation-like modes.
  Vibration                       4                   5                   6           
  Freq [cm^-1]                 526.2094            596.5186            702.1653       
  Irrep                           A2                  B1                  B2          
  Reduced mass [u]              1.0078              1.0476              1.1259        
  Force const [mDyne/A]         0.1644              0.2196              0.3271        
  Turning point v=0 [a0]        0.4765              0.4389              0.3903        
  RMS dev v=0 [a0 u^1/2]        0.3382              0.3177              0.2928        
  IR activ [km/mol]             0.0000             100.1742            274.6386       
  Char temp [K]                757.0982            858.2574           1010.2595       
  ----------------------------------------------------------------------------------
      1   O               -0.00 -0.00  0.00    0.05  0.00  0.00    0.00 -0.09  0.00   
      2   H                0.00  0.71 -0.00   -0.41 -0.00  0.58   -0.00  0.70  0.00   
      3   H                0.00 -0.71  0.00   -0.41 -0.00 -0.58   -0.00  0.70 -0.00   

  Vibration                       7                   8                   9           
  Freq [cm^-1]                1841.6269           3822.4523           3885.8330       
  Irrep                           A1                  A1                  B1          
  Reduced mass [u]              1.0811              1.0467              1.0801        
  Force const [mDyne/A]         2.1603              9.0104              9.6092        
  Turning point v=0 [a0]        0.2459              0.1735              0.1694        
  RMS dev v=0 [a0 u^1/2]        0.1808              0.1255              0.1245        
  IR activ [km/mol]            82.4095             13.7412             56.8934        
  Char temp [K]               2649.6910           5499.6578           5590.8486       
  ----------------------------------------------------------------------------------
      1   O                0.00  0.00 -0.07    0.00 -0.00 -0.05   -0.07  0.00 -0.00   
      2   H               -0.44  0.00  0.55    0.58 -0.00  0.40    0.55 -0.00  0.44   
      3   H                0.44  0.00  0.55   -0.58  0.00  0.40    0.55 -0.00 -0.44   

  ==> Thermochemistry Components <==

  Entropy, S
    Electronic S            0.000 [cal/(mol K)]        0.000 [J/(mol K)]       0.00000000 [mEh/K] (multiplicity = 1)
    Translational S        34.608 [cal/(mol K)]      144.801 [J/(mol K)]       0.05515177 [mEh/K] (mol. weight = 18.0106 [u], P = 101325.00 [Pa])
    Rotational S           10.508 [cal/(mol K)]       43.968 [J/(mol K)]       0.01674635 [mEh/K] (symmetry no. = 2)
    Vibrational S           1.358 [cal/(mol K)]        5.680 [J/(mol K)]       0.00216356 [mEh/K]
  Total S                  46.474 [cal/(mol K)]      194.449 [J/(mol K)]       0.07406168 [mEh/K]
  Correction S              0.000 [cal/(mol K)]        0.000 [J/(mol K)]       0.00000000 [mEh/K]

  Constant volume heat capacity, Cv
    Electronic Cv           0.000 [cal/(mol K)]        0.000 [J/(mol K)]       0.00000000 [mEh/K]
    Translational Cv        2.981 [cal/(mol K)]       12.472 [J/(mol K)]       0.00475022 [mEh/K]
    Rotational Cv           2.981 [cal/(mol K)]       12.472 [J/(mol K)]       0.00475022 [mEh/K]
    Vibrational Cv          3.078 [cal/(mol K)]       12.878 [J/(mol K)]       0.00490503 [mEh/K]
  Total Cv                  9.040 [cal/(mol K)]       37.822 [J/(mol K)]       0.01440546 [mEh/K]
  Correction Cv             0.000 [cal/(mol K)]        0.000 [J/(mol K)]       0.00000000 [mEh/K]

  Constant pressure heat capacity, Cp
    Electronic Cp           0.000 [cal/(mol K)]        0.000 [J/(mol K)]       0.00000000 [mEh/K]
    Translational Cp        4.968 [cal/(mol K)]       20.786 [J/(mol K)]       0.00791703 [mEh/K]
    Rotational Cp           2.981 [cal/(mol K)]       12.472 [J/(mol K)]       0.00475022 [mEh/K]
    Vibrational Cp          3.078 [cal/(mol K)]       12.878 [J/(mol K)]       0.00490503 [mEh/K]
  Total Cp                 11.027 [cal/(mol K)]       46.136 [J/(mol K)]       0.01757227 [mEh/K]
  Correction Cp             0.000 [cal/(mol K)]        0.000 [J/(mol K)]       0.00000000 [mEh/K]

  ==> Thermochemistry Energy Analysis <==

  Raw electronic energy, E0
  Total E0, Electronic energy at well bottom at 0 [K]                  -76.05632002 [Eh]

  Zero-point energy, ZPE_vib = Sum_i nu_i / 2
    Electronic ZPE          0.000 [kcal/mol]        0.000 [kJ/mol]       0.00000000 [Eh]
    Translational ZPE       0.000 [kcal/mol]        0.000 [kJ/mol]       0.00000000 [Eh]
    Rotational ZPE          0.000 [kcal/mol]        0.000 [kJ/mol]       0.00000000 [Eh]
    Vibrational ZPE        16.261 [kcal/mol]       68.036 [kJ/mol]       0.02591371 [Eh]        5687.403 [cm^-1]
  Correction ZPE           16.261 [kcal/mol]       68.036 [kJ/mol]       0.02591371 [Eh]        5687.403 [cm^-1]
  Total ZPE, Electronic energy at 0 [K]                                -76.03040631 [Eh]

  Thermal Energy, E (includes ZPE)
    Electronic E            0.000 [kcal/mol]        0.000 [kJ/mol]       0.00000000 [Eh]
    Translational E         0.889 [kcal/mol]        3.718 [kJ/mol]       0.00141628 [Eh]
    Rotational E            0.889 [kcal/mol]        3.718 [kJ/mol]       0.00141628 [Eh]
    Vibrational E          16.562 [kcal/mol]       69.297 [kJ/mol]       0.02639397 [Eh]
  Correction E             18.340 [kcal/mol]       76.734 [kJ/mol]       0.02922653 [Eh]
  Total E, Electronic energy at  298.15 [K]                            -76.02709349 [Eh]

  Enthalpy, H_trans = E_trans + k_B * T
    Electronic H            0.000 [kcal/mol]        0.000 [kJ/mol]       0.00000000 [Eh]
    Translational H         1.481 [kcal/mol]        6.197 [kJ/mol]       0.00236046 [Eh]
    Rotational H            0.889 [kcal/mol]        3.718 [kJ/mol]       0.00141628 [Eh]
    Vibrational H          16.562 [kcal/mol]       69.297 [kJ/mol]       0.02639397 [Eh]
  Correction H             18.932 [kcal/mol]       79.213 [kJ/mol]       0.03017071 [Eh]
  Total H, Enthalpy at  298.15 [K]                                     -76.02614931 [Eh]

  Gibbs free energy, G = H - T * S
    Electronic G            0.000 [kcal/mol]        0.000 [kJ/mol]       0.00000000 [Eh]
    Translational G        -8.837 [kcal/mol]      -36.975 [kJ/mol]      -0.01408304 [Eh]
    Rotational G           -2.244 [kcal/mol]       -9.390 [kJ/mol]      -0.00357665 [Eh]
    Vibrational G          16.158 [kcal/mol]       67.604 [kJ/mol]       0.02574891 [Eh]
  Correction G              5.076 [kcal/mol]       21.238 [kJ/mol]       0.00808922 [Eh]
  Total G, Free enthalpy at  298.15 [K]                                -76.04823080 [Eh]

    Psi4 stopped on: Tuesday, 19 April 2022 12:10AM
    Psi4 wall time for execution: 0:00:36.84

*** Psi4 exiting successfully. Buy a developer a beer!
