
    -----------------------------------------------------------------------
          Psi4: An Open-Source Ab Initio Electronic Structure Package
                               Psi4 1.3.2 release

                         Git: Rev {HEAD} ecbda83 


    R. M. Parrish, L. A. Burns, D. G. A. Smith, A. C. Simmonett,
    A. E. DePrince III, E. G. Hohenstein, U. Bozkaya, A. Yu. Sokolov,
    R. Di Remigio, R. M. Richard, J. F. Gonthier, A. M. James,
    H. R. McAlexander, A. Kumar, M. Saitow, X. Wang, B. P. Pritchard,
    P. Verma, H. F. Schaefer III, K. Patkowski, R. A. King, E. F. Valeev,
    F. A. Evangelista, J. M. Turney, T. D. Crawford, and C. D. Sherrill,
    J. Chem. Theory Comput. 13(7) pp 3185--3197 (2017).
    (doi: 10.1021/acs.jctc.7b00174)


                         Additional Contributions by
    P. Kraus, H. Kruse, M. H. Lechner, M. C. Schieber, R. A. Shaw,
    A. Alenaizan, R. Galvelis, Z. L. Glick, S. Lehtola, and J. P. Misiewicz

    -----------------------------------------------------------------------


    Psi4 started on: Tuesday, 19 April 2022 12:04AM

    Process ID: 24929
    Host:       atlantis
    PSIDATADIR: /home/akrom/software/anaconda3/envs/ffpenv/share/psi4
    Memory:     500.0 MiB
    Threads:    1
    
  ==> Input File <==

--------------------------------------------------------------------------
set basis  6-311++G**
molecule {
0 1
   O        0.00000        0.00000       -0.06797
   H        0.74903        0.00000        0.53936
   H       -0.74903        0.00000        0.53936
}
energy('scf')
frequencies('scf')


--------------------------------------------------------------------------

*** tstart() called on atlantis
*** at Tue Apr 19 00:04:01 2022

   => Loading Basis Set <=

    Name: 6-311++G**
    Role: ORBITAL
    Keyword: BASIS
    atoms 1   entry O          line   161 file /home/akrom/software/anaconda3/envs/ffpenv/share/psi4/basis/6-311ppgss.gbs 
    atoms 2-3 entry H          line    42 file /home/akrom/software/anaconda3/envs/ffpenv/share/psi4/basis/6-311ppgss.gbs 


         ---------------------------------------------------------
                                   SCF
               by Justin Turney, Rob Parrish, Andy Simmonett
                          and Daniel G. A. Smith
                              RHF Reference
                        1 Threads,    500 MiB Core
         ---------------------------------------------------------

  ==> Geometry <==

    Molecular point group: c2v
    Full point group: C2v

    Geometry (in Angstrom), charge = 0, multiplicity = 1:

       Center              X                  Y                   Z               Mass       
    ------------   -----------------  -----------------  -----------------  -----------------
         O            0.000000000000     0.000000000000    -0.067969259994    15.994914619570
         H            0.749030000000     0.000000000000     0.539360740006     1.007825032230
         H           -0.749030000000    -0.000000000000     0.539360740006     1.007825032230

  Running in c2v symmetry.

  Rotational constants: A =     25.53156  B =     14.90675  C =      9.41168 [cm^-1]
  Rotational constants: A = 765416.81232  B = 446893.08836  C = 282155.15104 [MHz]
  Nuclear repulsion =    9.133433460995141

  Charge       = 0
  Multiplicity = 1
  Electrons    = 10
  Nalpha       = 5
  Nbeta        = 5

  ==> Algorithm <==

  SCF Algorithm Type is DF.
  DIIS enabled.
  MOM disabled.
  Fractional occupation disabled.
  Guess Type is SAD.
  Energy threshold   = 1.00e-06
  Density threshold  = 1.00e-06
  Integral threshold = 0.00e+00

  ==> Primary Basis <==

  Basis Set: 6-311++G**
    Blend: 6-311++G**
    Number of shells: 20
    Number of basis function: 36
    Number of Cartesian functions: 37
    Spherical Harmonics?: true
    Max angular momentum: 2

   => Loading Basis Set <=

    Name: (6-311++G** AUX)
    Role: JKFIT
    Keyword: DF_BASIS_SCF
    atoms 1   entry O          line   286 file /home/akrom/software/anaconda3/envs/ffpenv/share/psi4/basis/aug-cc-pvtz-jkfit.gbs 
    atoms 2-3 entry H          line    70 file /home/akrom/software/anaconda3/envs/ffpenv/share/psi4/basis/aug-cc-pvtz-jkfit.gbs 

  ==> Pre-Iterations <==

   -------------------------------------------------------
    Irrep   Nso     Nmo     Nalpha   Nbeta   Ndocc  Nsocc
   -------------------------------------------------------
     A1        17      17       0       0       0       0
     A2         2       2       0       0       0       0
     B1        11      11       0       0       0       0
     B2         6       6       0       0       0       0
   -------------------------------------------------------
    Total      36      36       5       5       5       0
   -------------------------------------------------------

  ==> Integral Setup <==

  DFHelper Memory: AOs need 0.002 GiB; user supplied 0.366 GiB. Using in-core AOs.

  ==> MemDFJK: Density-Fitted J/K Matrices <==

    J tasked:                   Yes
    K tasked:                   Yes
    wK tasked:                   No
    OpenMP threads:               1
    Memory [MiB]:               375
    Algorithm:                 Core
    Schwarz Cutoff:           1E-12
    Mask sparsity (%):       0.0000
    Fitting Condition:        1E-10

   => Auxiliary Basis Set <=

  Basis Set: (6-311++G** AUX)
    Blend: AUG-CC-PVTZ-JKFIT
    Number of shells: 58
    Number of basis function: 196
    Number of Cartesian functions: 241
    Spherical Harmonics?: true
    Max angular momentum: 4

  Minimum eigenvalue in the overlap matrix is 3.4007575506E-03.
  Using Symmetric Orthogonalization.

  SCF Guess: Superposition of Atomic Densities via on-the-fly atomic UHF.

  ==> Iterations <==

                           Total Energy        Delta E     RMS |[F,P]|

   @DF-RHF iter SAD:   -75.46549424054028   -7.54655e+01   0.00000e+00 
   @DF-RHF iter   1:   -75.96563182202826   -5.00138e-01   2.21186e-02 DIIS
   @DF-RHF iter   2:   -76.02056250739780   -5.49307e-02   1.47501e-02 DIIS
   @DF-RHF iter   3:   -76.05156461945498   -3.10021e-02   1.06027e-03 DIIS
   @DF-RHF iter   4:   -76.05195798742240   -3.93368e-04   2.41993e-04 DIIS
   @DF-RHF iter   5:   -76.05198089594512   -2.29085e-05   4.81154e-05 DIIS
   @DF-RHF iter   6:   -76.05198228451974   -1.38857e-06   1.11596e-05 DIIS
   @DF-RHF iter   7:   -76.05198237105623   -8.65365e-08   1.55088e-06 DIIS
   @DF-RHF iter   8:   -76.05198237237958   -1.32336e-09   2.80075e-07 DIIS
  Energy and wave function converged.


  ==> Post-Iterations <==

    Orbital Energies [Eh]
    ---------------------

    Doubly Occupied:                                                      

       1A1   -20.568999     2A1    -1.353789     1B1    -0.711652  
       3A1    -0.588017     1B2    -0.510339  

    Virtual:                                                              

       4A1     0.042598     2B1     0.072361     5A1     0.242121  
       2B2     0.245473     6A1     0.247861     3B1     0.258078  
       4B1     0.319416     7A1     0.325306     5B1     0.674166  
       8A1     0.739065     9A1     1.200731     3B2     1.243732  
       6B1     1.250364    10A1     1.435060     1A2     1.512728  
      11A1     1.609990     4B2     1.698116     7B1     1.946230  
       8B1     2.282511    12A1     2.449652    13A1     2.706616  
       9B1     2.890263     5B2     3.491174     2A2     3.520376  
      14A1     3.704426    15A1     4.065229    10B1     4.337829  
       6B2     5.488562    16A1     5.885672    11B1     6.160146  
      17A1    51.561575  

    Final Occupation by Irrep:
             A1    A2    B1    B2 
    DOCC [     3,    0,    1,    1 ]

  @DF-RHF Final Energy:   -76.05198237237958

   => Energetics <=

    Nuclear Repulsion Energy =              9.1334334609951409
    One-Electron Energy =                -122.9052420736800570
    Two-Electron Energy =                  37.7198262403053377
    Total Energy =                        -76.0519823723795838

Computation Completed


Properties will be evaluated at   0.000000,   0.000000,   0.000000 [a0]

Properties computed using the SCF density matrix

  Nuclear Dipole Moment: [e a0]
     X:     0.0000      Y:     0.0000      Z:     1.0109

  Electronic Dipole Moment: [e a0]
     X:     0.0000      Y:     0.0000      Z:    -0.1120

  Dipole Moment: [e a0]
     X:     0.0000      Y:     0.0000      Z:     0.8990     Total:     0.8990

  Dipole Moment: [D]
     X:     0.0000      Y:     0.0000      Z:     2.2849     Total:     2.2849


*** tstop() called on atlantis at Tue Apr 19 00:04:01 2022
Module time:
	user time   =       0.30 seconds =       0.01 minutes
	system time =       0.00 seconds =       0.00 minutes
	total time  =          0 seconds =       0.00 minutes
Total time:
	user time   =       0.30 seconds =       0.01 minutes
	system time =       0.00 seconds =       0.00 minutes
	total time  =          0 seconds =       0.00 minutes
gradient() will perform analytic gradient computation.

*** tstart() called on atlantis
*** at Tue Apr 19 00:04:01 2022

   => Loading Basis Set <=

    Name: 6-311++G**
    Role: ORBITAL
    Keyword: BASIS
    atoms 1   entry O          line   161 file /home/akrom/software/anaconda3/envs/ffpenv/share/psi4/basis/6-311ppgss.gbs 
    atoms 2-3 entry H          line    42 file /home/akrom/software/anaconda3/envs/ffpenv/share/psi4/basis/6-311ppgss.gbs 


         ---------------------------------------------------------
                                   SCF
               by Justin Turney, Rob Parrish, Andy Simmonett
                          and Daniel G. A. Smith
                              RHF Reference
                        1 Threads,    500 MiB Core
         ---------------------------------------------------------

  ==> Geometry <==

    Molecular point group: c2v
    Full point group: C2v

    Geometry (in Angstrom), charge = 0, multiplicity = 1:

       Center              X                  Y                   Z               Mass       
    ------------   -----------------  -----------------  -----------------  -----------------
         O            0.000000000000     0.000000000000    -0.067969259994    15.994914619570
         H            0.749030000000     0.000000000000     0.539360740006     1.007825032230
         H           -0.749030000000    -0.000000000000     0.539360740006     1.007825032230

  Running in c2v symmetry.

  Rotational constants: A =     25.53156  B =     14.90675  C =      9.41168 [cm^-1]
  Rotational constants: A = 765416.81232  B = 446893.08836  C = 282155.15104 [MHz]
  Nuclear repulsion =    9.133433460995141

  Charge       = 0
  Multiplicity = 1
  Electrons    = 10
  Nalpha       = 5
  Nbeta        = 5

  ==> Algorithm <==

  SCF Algorithm Type is DF.
  DIIS enabled.
  MOM disabled.
  Fractional occupation disabled.
  Guess Type is SAD.
  Energy threshold   = 1.00e-08
  Density threshold  = 1.00e-08
  Integral threshold = 0.00e+00

  ==> Primary Basis <==

  Basis Set: 6-311++G**
    Blend: 6-311++G**
    Number of shells: 20
    Number of basis function: 36
    Number of Cartesian functions: 37
    Spherical Harmonics?: true
    Max angular momentum: 2

   => Loading Basis Set <=

    Name: (6-311++G** AUX)
    Role: JKFIT
    Keyword: DF_BASIS_SCF
    atoms 1   entry O          line   286 file /home/akrom/software/anaconda3/envs/ffpenv/share/psi4/basis/aug-cc-pvtz-jkfit.gbs 
    atoms 2-3 entry H          line    70 file /home/akrom/software/anaconda3/envs/ffpenv/share/psi4/basis/aug-cc-pvtz-jkfit.gbs 

  ==> Pre-Iterations <==

   -------------------------------------------------------
    Irrep   Nso     Nmo     Nalpha   Nbeta   Ndocc  Nsocc
   -------------------------------------------------------
     A1        17      17       0       0       0       0
     A2         2       2       0       0       0       0
     B1        11      11       0       0       0       0
     B2         6       6       0       0       0       0
   -------------------------------------------------------
    Total      36      36       5       5       5       0
   -------------------------------------------------------

  ==> Integral Setup <==

  DFHelper Memory: AOs need 0.002 GiB; user supplied 0.366 GiB. Using in-core AOs.

  ==> MemDFJK: Density-Fitted J/K Matrices <==

    J tasked:                   Yes
    K tasked:                   Yes
    wK tasked:                   No
    OpenMP threads:               1
    Memory [MiB]:               375
    Algorithm:                 Core
    Schwarz Cutoff:           1E-12
    Mask sparsity (%):       0.0000
    Fitting Condition:        1E-10

   => Auxiliary Basis Set <=

  Basis Set: (6-311++G** AUX)
    Blend: AUG-CC-PVTZ-JKFIT
    Number of shells: 58
    Number of basis function: 196
    Number of Cartesian functions: 241
    Spherical Harmonics?: true
    Max angular momentum: 4

  Minimum eigenvalue in the overlap matrix is 3.4007575506E-03.
  Using Symmetric Orthogonalization.

  SCF Guess: Superposition of Atomic Densities via on-the-fly atomic UHF.

  ==> Iterations <==

                           Total Energy        Delta E     RMS |[F,P]|

   @DF-RHF iter SAD:   -75.46549424054028   -7.54655e+01   0.00000e+00 
   @DF-RHF iter   1:   -75.96563182202826   -5.00138e-01   2.21186e-02 DIIS
   @DF-RHF iter   2:   -76.02056250739780   -5.49307e-02   1.47501e-02 DIIS
   @DF-RHF iter   3:   -76.05156461945498   -3.10021e-02   1.06027e-03 DIIS
   @DF-RHF iter   4:   -76.05195798742240   -3.93368e-04   2.41993e-04 DIIS
   @DF-RHF iter   5:   -76.05198089594512   -2.29085e-05   4.81154e-05 DIIS
   @DF-RHF iter   6:   -76.05198228451974   -1.38857e-06   1.11596e-05 DIIS
   @DF-RHF iter   7:   -76.05198237105623   -8.65365e-08   1.55088e-06 DIIS
   @DF-RHF iter   8:   -76.05198237237958   -1.32336e-09   2.80075e-07 DIIS
   @DF-RHF iter   9:   -76.05198237241953   -3.99467e-11   7.27801e-08 DIIS
   @DF-RHF iter  10:   -76.05198237242220   -2.67164e-12   9.23667e-09 DIIS
  Energy and wave function converged.


  ==> Post-Iterations <==

    Orbital Energies [Eh]
    ---------------------

    Doubly Occupied:                                                      

       1A1   -20.569000     2A1    -1.353790     1B1    -0.711653  
       3A1    -0.588017     1B2    -0.510340  

    Virtual:                                                              

       4A1     0.042598     2B1     0.072361     5A1     0.242121  
       2B2     0.245473     6A1     0.247861     3B1     0.258078  
       4B1     0.319416     7A1     0.325306     5B1     0.674165  
       8A1     0.739064     9A1     1.200731     3B2     1.243732  
       6B1     1.250363    10A1     1.435060     1A2     1.512728  
      11A1     1.609989     4B2     1.698116     7B1     1.946230  
       8B1     2.282511    12A1     2.449651    13A1     2.706616  
       9B1     2.890263     5B2     3.491173     2A2     3.520375  
      14A1     3.704426    15A1     4.065229    10B1     4.337829  
       6B2     5.488561    16A1     5.885672    11B1     6.160145  
      17A1    51.561575  

    Final Occupation by Irrep:
             A1    A2    B1    B2 
    DOCC [     3,    0,    1,    1 ]

  @DF-RHF Final Energy:   -76.05198237242220

   => Energetics <=

    Nuclear Repulsion Energy =              9.1334334609951409
    One-Electron Energy =                -122.9052327356856864
    Two-Electron Energy =                  37.7198169022683487
    Total Energy =                        -76.0519823724222022

Computation Completed


Properties will be evaluated at   0.000000,   0.000000,   0.000000 [a0]

Properties computed using the SCF density matrix

  Nuclear Dipole Moment: [e a0]
     X:     0.0000      Y:     0.0000      Z:     1.0109

  Electronic Dipole Moment: [e a0]
     X:     0.0000      Y:     0.0000      Z:    -0.1120

  Dipole Moment: [e a0]
     X:     0.0000      Y:     0.0000      Z:     0.8990     Total:     0.8990

  Dipole Moment: [D]
     X:     0.0000      Y:     0.0000      Z:     2.2849     Total:     2.2849


*** tstop() called on atlantis at Tue Apr 19 00:04:02 2022
Module time:
	user time   =       0.28 seconds =       0.00 minutes
	system time =       0.01 seconds =       0.00 minutes
	total time  =          1 seconds =       0.02 minutes
Total time:
	user time   =       0.58 seconds =       0.01 minutes
	system time =       0.01 seconds =       0.00 minutes
	total time  =          1 seconds =       0.02 minutes

*** tstart() called on atlantis
*** at Tue Apr 19 00:04:02 2022


         ------------------------------------------------------------
                                   SCF GRAD                          
                          Rob Parrish, Justin Turney,                
                       Andy Simmonett, and Alex Sokolov              
         ------------------------------------------------------------

  ==> Geometry <==

    Molecular point group: c2v
    Full point group: C2v

    Geometry (in Angstrom), charge = 0, multiplicity = 1:

       Center              X                  Y                   Z               Mass       
    ------------   -----------------  -----------------  -----------------  -----------------
         O            0.000000000000     0.000000000000    -0.067969259994    15.994914619570
         H            0.749030000000     0.000000000000     0.539360740006     1.007825032230
         H           -0.749030000000    -0.000000000000     0.539360740006     1.007825032230

  Nuclear repulsion =    9.133433460995141

  ==> Basis Set <==

  Basis Set: 6-311++G**
    Blend: 6-311++G**
    Number of shells: 20
    Number of basis function: 36
    Number of Cartesian functions: 37
    Spherical Harmonics?: true
    Max angular momentum: 2

  ==> DFJKGrad: Density-Fitted SCF Gradients <==

    Gradient:                    1
    J tasked:                  Yes
    K tasked:                  Yes
    wK tasked:                  No
    OpenMP threads:              1
    Integrals threads:           1
    Memory [MiB]:              375
    Schwarz Cutoff:          0E+00
    Fitting Condition:       1E-10

   => Auxiliary Basis Set <=

  Basis Set: (6-311++G** AUX)
    Blend: AUG-CC-PVTZ-JKFIT
    Number of shells: 58
    Number of basis function: 196
    Number of Cartesian functions: 241
    Spherical Harmonics?: true
    Max angular momentum: 4


  -Total Gradient:
     Atom            X                  Y                   Z
    ------   -----------------  -----------------  -----------------
       1        0.000000000000     0.000000000000    -0.038323801572
       2        0.014442610142     0.000000000000     0.019161900786
       3       -0.014442610142    -0.000000000000     0.019161900786


*** tstop() called on atlantis at Tue Apr 19 00:04:02 2022
Module time:
	user time   =       0.13 seconds =       0.00 minutes
	system time =       0.00 seconds =       0.00 minutes
	total time  =          0 seconds =       0.00 minutes
Total time:
	user time   =       0.71 seconds =       0.01 minutes
	system time =       0.01 seconds =       0.00 minutes
	total time  =          1 seconds =       0.02 minutes

  Based on options and gradient (rms=1.71E-02), recommend projecting translations and not projecting rotations.
hessian() will perform analytic frequency computation.

*** tstart() called on atlantis
*** at Tue Apr 19 00:04:02 2022

   => Loading Basis Set <=

    Name: 6-311++G**
    Role: ORBITAL
    Keyword: BASIS
    atoms 1   entry O          line   161 file /home/akrom/software/anaconda3/envs/ffpenv/share/psi4/basis/6-311ppgss.gbs 
    atoms 2-3 entry H          line    42 file /home/akrom/software/anaconda3/envs/ffpenv/share/psi4/basis/6-311ppgss.gbs 


         ---------------------------------------------------------
                                   SCF
               by Justin Turney, Rob Parrish, Andy Simmonett
                          and Daniel G. A. Smith
                              RHF Reference
                        1 Threads,    500 MiB Core
         ---------------------------------------------------------

  ==> Geometry <==

    Molecular point group: c2v
    Full point group: C2v

    Geometry (in Angstrom), charge = 0, multiplicity = 1:

       Center              X                  Y                   Z               Mass       
    ------------   -----------------  -----------------  -----------------  -----------------
         O            0.000000000000     0.000000000000    -0.067969259994    15.994914619570
         H            0.749030000000     0.000000000000     0.539360740006     1.007825032230
         H           -0.749030000000    -0.000000000000     0.539360740006     1.007825032230

  Running in c2v symmetry.

  Rotational constants: A =     25.53156  B =     14.90675  C =      9.41168 [cm^-1]
  Rotational constants: A = 765416.81232  B = 446893.08836  C = 282155.15104 [MHz]
  Nuclear repulsion =    9.133433460995141

  Charge       = 0
  Multiplicity = 1
  Electrons    = 10
  Nalpha       = 5
  Nbeta        = 5

  ==> Algorithm <==

  SCF Algorithm Type is DF.
  DIIS enabled.
  MOM disabled.
  Fractional occupation disabled.
  Guess Type is SAD.
  Energy threshold   = 1.00e-08
  Density threshold  = 1.00e-08
  Integral threshold = 0.00e+00

  ==> Primary Basis <==

  Basis Set: 6-311++G**
    Blend: 6-311++G**
    Number of shells: 20
    Number of basis function: 36
    Number of Cartesian functions: 37
    Spherical Harmonics?: true
    Max angular momentum: 2

   => Loading Basis Set <=

    Name: (6-311++G** AUX)
    Role: JKFIT
    Keyword: DF_BASIS_SCF
    atoms 1   entry O          line   286 file /home/akrom/software/anaconda3/envs/ffpenv/share/psi4/basis/aug-cc-pvtz-jkfit.gbs 
    atoms 2-3 entry H          line    70 file /home/akrom/software/anaconda3/envs/ffpenv/share/psi4/basis/aug-cc-pvtz-jkfit.gbs 

  ==> Pre-Iterations <==

   -------------------------------------------------------
    Irrep   Nso     Nmo     Nalpha   Nbeta   Ndocc  Nsocc
   -------------------------------------------------------
     A1        17      17       0       0       0       0
     A2         2       2       0       0       0       0
     B1        11      11       0       0       0       0
     B2         6       6       0       0       0       0
   -------------------------------------------------------
    Total      36      36       5       5       5       0
   -------------------------------------------------------

  ==> Integral Setup <==

  DFHelper Memory: AOs need 0.002 GiB; user supplied 0.366 GiB. Using in-core AOs.

  ==> MemDFJK: Density-Fitted J/K Matrices <==

    J tasked:                   Yes
    K tasked:                   Yes
    wK tasked:                   No
    OpenMP threads:               1
    Memory [MiB]:               375
    Algorithm:                 Core
    Schwarz Cutoff:           1E-12
    Mask sparsity (%):       0.0000
    Fitting Condition:        1E-10

   => Auxiliary Basis Set <=

  Basis Set: (6-311++G** AUX)
    Blend: AUG-CC-PVTZ-JKFIT
    Number of shells: 58
    Number of basis function: 196
    Number of Cartesian functions: 241
    Spherical Harmonics?: true
    Max angular momentum: 4

  Minimum eigenvalue in the overlap matrix is 3.4007575506E-03.
  Using Symmetric Orthogonalization.

  SCF Guess: Superposition of Atomic Densities via on-the-fly atomic UHF.

  ==> Iterations <==

                           Total Energy        Delta E     RMS |[F,P]|

   @DF-RHF iter SAD:   -75.46549424054028   -7.54655e+01   0.00000e+00 
   @DF-RHF iter   1:   -75.96563182202826   -5.00138e-01   2.21186e-02 DIIS
   @DF-RHF iter   2:   -76.02056250739780   -5.49307e-02   1.47501e-02 DIIS
   @DF-RHF iter   3:   -76.05156461945498   -3.10021e-02   1.06027e-03 DIIS
   @DF-RHF iter   4:   -76.05195798742240   -3.93368e-04   2.41993e-04 DIIS
   @DF-RHF iter   5:   -76.05198089594512   -2.29085e-05   4.81154e-05 DIIS
   @DF-RHF iter   6:   -76.05198228451974   -1.38857e-06   1.11596e-05 DIIS
   @DF-RHF iter   7:   -76.05198237105623   -8.65365e-08   1.55088e-06 DIIS
   @DF-RHF iter   8:   -76.05198237237958   -1.32336e-09   2.80075e-07 DIIS
   @DF-RHF iter   9:   -76.05198237241953   -3.99467e-11   7.27801e-08 DIIS
   @DF-RHF iter  10:   -76.05198237242220   -2.67164e-12   9.23667e-09 DIIS
  Energy and wave function converged.


  ==> Post-Iterations <==

    Orbital Energies [Eh]
    ---------------------

    Doubly Occupied:                                                      

       1A1   -20.569000     2A1    -1.353790     1B1    -0.711653  
       3A1    -0.588017     1B2    -0.510340  

    Virtual:                                                              

       4A1     0.042598     2B1     0.072361     5A1     0.242121  
       2B2     0.245473     6A1     0.247861     3B1     0.258078  
       4B1     0.319416     7A1     0.325306     5B1     0.674165  
       8A1     0.739064     9A1     1.200731     3B2     1.243732  
       6B1     1.250363    10A1     1.435060     1A2     1.512728  
      11A1     1.609989     4B2     1.698116     7B1     1.946230  
       8B1     2.282511    12A1     2.449651    13A1     2.706616  
       9B1     2.890263     5B2     3.491173     2A2     3.520375  
      14A1     3.704426    15A1     4.065229    10B1     4.337829  
       6B2     5.488561    16A1     5.885672    11B1     6.160145  
      17A1    51.561575  

    Final Occupation by Irrep:
             A1    A2    B1    B2 
    DOCC [     3,    0,    1,    1 ]

  @DF-RHF Final Energy:   -76.05198237242220

   => Energetics <=

    Nuclear Repulsion Energy =              9.1334334609951409
    One-Electron Energy =                -122.9052327356856864
    Two-Electron Energy =                  37.7198169022683487
    Total Energy =                        -76.0519823724222022

Computation Completed


Properties will be evaluated at   0.000000,   0.000000,   0.000000 [a0]

Properties computed using the SCF density matrix

  Nuclear Dipole Moment: [e a0]
     X:     0.0000      Y:     0.0000      Z:     1.0109

  Electronic Dipole Moment: [e a0]
     X:     0.0000      Y:     0.0000      Z:    -0.1120

  Dipole Moment: [e a0]
     X:     0.0000      Y:     0.0000      Z:     0.8990     Total:     0.8990

  Dipole Moment: [D]
     X:     0.0000      Y:     0.0000      Z:     2.2849     Total:     2.2849


*** tstop() called on atlantis at Tue Apr 19 00:04:02 2022
Module time:
	user time   =       0.27 seconds =       0.00 minutes
	system time =       0.00 seconds =       0.00 minutes
	total time  =          0 seconds =       0.00 minutes
Total time:
	user time   =       0.98 seconds =       0.02 minutes
	system time =       0.01 seconds =       0.00 minutes
	total time  =          1 seconds =       0.02 minutes

*** tstart() called on atlantis
*** at Tue Apr 19 00:04:02 2022


         ------------------------------------------------------------
                                   SCF HESS                          
                          Rob Parrish, Justin Turney,                
                       Andy Simmonett, and Alex Sokolov              
         ------------------------------------------------------------

  ==> Geometry <==

    Molecular point group: c2v
    Full point group: C2v

    Geometry (in Angstrom), charge = 0, multiplicity = 1:

       Center              X                  Y                   Z               Mass       
    ------------   -----------------  -----------------  -----------------  -----------------
         O            0.000000000000     0.000000000000    -0.067969259994    15.994914619570
         H            0.749030000000     0.000000000000     0.539360740006     1.007825032230
         H           -0.749030000000    -0.000000000000     0.539360740006     1.007825032230

  Nuclear repulsion =    9.133433460995141

  ==> Basis Set <==

  Basis Set: 6-311++G**
    Blend: 6-311++G**
    Number of shells: 20
    Number of basis function: 36
    Number of Cartesian functions: 37
    Spherical Harmonics?: true
    Max angular momentum: 2

  ==> DFJKGrad: Density-Fitted SCF Gradients <==

    Gradient:                    2
    J tasked:                  Yes
    K tasked:                  Yes
    wK tasked:                  No
    OpenMP threads:              1
    Integrals threads:           1
    Memory [MiB]:              375
    Schwarz Cutoff:          0E+00
    Fitting Condition:       1E-10

   => Auxiliary Basis Set <=

  Basis Set: (6-311++G** AUX)
    Blend: AUG-CC-PVTZ-JKFIT
    Number of shells: 58
    Number of basis function: 196
    Number of Cartesian functions: 241
    Spherical Harmonics?: true
    Max angular momentum: 4

  DFHelper Memory: AOs need 0.002 GiB; user supplied 0.439 GiB. Using in-core AOs.

  ==> MemDFJK: Density-Fitted J/K Matrices <==

    J tasked:                   Yes
    K tasked:                   Yes
    wK tasked:                   No
    OpenMP threads:               1
    Memory [MiB]:               450
    Algorithm:                 Core
    Schwarz Cutoff:           1E-12
    Mask sparsity (%):       0.0000
    Fitting Condition:        1E-10

   => Auxiliary Basis Set <=

  Basis Set: (6-311++G** AUX)
    Blend: AUG-CC-PVTZ-JKFIT
    Number of shells: 58
    Number of basis function: 196
    Number of Cartesian functions: 241
    Spherical Harmonics?: true
    Max angular momentum: 4


         ------------------------------------------------------------
                                     CPHF                           
                                  Rob Parrish                       
         ------------------------------------------------------------

  ==> Geometry <==

    Molecular point group: c2v
    Full point group: C2v

    Geometry (in Angstrom), charge = 0, multiplicity = 1:

       Center              X                  Y                   Z               Mass       
    ------------   -----------------  -----------------  -----------------  -----------------
         O            0.000000000000     0.000000000000    -0.067969259994    15.994914619570
         H            0.749030000000     0.000000000000     0.539360740006     1.007825032230
         H           -0.749030000000    -0.000000000000     0.539360740006     1.007825032230

  Nuclear repulsion =    9.133433460995141
  Reference energy  =  -76.051982372422202

  ==> Basis Set <==

  Basis Set: 6-311++G**
    Blend: 6-311++G**
    Number of shells: 20
    Number of basis function: 36
    Number of Cartesian functions: 37
    Spherical Harmonics?: true
    Max angular momentum: 2

  ==> CGRSolver (by Rob Parrish) <==

   Number of roots    =         9
   Preconditioning    =    JACOBI
   Convergence cutoff =     1E-06
   Maximum iterations =       100

  ==> CPHFRHamiltonian (by Rob Parrish) <== 

  ==> MemDFJK: Density-Fitted J/K Matrices <==

    J tasked:                   Yes
    K tasked:                   Yes
    wK tasked:                   No
    OpenMP threads:               1
    Memory [MiB]:               450
    Algorithm:                 Core
    Schwarz Cutoff:           1E-12
    Mask sparsity (%):       0.0000
    Fitting Condition:        1E-10

   => Auxiliary Basis Set <=

  Basis Set: (6-311++G** AUX)
    Blend: AUG-CC-PVTZ-JKFIT
    Number of shells: 58
    Number of basis function: 196
    Number of Cartesian functions: 241
    Spherical Harmonics?: true
    Max angular momentum: 4

  ==> CPHF Iterations <==

  => Iterations <=

             Iter  Converged  Remaining    Residual
  CGR           1          0          9   1.074E-01
  CGR           2          0          9   2.266E-02
  CGR           3          0          9   5.445E-03
  CGR           4          0          9   1.101E-03
  CGR           5          0          9   1.551E-04
  CGR           6          0          9   3.103E-05
  CGR           7          2          7   6.866E-06
  CGR           8          7          2   1.208E-06
  CGR           9          9          0   1.728E-07

    CGRSolver converged.


*** tstop() called on atlantis at Tue Apr 19 00:04:25 2022
Module time:
	user time   =      23.18 seconds =       0.39 minutes
	system time =       0.05 seconds =       0.00 minutes
	total time  =         23 seconds =       0.38 minutes
Total time:
	user time   =      24.16 seconds =       0.40 minutes
	system time =       0.06 seconds =       0.00 minutes
	total time  =         24 seconds =       0.40 minutes


  ==> Harmonic Vibrational Analysis <==

  non-mass-weighted Hessian:       Symmetric? True   Hermitian? True   Lin Dep Dim?  0 (0)
  projection of translations (True) and rotations (False) removed 3 degrees of freedom (6)
  total projector:                 Symmetric? True   Hermitian? True   Lin Dep Dim?  3 (3)
  mass-weighted Hessian:           Symmetric? True   Hermitian? True   Lin Dep Dim?  0 (0)
  pre-proj  low-frequency mode:    0.0000i [cm^-1]
  pre-proj  low-frequency mode:    0.0142  [cm^-1]
  pre-proj  low-frequency mode:    0.0248  [cm^-1]
  pre-proj  low-frequency mode:  517.2322  [cm^-1]
  pre-proj  low-frequency mode:  591.4609  [cm^-1]
  pre-proj  low-frequency mode:  702.0884  [cm^-1]
  pre-proj  all modes:['0.0024i' '0.0142' '0.0248' '517.2322' '591.4609' '702.0884' '1822.6626'
 '3845.0181' '3909.1056']
  projected mass-weighted Hessian: Symmetric? True   Hermitian? True   Lin Dep Dim?  3 (3)
  post-proj low-frequency mode:    0.0000i [cm^-1] (TR)
  post-proj low-frequency mode:    0.0000  [cm^-1] (TR)
  post-proj low-frequency mode:    0.0000  [cm^-1] (TR)
  post-proj low-frequency mode:  517.2322  [cm^-1] (V)
  post-proj low-frequency mode:  591.4609  [cm^-1] (V)
  post-proj low-frequency mode:  702.0884  [cm^-1] (V)
  post-proj  all modes:['0.0000i' '0.0000' '0.0000' '517.2322' '591.4609' '702.0884' '1822.6626'
 '3845.0181' '3909.1056']

  Note that "Vibration"s include 3 un-projected rotation-like modes.
  Vibration                       4                   5                   6           
  Freq [cm^-1]                 517.2322            591.4609            702.0884       
  Irrep                           A2                  B1                  B2          
  Reduced mass [u]              1.0078              1.0475              1.1259        
  Force const [mDyne/A]         0.1589              0.2159              0.3270        
  Turning point v=0 [a0]        0.4806              0.4408              0.3903        
  RMS dev v=0 [a0 u^1/2]        0.3412              0.3190              0.2928        
  IR activ [km/mol]             0.0000             121.8679            334.1334       
  Char temp [K]                744.1820            850.9805           1010.1489       
  ----------------------------------------------------------------------------------
      1   O                0.00  0.00  0.00    0.05  0.00 -0.00    0.00 -0.09  0.00   
      2   H               -0.00  0.71  0.00   -0.41 -0.00  0.58   -0.00  0.70  0.00   
      3   H               -0.00 -0.71 -0.00   -0.41 -0.00 -0.58   -0.00  0.70 -0.00   

  Vibration                       7                   8                   9           
  Freq [cm^-1]                1822.6626           3845.0181           3909.1056       
  Irrep                           A1                  A1                  B1          
  Reduced mass [u]              1.0804              1.0473              1.0801        
  Force const [mDyne/A]         2.1148              9.1223              9.7248        
  Turning point v=0 [a0]        0.2473              0.1729              0.1689        
  RMS dev v=0 [a0 u^1/2]        0.1817              0.1251              0.1241        
  IR activ [km/mol]            72.3707             24.0937             66.0066        
  Char temp [K]               2622.4056           5532.1249           5624.3327       
  ----------------------------------------------------------------------------------
      1   O               -0.00 -0.00 -0.07   -0.00 -0.00 -0.05   -0.07 -0.00  0.00   
      2   H               -0.44  0.00  0.55    0.58  0.00  0.41    0.55  0.00  0.44   
      3   H                0.44 -0.00  0.55   -0.58  0.00  0.41    0.55 -0.00 -0.44   

  ==> Thermochemistry Components <==

  Entropy, S
    Electronic S            0.000 [cal/(mol K)]        0.000 [J/(mol K)]       0.00000000 [mEh/K] (multiplicity = 1)
    Translational S        34.608 [cal/(mol K)]      144.801 [J/(mol K)]       0.05515177 [mEh/K] (mol. weight = 18.0106 [u], P = 101325.00 [Pa])
    Rotational S           10.508 [cal/(mol K)]       43.968 [J/(mol K)]       0.01674635 [mEh/K] (symmetry no. = 2)
    Vibrational S           1.388 [cal/(mol K)]        5.806 [J/(mol K)]       0.00221121 [mEh/K]
  Total S                  46.504 [cal/(mol K)]      194.574 [J/(mol K)]       0.07410933 [mEh/K]
  Correction S              0.000 [cal/(mol K)]        0.000 [J/(mol K)]       0.00000000 [mEh/K]

  Constant volume heat capacity, Cv
    Electronic Cv           0.000 [cal/(mol K)]        0.000 [J/(mol K)]       0.00000000 [mEh/K]
    Translational Cv        2.981 [cal/(mol K)]       12.472 [J/(mol K)]       0.00475022 [mEh/K]
    Rotational Cv           2.981 [cal/(mol K)]       12.472 [J/(mol K)]       0.00475022 [mEh/K]
    Vibrational Cv          3.110 [cal/(mol K)]       13.014 [J/(mol K)]       0.00495660 [mEh/K]
  Total Cv                  9.072 [cal/(mol K)]       37.957 [J/(mol K)]       0.01445703 [mEh/K]
  Correction Cv             0.000 [cal/(mol K)]        0.000 [J/(mol K)]       0.00000000 [mEh/K]

  Constant pressure heat capacity, Cp
    Electronic Cp           0.000 [cal/(mol K)]        0.000 [J/(mol K)]       0.00000000 [mEh/K]
    Translational Cp        4.968 [cal/(mol K)]       20.786 [J/(mol K)]       0.00791703 [mEh/K]
    Rotational Cp           2.981 [cal/(mol K)]       12.472 [J/(mol K)]       0.00475022 [mEh/K]
    Vibrational Cp          3.110 [cal/(mol K)]       13.014 [J/(mol K)]       0.00495660 [mEh/K]
  Total Cp                 11.059 [cal/(mol K)]       46.271 [J/(mol K)]       0.01762384 [mEh/K]
  Correction Cp             0.000 [cal/(mol K)]        0.000 [J/(mol K)]       0.00000000 [mEh/K]

  ==> Thermochemistry Energy Analysis <==

  Raw electronic energy, E0
  Total E0, Electronic energy at well bottom at 0 [K]                  -76.05198237 [Eh]

  Zero-point energy, ZPE_vib = Sum_i nu_i / 2
    Electronic ZPE          0.000 [kcal/mol]        0.000 [kJ/mol]       0.00000000 [Eh]
    Translational ZPE       0.000 [kcal/mol]        0.000 [kJ/mol]       0.00000000 [Eh]
    Rotational ZPE          0.000 [kcal/mol]        0.000 [kJ/mol]       0.00000000 [Eh]
    Vibrational ZPE        16.279 [kcal/mol]       68.113 [kJ/mol]       0.02594279 [Eh]        5693.784 [cm^-1]
  Correction ZPE           16.279 [kcal/mol]       68.113 [kJ/mol]       0.02594279 [Eh]        5693.784 [cm^-1]
  Total ZPE, Electronic energy at 0 [K]                                -76.02603958 [Eh]

  Thermal Energy, E (includes ZPE)
    Electronic E            0.000 [kcal/mol]        0.000 [kJ/mol]       0.00000000 [Eh]
    Translational E         0.889 [kcal/mol]        3.718 [kJ/mol]       0.00141628 [Eh]
    Rotational E            0.889 [kcal/mol]        3.718 [kJ/mol]       0.00141628 [Eh]
    Vibrational E          16.586 [kcal/mol]       69.398 [kJ/mol]       0.02643225 [Eh]
  Correction E             18.364 [kcal/mol]       76.835 [kJ/mol]       0.02926481 [Eh]
  Total E, Electronic energy at  298.15 [K]                            -76.02271757 [Eh]

  Enthalpy, H_trans = E_trans + k_B * T
    Electronic H            0.000 [kcal/mol]        0.000 [kJ/mol]       0.00000000 [Eh]
    Translational H         1.481 [kcal/mol]        6.197 [kJ/mol]       0.00236046 [Eh]
    Rotational H            0.889 [kcal/mol]        3.718 [kJ/mol]       0.00141628 [Eh]
    Vibrational H          16.586 [kcal/mol]       69.398 [kJ/mol]       0.02643225 [Eh]
  Correction H             18.956 [kcal/mol]       79.314 [kJ/mol]       0.03020899 [Eh]
  Total H, Enthalpy at  298.15 [K]                                     -76.02177338 [Eh]

  Gibbs free energy, G = H - T * S
    Electronic G            0.000 [kcal/mol]        0.000 [kJ/mol]       0.00000000 [Eh]
    Translational G        -8.837 [kcal/mol]      -36.975 [kJ/mol]      -0.01408304 [Eh]
    Rotational G           -2.244 [kcal/mol]       -9.390 [kJ/mol]      -0.00357665 [Eh]
    Vibrational G          16.173 [kcal/mol]       67.667 [kJ/mol]       0.02577298 [Eh]
  Correction G              5.091 [kcal/mol]       21.301 [kJ/mol]       0.00811329 [Eh]
  Total G, Free enthalpy at  298.15 [K]                                -76.04386908 [Eh]

    Psi4 stopped on: Tuesday, 19 April 2022 12:04AM
    Psi4 wall time for execution: 0:00:24.61

*** Psi4 exiting successfully. Buy a developer a beer!
